Control file title. For DL_FIELD 4.10
49848
    1MOL     C1    1   5.169   3.879   6.175  0.1157 -0.1453  0.0467
    1MOL     C2    2   5.181   4.000   6.084  0.4127  0.3340 -0.6098
    1MOL     C3    3   5.201   4.128   6.135  0.2885 -0.1402 -0.8552
    1MOL     C4    4   5.221   4.234   6.042  0.0403  0.6410  0.0161
    1MOL     C5    5   5.208   4.214   5.902  0.0828  0.2364 -0.5805
    1MOL     O6    6   5.232   4.305   5.803  0.5479 -0.0215 -0.6464
    1MOL     C7    7   5.239   4.438   5.839  0.4858 -0.5248 -0.3932
    1MOL     C8    8   5.177   4.081   5.859  0.0429 -0.5734  0.0819
    1MOL     C9    9   5.165   3.975   5.947 -0.2900  0.2165  0.5420
    1MOL    C10   10   5.303   3.810   6.192 -0.3602  0.2996  0.1131
    1MOL    H11   11   5.101   3.808   6.127 -1.1361  1.5595 -0.7503
    1MOL    H12   12   5.222   4.135   6.241  1.5056  1.9321 -1.1927
    1MOL    H13   13   5.245   4.333   6.078 -2.0167  0.9736  0.5058
    1MOL    H14   14   5.323   4.455   5.906 -1.6443  2.0623  1.7648
    1MOL    H15   15   5.239   4.504   5.752 -1.0070  0.1560  0.0969
    1MOL    H16   16   5.154   4.472   5.899  1.9801  0.3755  1.2845
    1MOL    H17   17   5.183   4.071   5.751  0.0424  0.3160  0.0009
    1MOL    H18   18   5.136   3.880   5.906 -0.1126  0.5474 -0.3522
    1MOL    H19   19   5.331   3.761   6.099 -1.5549  0.6600 -0.4540
    1MOL    H20   20   5.374   3.891   6.212  0.5243 -0.6444  0.7917
    1MOL    H21   21   5.108   3.911   6.259 -0.6941 -0.8124 -0.2776
    1MOL    C22   22   5.304   3.707   6.309  0.1403 -0.2002  0.1603
    1MOL    C23   23   5.219   3.586   6.285 -0.3483 -0.6449  0.0987
    1MOL    C24   24   5.125   3.542   6.379 -0.0610 -1.1368 -0.4568
    1MOL    C25   25   5.054   3.419   6.348 -0.5556  0.1225 -0.2339
    1MOL    C26   26   5.078   3.353   6.229  0.1296 -0.1038  0.1156
    1MOL    O27   27   5.024   3.230   6.221 -0.4044  0.0948 -0.4464
    1MOL    C28   28   4.989   3.178   6.096  0.4191 -0.2406 -0.6398
    1MOL    C29   29   5.169   3.400   6.136 -0.4504  0.4721  0.0636
    1MOL    C30   30   5.241   3.521   6.162 -0.0005  0.5552  0.2116
    1MOL    C31   31   5.447   3.657   6.343 -0.7816 -0.1326  0.3222
    1MOL    H32   32   5.266   3.765   6.393 -0.0683  1.3905 -1.0040
    1MOL    H33   33   5.108   3.598   6.470 -1.2600 -1.3707 -0.5370
    1MOL    H34   34   4.977   3.380   6.413 -0.5060 -0.6924 -0.6565
    1MOL    H35   35   4.922   3.098   6.128 -0.7889  0.6397 -0.9364
    1MOL    H36   36   5.081   3.146   6.048  1.4689 -0.3412  1.4253
    1MOL    H37   37   4.928   3.257   6.052 -1.8281 -0.8976  1.2129
    1MOL    H38   38   5.178   3.345   6.044 -2.1674  0.2514  0.0187
    1MOL    H39   39   5.317   3.561   6.095  1.2664  0.1314  1.3682
    1MOL    H40   40   5.473   3.590   6.262  0.7709 -1.6416  2.0377
    1MOL    H41   41   5.518   3.740   6.339  0.6812 -1.1874  3.0195
    1MOL    C42   42   5.471   3.590   6.480 -0.5554 -0.3348  0.3742
    1MOL    C43   43   5.425   3.673   6.605 -0.6019  0.7522  0.7034
    1MOL    C44   44   5.452   3.808   6.614 -0.2623 -0.6257 -0.8085
    1MOL    C45   45   5.409   3.872   6.728  0.1005 -0.1770 -0.0848
    1MOL    C46   46   5.340   3.811   6.835 -0.6760  0.1089 -0.5770
    1MOL    O47   47   5.289   3.891   6.938 -0.4094 -0.1138 -0.2998
    1MOL    C48   48   5.228   3.815   7.051 -0.0329 -0.6397  0.5718
    1MOL    C49   49   5.316   3.672   6.817  0.7771 -0.1031  0.1857
    1MOL    C50   50   5.359   3.608   6.705 -0.0421 -0.3978  0.9959
    1MOL    C51   51   5.617   3.541   6.500  0.4972 -0.3060 -0.1502
    1MOL    H52   52   5.417   3.495   6.480  2.3277 -2.0546 -0.9538
    1MOL    H53   53   5.507   3.858   6.536  0.2634  1.0046  0.5991
    1MOL    H54   54   5.426   3.979   6.728  0.3895 -0.2145  1.8425
    1MOL    H55   55   5.157   3.735   7.029 -1.2513  0.4127  0.5752
    1MOL    H56   56   5.323   3.781   7.093  1.1478  1.2714 -0.4891
    1MOL    H57   57   5.189   3.896   7.112 -0.3834  2.0949 -3.1145
    1MOL    H58   58   5.279   3.613   6.899  1.2678 -1.7282 -0.7316
    1MOL    H59   59   5.336   3.502   6.708  0.6332 -0.6391 -1.3328
    1MOL    H60   60   5.677   3.632   6.502 -2.2682  1.5981 -0.3943
    1MOL    H61   61   5.658   3.487   6.415  0.2614 -1.2290  0.3165
    1MOL    C62   62   5.649   3.456   6.621  0.1318 -0.1955  0.1540
    1MOL    C63   63   5.797   3.421   6.614  0.5487 -0.4879 -0.4540
    1MOL    C64   64   5.889   3.502   6.687 -0.0771  0.7510 -0.3873
    1MOL    C65   65   6.028   3.466   6.688  0.7140 -0.0709 -0.3228
    1MOL    C66   66   6.069   3.348   6.623 -0.9588 -0.3311 -0.1972
    1MOL    O67   67   6.205   3.319   6.624 -0.4233  0.1461 -0.4098
    1MOL    C68   68   6.250   3.199   6.568 -0.3080  0.4587 -0.2400
    1MOL    C69   69   5.977   3.275   6.551 -0.4119  0.6204  0.0156
    1MOL    C70   70   5.841   3.304   6.551 -0.7958  0.4655  0.0076
    1MOL    C71   71   5.565   3.329   6.636 -0.3379  0.4236  0.5936
    1MOL    H72   72   5.637   3.511   6.715  0.8839  0.5296 -0.1715
    1MOL    H73   73   5.863   3.596   6.733 -0.9340  0.3849 -0.1315
    1MOL    H74   74   6.102   3.532   6.731  2.3563 -1.8356 -0.3778
    1MOL    H75   75   6.184   3.114   6.585  2.2728 -1.8653 -1.4414
    1MOL    H76   76   6.343   3.177   6.620  0.1387 -0.8793 -1.5691
    1MOL    H77   77   6.274   3.225   6.465  4.2612  3.5588  1.4313
    1MOL    H78   78   6.017   3.199   6.486  3.7103  0.7929  2.2099
    1MOL    H79   79   5.776   3.232   6.503  0.9221 -0.2089 -1.3349
    1MOL    H80   80   5.459   3.355   6.640 -0.9147 -2.0070  1.7280
    1MOL    H81   81   5.570   3.274   6.542  1.4256  1.5447  0.0102
    1MOL    C82   82   5.588   3.241   6.764  0.1419 -0.6126 -0.9634
    1MOL    C83   83   5.523   3.308   6.884 -0.0677 -0.4161  0.1724
    1MOL    C84   84   5.590   3.404   6.964  0.5850 -0.2806 -0.6267
    1MOL    C85   85   5.527   3.460   7.081 -0.0368 -0.2585 -0.7927
    1MOL    C86   86   5.390   3.442   7.108 -0.2917  0.9843 -0.2456
    1MOL    O87   87   5.329   3.508   7.214 -0.2744 -0.5029  0.2350
    1MOL    C88   88   5.222   3.452   7.285  0.0610  0.2436 -0.1878
    1MOL    C89   89   5.317   3.352   7.023 -0.1182 -0.0814  0.0478
    1MOL    C90   90   5.384   3.289   6.912  0.0491  0.4148 -0.5004
    1MOL    C91   91   5.568   3.090   6.752 -0.8010  0.6412  0.8567
    1MOL    H92   92   5.692   3.256   6.794 -0.1530 -1.0925  0.3149
    1MOL    H93   93   5.695   3.427   6.957  0.1626  2.4351  1.2534
    1MOL    H94   94   5.589   3.523   7.143  1.1245 -0.9794 -1.1926
    1MOL    H95   95   5.234   3.346   7.308 -0.2889  0.6263  1.8861
    1MOL    H96   96   5.133   3.463   7.224  0.1673  2.6804  0.0769
    1MOL    H97   97   5.213   3.503   7.381  1.6237 -1.8268  1.1195
    1MOL    H98   98   5.212   3.340   7.043 -0.3032  1.4030  0.0741
    1MOL    H99   99   5.323   3.223   6.852  0.3084 -0.9041  0.6527
    1MOL   H100  100   5.466   3.070   6.718  0.0808 -2.7209 -0.0558
    1MOL   H101  101   5.626   3.047   6.670  0.4881  3.2830  0.3288
    1MOL   C102  102   5.575   3.008   6.888  0.2559 -0.6560 -0.0036
    1MOL   C103  103   5.495   2.880   6.874 -0.1183 -0.3488 -0.2271
    1MOL   C104  104   5.534   2.781   6.786 -0.0216 -0.2667  0.7147
    1MOL   C105  105   5.468   2.651   6.782 -0.4742 -0.8568  0.6380
    1MOL   C106  106   5.367   2.625   6.871 -0.1657  0.2146  0.9149
    1MOL   O107  107   5.310   2.502   6.856  0.0204  0.1117 -0.3828
    1MOL   C108  108   5.246   2.454   6.970 -0.6965 -0.3863 -0.3627
    1MOL   C109  109   5.316   2.725   6.960  0.2560 -0.3067 -0.3571
    1MOL   C110  110   5.387   2.851   6.959  0.2545 -0.0449  0.2307
    1MOL   C111  111   5.719   2.962   6.916  0.2782  0.3121 -0.7595
    1MOL   H112  112   5.540   3.053   6.981  1.1303  0.8187 -0.3764
    1MOL   H113  113   5.613   2.808   6.717 -0.6174 -0.2882  0.0168
    1MOL   H114  114   5.511   2.582   6.710  0.9207 -1.1320  1.7130
    1MOL   H115  115   5.244   2.345   6.974  0.5738 -0.3655  1.1585
    1MOL   H116  116   5.286   2.488   7.065 -5.0955 -2.2823  2.2925
    1MOL   H117  117   5.141   2.482   6.969 -0.5939  0.0153  0.0402
    1MOL   H118  118   5.232   2.708   7.025 -0.2016 -1.6347 -1.2546
    1MOL   H119  119   5.361   2.939   7.017  3.4727  1.0233  0.1743
    1MOL   H120  120   5.708   2.869   6.972 -3.2732 -0.5379 -2.7045
    1MOL   H121  121   5.762   2.944   6.817 -0.7083 -3.4567 -0.5831
    1MOL   C122  122   5.793   3.046   7.015 -0.1097 -0.1994 -1.2676
    1MOL   C123  123   5.948   3.038   6.994 -0.1981 -0.4252  0.5185
    1MOL   C124  124   6.000   2.907   6.969  0.2846  0.7531 -0.6365
    1MOL   C125  125   6.128   2.895   6.916 -0.3493  0.4155  0.2012
    1MOL   C126  126   6.210   3.011   6.901  0.4159  0.3404  0.4257
    1MOL   O127  127   6.342   3.007   6.865 -0.2180  0.0889 -0.8273
    1MOL   C128  128   6.398   2.884   6.814 -0.4765 -0.2054  0.0429
    1MOL   C129  129   6.152   3.134   6.916 -0.4284 -0.7281  1.0331
    1MOL   C130  130   6.023   3.153   6.966 -0.1098  0.9913 -0.0880
    1MOL   C131  131   5.762   3.023   7.163 -0.3429 -0.5284  0.1468
    1MOL   H132  132   5.770   3.148   6.982  2.0115 -0.3218 -3.2307
    1MOL   H133  133   5.939   2.820   6.990  1.5153 -0.1842 -0.9127
    1MOL   H134  134   6.157   2.794   6.893 -1.3652  0.4185 -1.2072
    1MOL   H135  135   6.500   2.903   6.779  1.0223 -1.5399  3.4616
    1MOL   H136  136   6.394   2.798   6.880 -0.2195  0.5103  1.0067
    1MOL   H137  137   6.336   2.871   6.725  1.6721  0.3221 -1.5818
    1MOL   H138  138   6.222   3.217   6.917 -0.1829 -0.8753 -1.3036
    1MOL   H139  139   5.987   3.255   6.968 -1.4794  0.5728 -2.3371
    1MOL   H140  140   5.796   2.924   7.192 -1.4409 -0.6497  1.0521
    1MOL   H141  141   5.653   3.031   7.164 -0.4054 -1.2601 -0.5629
    1MOL   C142  142   5.817   3.134   7.256  0.0376 -0.0279 -0.0859
    1MOL   C143  143   5.702   3.173   7.356 -0.5640  0.2090  0.1505
    1MOL   C144  144   5.641   3.078   7.437 -0.8730  0.1424 -0.2674
    1MOL   C145  145   5.526   3.100   7.512 -0.0381 -0.6820  0.2825
    1MOL   C146  146   5.464   3.229   7.504 -0.5795 -0.2546 -0.5694
    1MOL   O147  147   5.347   3.269   7.571 -0.1205 -0.1320 -0.6356
    1MOL   C148  148   5.259   3.171   7.628  0.5900  0.2793  0.3562
    1MOL   C149  149   5.532   3.333   7.431  0.4798  0.3301 -0.2533
    1MOL   C150  150   5.644   3.304   7.357 -0.3352  0.7201 -0.0946
    1MOL   C151  151   5.955   3.118   7.329 -0.5663 -0.4344  0.3668
    1MOL   H152  152   5.829   3.224   7.195 -0.9535 -1.2660 -2.1613
    1MOL   H153  153   5.692   2.983   7.435 -1.7338 -0.3293 -0.0500
    1MOL   H154  154   5.484   3.025   7.577 -0.0245 -1.6531 -0.8178
    1MOL   H155  155   5.185   3.226   7.686 -0.9410  0.7000 -1.9530
    1MOL   H156  156   5.202   3.115   7.553  0.7682  1.8294 -0.9634
    1MOL   H157  157   5.300   3.105   7.705 -1.2922  0.0283  1.1877
    1MOL   H158  158   5.493   3.434   7.433  1.7528  0.8237  0.8299
    1MOL   H159  159   5.679   3.383   7.293 -0.6066  0.8653 -0.0638
    1MOL   H160  160   5.962   3.175   7.422  0.6102  2.1647 -1.2461
    1MOL   H161  161   6.019   3.176   7.262 -1.3794  0.6251  0.4882
    1MOL   C162  162   6.027   2.985   7.348 -0.2172 -0.1513 -0.1345
    1MOL   C163  163   5.941   2.894   7.434 -0.6237  0.2090 -0.6396
    1MOL   C164  164   5.908   2.932   7.565 -0.1436  0.0749 -0.1017
    1MOL   C165  165   5.824   2.849   7.636  0.6455  0.4096  0.3390
    1MOL   C166  166   5.792   2.723   7.593  0.2182 -0.2378  0.2500
    1MOL   O167  167   5.719   2.638   7.671 -0.3369 -0.6618  0.3202
    1MOL   C168  168   5.782   2.609   7.799  0.0663 -0.4469 -0.1846
    1MOL   C169  169   5.839   2.677   7.464 -0.3840 -0.5009  0.0783
    1MOL   C170  170   5.906   2.767   7.381 -0.0466 -0.2107 -0.1128
    1MOL   C171  171   6.178   3.000   7.384  0.2453  0.0339  0.0153
    1MOL   H172  172   6.023   2.945   7.247  2.1409  2.8091 -1.4680
    1MOL   H173  173   5.945   3.027   7.602  1.6840 -0.6789  0.0725
    1MOL   H174  174   5.802   2.874   7.739 -1.6645 -2.7242  0.6622
    1MOL   H175  175   5.775   2.501   7.816  0.7678 -0.5014 -0.2072
    1MOL   H176  176   5.731   2.665   7.877 -1.5272 -0.4010 -1.2379
    1MOL   H177  177   5.888   2.636   7.795 -0.6399  2.3590 -0.7040
    1MOL   H178  178   5.803   2.580   7.434 -2.1592 -0.1640  1.0631
    1MOL   H179  179   5.930   2.731   7.281  0.0938  1.3949 -0.6628
    1MOL   H180  180   6.224   3.091   7.345  1.0703 -0.0558  0.7722
    1MOL   H181  181   6.238   2.931   7.324  0.4203 -0.1957  0.4576
    1MOL   C182  182   6.229   3.004   7.532  0.4681  0.5451  0.9613
    1MOL   C183  183   6.347   3.099   7.542  0.1339  0.0410  0.1514
    1MOL   C184  184   6.325   3.228   7.596  0.5928  0.6004  0.3360
    1MOL   C185  185   6.438   3.304   7.630  0.3560  0.2902  0.1719
    1MOL   C186  186   6.570   3.255   7.609 -0.4215  0.4237 -0.6825
    1MOL   O187  187   6.681   3.328   7.651 -0.3504  0.3756 -0.1983
    1MOL   C188  188   6.655   3.417   7.762 -0.1165 -0.2773  0.0040
    1MOL   C189  189   6.587   3.137   7.537  0.0484 -0.0720 -0.3185
    1MOL   C190  190   6.473   3.062   7.502  0.5652 -0.3189 -0.1283
    1MOL   C191  191   6.265   2.861   7.580  1.0555  0.4519 -0.1001
    1MOL   H192  192   6.152   3.046   7.597 -1.0979 -0.2672 -0.3196
    1MOL   H193  193   6.227   3.270   7.611  0.0559 -0.9629  1.1647
    1MOL   H194  194   6.419   3.403   7.669  0.9406  0.1787  0.7429
    1MOL   H195  195   6.585   3.498   7.747 -1.1971 -1.4768 -1.6079
    1MOL   H196  196   6.744   3.472   7.794  0.3685 -0.9068 -0.2605
    1MOL   H197  197   6.621   3.357   7.847 -0.1655  0.0951  0.2480
    1MOL   H198  198   6.686   3.102   7.513  0.3766  1.1628 -0.8041
    1MOL   H199  199   6.491   2.966   7.455  2.6079  0.4452 -0.9937
    1MOL   H200  200   6.173   2.802   7.577  1.9870 -1.1954  2.1136
    1MOL   H201  201   6.334   2.813   7.512  2.0442  1.3993  0.2261
    1MOL   C202  202   6.322   2.849   7.720  0.0291  0.4406 -0.3372
    1MOL   C203  203   6.356   2.699   7.749 -0.1202  1.0016 -0.4047
    1MOL   C204  204   6.258   2.602   7.781 -0.0430 -0.4448 -0.0966
    1MOL   C205  205   6.301   2.469   7.802 -0.3812 -0.0365 -0.7233
    1MOL   C206  206   6.437   2.435   7.798 -0.6716  0.6040  0.4173
    1MOL   O207  207   6.480   2.307   7.825 -0.5105 -0.1503  0.2643
    1MOL   C208  208   6.431   2.254   7.953  0.3244  0.1003 -0.5371
    1MOL   C209  209   6.532   2.531   7.748  0.4770  0.7950 -0.1159
    1MOL   C210  210   6.488   2.660   7.730 -0.0611  0.3145  0.5750
    1MOL   C211  211   6.233   2.908   7.828  0.0185 -0.3312 -0.0283
    1MOL   H212  212   6.413   2.909   7.722 -0.5205  1.2565  1.6264
    1MOL   H213  213   6.152   2.616   7.798 -0.1249 -2.9770  1.8093
    1MOL   H214  214   6.231   2.393   7.833  0.3463 -0.6728 -0.6570
    1MOL   H215  215   6.325   2.230   7.957  0.2638  0.5600  0.6381
    1MOL   H216  216   6.493   2.174   7.994  0.4133  1.0497  1.2089
    1MOL   H217  217   6.450   2.334   8.023  1.0189 -1.5490  1.2113
    1MOL   H218  218   6.638   2.511   7.745  0.5216  1.1316 -0.6923
    1MOL   H219  219   6.546   2.738   7.682 -0.5687  0.2766 -0.1052
    1MOL   H220  220   6.130   2.880   7.810  1.0299 -4.0605 -0.4133
    1MOL   H221  221   6.239   3.015   7.807 -0.0642 -0.1213  0.9959
    1MOL   C222  222   6.279   2.893   7.976  0.1619  0.0484 -0.5990
    1MOL   C223  223   6.429   2.931   7.998 -0.8631  0.3180 -0.2993
    1MOL   C224  224   6.483   3.050   7.944 -0.4756 -0.0991  0.0304
    1MOL   C225  225   6.613   3.091   7.973  0.4952 -0.1391  0.8576
    1MOL   C226  226   6.681   3.011   0.021 -0.0715 -0.7152  0.0526
    1MOL   O227  227   6.808   3.041   0.053 -0.6026  0.0160  0.8455
    1MOL   C228  228   6.859   3.168   0.035 -0.1528 -0.0683  0.1669
    1MOL   C229  229   6.630   2.892   0.079  0.0826  0.1845 -0.1118
    1MOL   C230  230   6.502   2.855   0.050  0.7217  0.7135  0.0300
    1MOL   C231  231   6.198   2.975   0.039 -0.9968 -0.1229  0.1609
    1MOL   H232  232   6.272   2.790   8.013 -1.1095  1.0842  2.1833
    1MOL   H233  233   6.420   3.123   7.895 -2.3352 -1.6829 -0.0085
    1MOL   H234  234   6.641   3.189   7.939  2.6714 -1.1976 -0.4691
    1MOL   H235  235   6.808   3.252   0.081 -2.7661  0.1520 -2.9356
    1MOL   H236  236   6.965   3.169   0.062 -0.0293  0.9699 -0.3129
    1MOL   H237  237   6.865   3.191   7.968  0.4584  2.3132  0.6720
    1MOL   H238  238   6.690   2.830   0.143 -1.2572 -0.7042  0.2956
    1MOL   H239  239   6.451   2.764   0.080  1.3700 -0.3915 -2.1045
    1MOL   H240  240   6.257   2.971   0.130  0.0966  2.0471 -0.4345
    1MOL   H241  241   6.200   3.081   0.013  1.3078 -0.0908  0.3943
    1MOL   C242  242   6.067   2.911   0.069 -0.6041 -0.6914 -0.9554
    1MOL   C243  243   6.078   2.767   0.121  0.3572 -0.6069 -0.9238
    1MOL   C244  244   6.040   2.653   0.044  0.5960  0.1659 -0.4916
    1MOL   C245  245   6.051   2.520   0.090  0.3233 -0.1482 -0.3596
    1MOL   C246  246   6.104   2.502   0.219  0.0753  0.1704  0.5220
    1MOL   O247  247   6.121   2.372   0.262  0.5465  0.1068 -0.5177
    1MOL   C248  248   6.201   2.344   0.371  0.4412  0.9830  0.2392
    1MOL   C249  249   6.140   2.616   0.295 -0.2741 -0.3497  0.4038
    1MOL   C250  250   6.125   2.747   0.250 -0.7415 -0.4959  0.0949
    1MOL   C251  251   5.978   3.000   0.160  0.0879  0.7223  0.3176
    1MOL   H252  252   6.006   2.910   8.019  0.2963  0.2734 -1.5935
    1MOL   H253  253   6.003   2.674   7.985 -1.9673 -0.0665  0.3773
    1MOL   H254  254   6.019   2.446   0.018  0.7250 -1.2703  0.6046
    1MOL   H255  255   6.190   2.404   0.461  4.2965 -1.5153  2.4986
    1MOL   H256  256   6.191   2.238   0.390 -0.5642  1.0944  0.3495
    1MOL   H257  257   6.309   2.356   0.355  0.7801 -0.6627  1.2059
    1MOL   H258  258   6.176   2.602   0.396 -1.4974 -3.2629  0.4945
    1MOL   H259  259   6.158   2.827   0.315  1.3795 -1.8380  0.7199
    1MOL   H260  260   5.976   3.101   0.120 -1.0356 -0.2272 -2.1498
    1MOL   H261  261   6.033   3.003   0.254 -0.1345  0.8560  0.4431
    1MOL   C262  262   5.844   2.948   0.196  0.1852 -1.1165  0.3987
    1MOL   C263  263   5.754   2.933   0.078  0.1916 -0.1135  0.1776
    1MOL   C264  264   5.645   2.837   0.072  0.2296 -0.7758 -1.0492
    1MOL   C265  265   5.561   2.824   8.002 -0.4640  0.2267  0.2813
    1MOL   C266  266   5.556   2.927   7.907 -0.3439  0.2633 -0.1891
    1MOL   O267  267   5.475   2.936   7.796  0.0601 -0.6289  0.0757
    1MOL   C268  268   5.366   2.854   7.784 -0.4615 -0.5741 -0.5039
    1MOL   C269  269   5.659   3.024   7.905  0.3545  0.5951  0.7139
    1MOL   C270  270   5.758   3.030   8.010  0.7298  0.4450 -1.0427
    1MOL   C271  271   5.769   3.032   0.309 -0.7450  0.5158 -0.0660
    1MOL   H272  272   5.851   2.846   0.234  0.0249  0.4439  4.9222
    1MOL   H273  273   5.642   2.770   0.156 -1.2181  0.7582  0.1577
    1MOL   H274  274   5.485   2.747   7.994 -0.6001  0.6909 -3.3908
    1MOL   H275  275   5.320   2.872   7.687 -2.1446  2.0490  0.7356
    1MOL   H276  276   5.297   2.875   7.866  1.6513  0.8337  0.9545
    1MOL   H277  277   5.395   2.748   7.784  2.3598  0.1500 -0.9268
    1MOL   H278  278   5.675   3.093   7.823 -1.2685  1.9206  1.4786
    1MOL   H279  279   5.843   3.097   8.005  1.7057 -0.5734  1.3669
    1MOL   H280  280   5.758   3.135   0.278  0.5481  0.1745 -1.7117
    1MOL   H281  281   5.668   2.989   0.313 -0.3864 -0.3479 -0.1540
    1MOL   C282  282   5.828   3.029   0.453 -0.6925  0.4990 -0.0672
    1MOL   C283  283   5.717   3.020   0.562  0.4118  0.5878 -0.4327
    1MOL   C284  284   5.645   3.135   0.587 -0.0808 -1.0788  0.8465
    1MOL   C285  285   5.532   3.128   0.669  0.3686  0.3892  1.4153
    1MOL   C286  286   5.485   3.010   0.730  0.0851  0.6442 -0.8653
    1MOL   O287  287   5.362   3.002   0.796 -1.2526  0.0814  0.0003
    1MOL   C288  288   5.288   3.124   0.820 -0.1146  0.7787 -0.3603
    1MOL   C289  289   5.564   2.898   0.709 -0.2586 -0.9862 -0.1844
    1MOL   C290  290   5.678   2.900   0.626 -0.0518  0.3367  0.6517
    1MOL   C291  291   5.930   3.143   0.482 -0.4801 -0.3518  0.5626
    1MOL   H292  292   5.886   2.938   0.465  0.0585  1.0716  0.7683
    1MOL   H293  293   5.672   3.226   0.534 -0.4069 -1.0390  0.7503
    1MOL   H294  294   5.496   3.224   0.703 -1.5454  0.5365 -0.8194
    1MOL   H295  295   5.189   3.105   0.860 -0.2877  2.4277  0.0552
    1MOL   H296  296   5.329   3.198   0.889 -1.3416 -1.3762  2.8013
    1MOL   H297  297   5.272   3.182   0.729 -0.2388 -0.8760 -1.4039
    1MOL   H298  298   5.518   2.809   0.749 -2.6709  0.0510 -0.5510
    1MOL   H299  299   5.732   2.809   0.602 -1.3170 -0.4004  0.5718
    1MOL   H300  300   5.997   3.150   0.396 -0.0774 -0.2234  0.8835
    1MOL   H301  301   5.882   3.239   0.466  1.1292  0.2658 -0.6248
    1MOL   C302  302   6.020   3.141   0.612  0.3688 -0.4548 -0.6135
    1MOL   C303  303   6.109   3.018   0.616 -0.6710 -0.3073 -0.3960
    1MOL   C304  304   6.241   3.018   0.563  0.1909  0.0684  0.8838
    1MOL   C305  305   6.317   2.901   0.565  0.6481  0.0095 -0.0490
    1MOL   C306  306   6.268   2.776   0.607  0.2628 -0.1436  0.4255
    1MOL   O307  307   6.328   2.655   0.610 -0.6378  0.0239  0.1666
    1MOL   C308  308   6.461   2.644   0.569 -0.2661 -0.3636 -0.1481
    1MOL   C309  309   6.136   2.776   0.657  0.3837 -1.0806 -0.1216
    1MOL   C310  310   6.060   2.896   0.666 -0.1105  0.7983  0.2156
    1MOL   C311  311   6.103   3.276   0.629  0.1627  0.1450 -0.1314
    1MOL   H312  312   5.950   3.136   0.696  0.3967  0.0721 -0.5578
    1MOL   H313  313   6.276   3.113   0.524  0.8554 -0.3576  0.4292
    1MOL   H314  314   6.417   2.911   0.526  1.1526 -0.1690  1.1979
    1MOL   H315  315   6.525   2.725   0.603 -0.2336 -0.3209 -0.3088
    1MOL   H316  316   6.470   2.633   0.461  1.2763 -0.2174 -0.0475
    1MOL   H317  317   6.481   2.551   0.622  0.4714 -0.4602 -0.5928
    1MOL   H318  318   6.090   2.688   0.697 -0.5431 -0.4611  0.1893
    1MOL   H319  319   5.968   2.892   0.724 -1.0888 -2.9578 -1.4655
    1MOL   H320  320   6.185   3.295   0.561  1.9572  1.1552  2.2700
    1MOL   H321  321   6.156   3.261   0.723 -0.9820  2.1877  0.8914
    1MOL   C322  322   6.015   3.403   0.626 -0.4025  0.2304  0.4842
    1MOL   C323  323   6.030   3.474   0.488  0.5806 -0.4045  0.4973
    1MOL   C324  324   6.154   3.528   0.452  0.4989  0.0787  0.0699
    1MOL   C325  325   6.173   3.601   0.334 -0.2374 -1.3747  0.0278
    1MOL   C326  326   6.068   3.614   0.245  0.1989 -0.3172 -0.6300
    1MOL   O327  327   6.095   3.685   0.130 -0.1207  0.0904  0.5542
    1MOL   C328  328   5.992   3.712   0.034 -0.4614  0.0745  0.3065
    1MOL   C329  329   5.944   3.551   0.274 -0.1757 -0.2817  0.0667
    1MOL   C330  330   5.923   3.485   0.395  0.7153 -0.0278 -0.1412
    1MOL   C331  331   6.068   3.483   0.740 -0.1704  0.0050  0.0934
    1MOL   H332  332   5.911   3.378   0.646 -0.1642 -1.3353 -0.1403
    1MOL   H333  333   6.242   3.506   0.511  1.3971 -0.6850 -1.5461
    1MOL   H334  334   6.268   3.649   0.315 -0.7049  0.2164  1.5442
    1MOL   H335  335   5.945   3.630   8.019 -0.1006  0.4222 -0.5349
    1MOL   H336  336   6.038   3.773   7.996 -1.3455  2.2273  1.4525
    1MOL   H337  337   5.923   3.778   0.086 -1.8909 -2.4762  1.7892
    1MOL   H338  338   5.862   3.561   0.205 -0.4833  0.4054  0.5227
    1MOL   H339  339   5.830   3.440   0.425  0.3874 -0.0874 -1.2317
    1MOL   H340  340   6.175   3.490   0.755  0.0050 -0.6315 -0.8190
    1MOL   H341  341   6.052   3.588   0.716  0.5802 -0.2617 -1.6273
    1MOL   C342  342   6.009   3.454   0.881  0.4218  0.2209  0.0882
    1MOL   C343  343   5.861   3.486   0.883  0.0851 -0.3572 -0.7832
    1MOL   C344  344   5.760   3.381   0.883  0.1173  0.5100 -0.1275
    1MOL   C345  345   5.623   3.415   0.887 -0.6086  0.1213  0.4802
    1MOL   C346  346   5.581   3.552   0.907 -0.2048  0.2760 -0.4338
    1MOL   O347  347   5.449   3.594   0.930 -0.4696 -0.0315 -0.2235
    1MOL   C348  348   5.352   3.511   0.869  0.5962  0.2895 -0.0394
    1MOL   C349  349   5.682   3.650   0.931  0.4854 -0.0869  0.4565
    1MOL   C350  350   5.813   3.619   0.903  0.4420  0.0187 -0.1134
    1MOL   C351  351   6.079   3.538   0.996  0.0285  0.3108  0.3116
    1MOL   H352  352   6.011   3.345   0.883 -0.0379  0.1762 -1.2736
    1MOL   H353  353   5.790   3.278   0.891 -1.4265 -0.0992 -1.8606
    1MOL   H354  354   5.552   3.334   0.890 -2.3556  1.5770 -0.7374
    1MOL   H355  355   5.378   3.495   0.764  1.0527 -1.5699  0.3415
    1MOL   H356  356   5.329   3.420   0.924 -0.8383 -0.6373 -2.0951
    1MOL   H357  357   5.265   3.576   0.865  0.1306 -0.3627 -1.0063
    1MOL   H358  358   5.646   3.751   0.944  0.3962  0.1067 -1.1718
    1MOL   H359  359   5.890   3.695   0.901  1.0153 -0.4925  1.6387
    1MOL   H360  360   6.075   3.638   0.954  0.7716  0.0329 -0.4410
    1MOL   H361  361   6.010   3.541   1.080  0.0211  2.4130  0.2391
    1MOL   C362  362   6.220   3.507   1.032 -0.2400 -0.9744 -0.0503
    1MOL   C363  363   6.232   3.378   1.107 -0.5407  0.3683 -0.3962
    1MOL   C364  364   6.174   3.364   1.237  0.2309 -0.0559  0.4062
    1MOL   C365  365   6.185   3.242   1.305 -0.2289 -0.1851  0.2016
    1MOL   C366  366   6.256   3.132   1.249  0.1429 -0.2996 -0.4782
    1MOL   O367  367   6.279   3.015   1.324 -0.3805 -0.8331  0.0634
    1MOL   C368  368   6.306   2.900   1.255  0.1212 -0.1210  0.0492
    1MOL   C369  369   6.316   3.148   1.123 -0.7169  0.0722  0.0118
    1MOL   C370  370   6.304   3.266   1.051 -0.7638 -0.3252 -0.0331
    1MOL   C371  371   6.294   3.617   1.104 -0.6938 -0.1803  0.6746
    1MOL   H372  372   6.277   3.487   0.941  1.7518  1.7621  0.5389
    1MOL   H373  373   6.125   3.448   1.283  0.9083 -0.2166  1.4331
    1MOL   H374  374   6.131   3.224   1.396 -0.5586 -2.6979 -0.4681
    1MOL   H375  375   6.400   2.907   1.201 -0.1557 -2.2368 -0.7598
    1MOL   H376  376   6.311   2.811   1.318  1.1612  0.2929  0.5493
    1MOL   H377  377   6.225   2.882   1.184  0.6512  0.4896 -0.7121
    1MOL   H378  378   6.363   3.068   1.067  1.6312  0.2925  1.5823
    1MOL   H379  379   6.333   3.275   0.947 -0.0752 -1.7962  0.0240
    1MOL   H380  380   6.248   3.628   1.202  0.3495 -0.8156  1.2534
    1MOL   H381  381   6.392   3.579   1.135 -0.4778 -0.1246  0.0656
    1MOL   C382  382   6.309   3.755   1.028  0.0857 -0.7082  0.0146
    1MOL   C383  383   6.366   3.742   0.888 -0.6036  0.3067 -0.7135
    1MOL   C384  384   6.300   3.786   0.777  0.3386 -0.3047  0.3668
    1MOL   C385  385   6.351   3.769   0.646  0.0119 -0.0911 -0.2932
    1MOL   C386  386   6.483   3.727   0.632  0.4861  0.6399  0.2463
    1MOL   O387  387   6.528   3.728   0.502  0.8545  0.1513  0.4769
    1MOL   C388  388   6.661   3.697   0.483 -0.4339 -0.1273 -0.0302
    1MOL   C389  389   6.558   3.683   0.750  0.0080  0.2952 -0.3470
    1MOL   C390  390   6.496   3.686   0.874 -0.7732 -0.0692  0.4105
    1MOL   C391  391   6.393   3.854   1.110  0.0440 -0.2761  0.3274
    1MOL   H392  392   6.217   3.813   1.023 -0.2729 -0.9696  2.5574
    1MOL   H393  393   6.200   3.826   0.788  0.4334  0.0860 -0.1910
    1MOL   H394  394   6.305   3.804   0.554 -1.3061 -2.4889 -0.5897
    1MOL   H395  395   6.667   3.596   0.524 -0.4869  0.7690  2.2568
    1MOL   H396  396   6.723   3.768   0.537 -1.6035  0.1487  0.9734
    1MOL   H397  397   6.682   3.703   0.376  1.3117  0.9737  0.3574
    1MOL   H398  398   6.664   3.665   0.744  0.2827  2.0477 -1.0925
    1MOL   H399  399   6.557   3.670   0.962 -0.4588  0.3834  0.2797
    1MOL   H400  400   6.500   3.840   1.122  0.3727  0.3929 -1.5764
    1MOL   H401  401   6.348   3.868   1.208  2.8807  0.0776  1.6168
    1MOL   H402  402   6.374   3.953   1.068  0.9935  0.2812  1.1879
    2MOL     C1  403   2.256   5.397   1.792 -0.5277 -0.7988 -0.3591
    2MOL     C2  404   2.303   5.538   1.775 -0.8137  0.0546  0.3904
    2MOL     C3  405   2.233   5.647   1.718 -0.2781 -0.8212 -0.0470
    2MOL     C4  406   2.287   5.777   1.713  0.0490  0.4000  0.2898
    2MOL     C5  407   2.416   5.802   1.764 -0.3204  0.7864  0.8206
    2MOL     O6  408   2.455   5.933   1.764 -0.1317 -0.9081  0.3495
    2MOL     C7  409   2.528   5.971   1.879 -0.2791 -0.1954 -0.2227
    2MOL     C8  410   2.488   5.691   1.822  0.0892 -0.6539  0.6038
    2MOL     C9  411   2.426   5.570   1.827  0.8933 -0.5020 -0.2846
    2MOL    C10  412   2.295   5.307   1.679 -0.7191  0.4863  0.5880
    2MOL    H11  413   2.147   5.405   1.792 -0.4379  0.6846  0.6134
    2MOL    H12  414   2.135   5.638   1.674 -0.1046  3.9481 -1.7300
    2MOL    H13  415   2.237   5.866   1.681 -2.5103 -1.1167 -0.0602
    2MOL    H14  416   2.625   5.922   1.893  0.4937  0.9702 -1.3764
    2MOL    H15  417   2.546   6.078   1.886 -3.0745  0.2866  0.1535
    2MOL    H16  418   2.477   5.940   1.970 -2.1722  0.8943 -0.8910
    2MOL    H17  419   2.588   5.701   1.861 -0.2888  0.8748  1.2021
    2MOL    H18  420   2.473   5.484   1.872 -2.2083 -1.5873  1.0095
    2MOL    H19  421   2.228   5.221   1.690 -1.4475  0.9957  0.2196
    2MOL    H20  422   2.271   5.364   1.589 -2.0214  0.7506  1.0864
    2MOL    H21  423   2.284   5.367   1.893 -0.2641  0.3571 -0.0819
    2MOL    C22  424   2.440   5.252   1.678  0.4830 -0.0170  0.6190
    2MOL    C23  425   2.458   5.159   1.801 -0.2525  0.2532 -0.9194
    2MOL    C24  426   2.560   5.181   1.900  0.7970 -0.7102  0.3294
    2MOL    C25  427   2.581   5.091   2.005 -0.3187 -0.2083 -0.1639
    2MOL    C26  428   2.500   4.977   2.013  0.0621 -0.0369 -0.3829
    2MOL    O27  429   2.497   4.888   2.124  0.2924  0.3256 -0.6497
    2MOL    C28  430   2.586   4.920   2.235 -0.0727  0.5329 -0.1237
    2MOL    C29  431   2.408   4.952   1.914 -0.0273 -0.6837 -0.1495
    2MOL    C30  432   2.386   5.041   1.807 -0.1431  0.7915  0.0369
    2MOL    C31  433   2.500   5.194   1.545 -0.0160 -0.5651  0.5365
    2MOL    H32  434   2.503   5.340   1.696  1.5554  0.0215 -2.9341
    2MOL    H33  435   2.620   5.270   1.894 -0.9426  0.6593  2.7516
    2MOL    H34  436   2.657   5.115   2.078 -1.4664  2.1063  0.3507
    2MOL    H35  437   2.563   4.859   2.322 -2.1478  2.1995  0.5399
    2MOL    H36  438   2.572   5.011   2.292 -1.5672 -0.0238  0.4288
    2MOL    H37  439   2.684   4.894   2.196  0.4245  0.8740  0.8996
    2MOL    H38  440   2.336   4.874   1.933 -0.2475 -0.0986  1.5294
    2MOL    H39  441   2.306   5.022   1.737 -0.6857  0.9872  0.6011
    2MOL    H40  442   2.448   5.099   1.531  1.3714 -1.4590  1.3678
    2MOL    H41  443   2.482   5.276   1.475  0.0667 -0.8830  0.1401
    2MOL    C42  444   2.654   5.175   1.543 -0.3829 -0.3815  0.4578
    2MOL    C43  445   2.727   5.307   1.526 -0.8352 -0.2708 -0.6493
    2MOL    C44  446   2.807   5.357   1.630 -0.4002 -0.1095  0.0342
    2MOL    C45  447   2.890   5.466   1.616 -0.5036  0.0842 -0.1301
    2MOL    C46  448   2.900   5.535   1.490 -0.1627  0.7445  0.4245
    2MOL    O47  449   2.992   5.634   1.466 -0.5163 -0.7077 -0.6464
    2MOL    C48  450   3.087   5.667   1.570  0.0518 -0.2276 -0.3102
    2MOL    C49  451   2.810   5.496   1.390 -0.0208  0.4635 -0.0545
    2MOL    C50  452   2.723   5.383   1.405  0.0655 -0.5031  0.0562
    2MOL    C51  453   2.707   5.073   1.438 -0.5256 -0.0764  0.3061
    2MOL    H52  454   2.682   5.139   1.643 -0.3589  1.3670  1.0929
    2MOL    H53  455   2.809   5.320   1.732 -0.8835 -3.6159 -1.1865
    2MOL    H54  456   2.947   5.501   1.701 -1.1643  0.1479  0.2988
    2MOL    H55  457   3.034   5.715   1.652  1.4211  0.6028  0.1055
    2MOL    H56  458   3.141   5.581   1.609 -0.8405 -1.2060 -1.2143
    2MOL    H57  459   3.146   5.736   1.511  1.1635 -2.8711 -2.3872
    2MOL    H58  460   2.816   5.546   1.295 -1.8942 -1.9209 -1.5097
    2MOL    H59  461   2.666   5.340   1.324  0.1807 -2.9938  1.2402
    2MOL    H60  462   2.815   5.077   1.426 -0.4487 -0.1707  0.9310
    2MOL    H61  463   2.661   5.101   1.343  0.1632  0.7024  0.2025
    2MOL    C62  464   2.676   4.921   1.466  0.8727 -0.0381  0.1253
    2MOL    C63  465   2.775   4.869   1.575  0.2758  0.0818  0.3784
    2MOL    C64  466   2.751   4.879   1.715  0.1595  0.6006  0.0421
    2MOL    C65  467   2.847   4.841   1.808  0.1882 -0.3109  0.6104
    2MOL    C66  468   2.975   4.802   1.768  0.0222  1.0100 -0.0551
    2MOL    O67  469   3.076   4.771   1.849 -0.4946  0.0787 -0.3001
    2MOL    C68  470   3.083   4.843   1.967  0.1099 -0.1617 -0.1318
    2MOL    C69  471   3.007   4.805   1.629  0.4389 -0.2368 -0.0109
    2MOL    C70  472   2.908   4.838   1.533  0.8968  0.3479  0.1548
    2MOL    C71  473   2.649   4.831   1.346  0.4064  0.5818 -0.4335
    2MOL    H72  474   2.582   4.926   1.521  1.1434 -0.5003  0.6298
    2MOL    H73  475   2.657   4.919   1.751  0.5168  0.3353  1.3284
    2MOL    H74  476   2.830   4.859   1.913 -1.0144 -1.5560  0.6402
    2MOL    H75  477   3.079   4.950   1.950 -0.1964 -0.0321  0.7095
    2MOL    H76  478   3.182   4.826   2.011  0.4130  1.2629 -0.2359
    2MOL    H77  479   3.001   4.829   2.038  0.3134  0.4488  0.2313
    2MOL    H78  480   3.109   4.782   1.600  0.5104  1.5153 -1.2506
    2MOL    H79  481   2.933   4.843   1.428  0.7275  1.0280  0.1479
    2MOL    H80  482   2.572   4.880   1.286 -2.1995 -0.4399  2.0171
    2MOL    H81  483   2.733   4.835   1.276  0.2358  1.6682 -0.5884
    2MOL    C82  484   2.607   4.682   1.369  0.2999 -0.2340 -0.0006
    2MOL    C83  485   2.500   4.667   1.468 -0.2536 -0.1748  0.0112
    2MOL    C84  486   2.535   4.644   1.601  0.3473  0.5739 -0.4036
    2MOL    C85  487   2.438   4.630   1.697 -0.6563  0.3421 -0.4928
    2MOL    C86  488   2.300   4.637   1.666 -0.2646 -0.3373 -0.1295
    2MOL    O87  489   2.203   4.618   1.764 -1.2149 -0.4149  0.0839
    2MOL    C88  490   2.233   4.555   1.890 -0.1570  0.1747 -0.0249
    2MOL    C89  491   2.266   4.662   1.535  0.3081 -0.1648  0.3574
    2MOL    C90  492   2.365   4.680   1.438 -0.1071 -0.3146  0.6316
    2MOL    C91  493   2.581   4.614   1.234  0.0443 -0.0814 -0.0470
    2MOL    H92  494   2.694   4.638   1.417 -0.7211  0.6579  2.7589
    2MOL    H93  495   2.641   4.632   1.618 -0.4746 -3.3268  2.7695
    2MOL    H94  496   2.473   4.623   1.799 -0.5949 -0.1060 -0.5427
    2MOL    H95  497   2.133   4.544   1.933 -0.2882 -1.9025 -0.7687
    2MOL    H96  498   2.312   4.606   1.945 -1.9713  1.1438  1.7599
    2MOL    H97  499   2.273   4.455   1.873  1.4484  0.9986 -1.1846
    2MOL    H98  500   2.160   4.671   1.514  0.0337  1.8834  2.4766
    2MOL    H99  501   2.338   4.702   1.336 -0.1949 -0.9042  0.5313
    2MOL   H100  502   2.515   4.669   1.167  2.8643  1.2501 -1.8219
    2MOL   H101  503   2.677   4.620   1.181 -2.2643  2.3433 -4.2145
    2MOL   C102  504   2.536   4.469   1.239 -0.1055 -0.0503 -0.1477
    2MOL   C103  505   2.489   4.422   1.105 -0.2092 -0.2661  0.3649
    2MOL   C104  506   2.580   4.434   0.995  0.9384  0.1404 -0.8606
    2MOL   C105  507   2.549   4.392   0.865 -0.0698 -0.2984 -0.2587
    2MOL   C106  508   2.419   4.352   0.844  0.6190  0.5499  0.2058
    2MOL   O107  509   2.373   4.318   0.721  0.2597  0.4568  0.0343
    2MOL   C108  510   2.440   4.370   0.617  0.3441  0.3985  0.6939
    2MOL   C109  511   2.326   4.344   0.946  0.0206 -0.0020  0.4106
    2MOL   C110  512   2.357   4.389   1.076  0.3845  0.2041 -0.1124
    2MOL   C111  513   2.643   4.369   1.312  0.1277 -0.0256  0.8141
    2MOL   H112  514   2.452   4.478   1.308  0.5775  0.4291  0.6332
    2MOL   H113  515   2.683   4.462   1.016  0.5114 -0.4520  2.2544
    2MOL   H114  516   2.623   4.408   0.789  1.2407 -0.2646  0.9924
    2MOL   H115  517   2.524   4.302   0.603  0.4697  0.3407  1.7218
    2MOL   H116  518   2.373   4.375   0.531 -0.2431  1.9635  1.2123
    2MOL   H117  519   2.478   4.471   0.629 -0.9933  1.0942 -0.6138
    2MOL   H118  520   2.228   4.304   0.921  1.2898 -1.8205 -1.8967
    2MOL   H119  521   2.278   4.382   1.150  0.6437  1.4431  0.2977
    2MOL   H120  522   2.736   4.350   1.259 -0.2670 -0.4548  0.2625
    2MOL   H121  523   2.665   4.415   1.408  0.3244 -1.2333  1.3557
    2MOL   C122  524   2.591   4.228   1.345  0.0936  0.4181 -0.3693
    2MOL   C123  525   2.461   4.221   1.422  0.2964 -0.4372  0.1728
    2MOL   C124  526   2.355   4.140   1.372  0.3852  0.1395  0.2580
    2MOL   C125  527   2.231   4.137   1.439 -0.3051  0.0514  0.8426
    2MOL   C126  528   2.217   4.202   1.568 -0.7322  0.5820 -0.0796
    2MOL   O127  529   2.092   4.187   1.617  0.6295  0.6440 -0.4819
    2MOL   C128  530   2.072   4.215   1.754  0.0483  0.0097  0.3788
    2MOL   C129  531   2.328   4.272   1.618  0.5057  1.1020 -0.9176
    2MOL   C130  532   2.449   4.288   1.546 -0.1987  0.0241  0.0530
    2MOL   C131  533   2.697   4.132   1.410 -0.5026 -0.5906 -0.5020
    2MOL   H132  534   2.575   4.190   1.244 -3.9299  2.4394 -0.6024
    2MOL   H133  535   2.378   4.085   1.282 -0.0318 -1.1760  0.9435
    2MOL   H134  536   2.150   4.083   1.393 -2.7632  3.3381  1.1610
    2MOL   H135  537   2.145   4.163   1.816  0.4092  0.9358  0.7327
    2MOL   H136  538   2.096   4.318   1.781 -0.0411  0.1633 -0.1190
    2MOL   H137  539   1.969   4.192   1.784 -0.1246  1.1313  0.6548
    2MOL   H138  540   2.336   4.320   1.714  1.0425 -0.0301 -0.3916
    2MOL   H139  541   2.528   4.350   1.585  0.9175  0.2345 -2.4134
    2MOL   H140  542   2.653   4.085   1.498  0.8003 -0.2717  0.3352
    2MOL   H141  543   2.781   4.194   1.443 -0.6353 -1.6302  1.8229
    2MOL   C142  544   2.753   4.015   1.328  0.3340 -0.6563  0.2366
    2MOL   C143  545   2.815   4.085   1.199 -0.4669 -0.5693  0.0503
    2MOL   C144  546   2.942   4.147   1.209  0.1176 -0.0601 -0.4092
    2MOL   C145  547   2.996   4.219   1.101  0.5545 -0.2861  0.3989
    2MOL   C146  548   2.927   4.220   0.976  0.3754 -0.0915  0.6003
    2MOL   O147  549   2.962   4.298   0.865 -0.2620  0.2535  0.5335
    2MOL   C148  550   3.081   4.376   0.873  0.7707 -0.0223  0.5710
    2MOL   C149  551   2.808   4.141   0.964  0.3880 -0.5812 -0.3987
    2MOL   C150  552   2.751   4.070   1.076  0.3055 -0.4426 -0.6128
    2MOL   C151  553   2.861   3.934   1.403 -1.4560 -0.3481 -0.0145
    2MOL   H152  554   2.661   3.962   1.307 -0.6731  1.6698 -1.4441
    2MOL   H153  555   2.981   4.159   1.309  0.2286  0.6126 -0.5300
    2MOL   H154  556   3.086   4.278   1.110  0.1426  0.8231 -2.1461
    2MOL   H155  557   3.121   4.393   0.773 -1.2634 -0.3398 -0.3237
    2MOL   H156  558   3.069   4.467   0.932 -1.9102 -1.3279  2.1548
    2MOL   H157  559   3.167   4.322   0.913  1.7106  1.4171  0.5064
    2MOL   H158  560   2.742   4.144   0.879 -0.3045  1.2068  0.1661
    2MOL   H159  561   2.653   4.026   1.078  1.1728 -2.3885 -0.0149
    2MOL   H160  562   2.922   4.009   1.454  0.8403 -2.3635  0.3333
    2MOL   H161  563   2.930   3.886   1.334 -0.8577 -3.5507  2.6679
    2MOL   C162  564   2.805   3.839   1.508 -0.2030  0.0350 -0.0179
    2MOL   C163  565   2.907   3.815   1.614 -0.1186 -0.0023 -0.3283
    2MOL   C164  566   2.898   3.889   1.732 -0.0374  0.1984 -0.3418
    2MOL   C165  567   3.005   3.872   1.825  0.1407  0.7565 -0.6840
    2MOL   C166  568   3.118   3.791   1.798  0.7523  0.0798  0.3806
    2MOL   O167  569   3.223   3.784   1.885 -0.0491 -0.3378  0.1932
    2MOL   C168  570   3.353   3.729   1.853  0.1720 -1.4742  0.6866
    2MOL   C169  571   3.120   3.715   1.680  0.1731 -0.5991  0.6841
    2MOL   C170  572   3.014   3.728   1.591  0.4934 -0.4921  0.3469
    2MOL   C171  573   2.745   3.714   1.445 -0.6066  0.1776 -0.0962
    2MOL   H172  574   2.716   3.875   1.559 -1.0268  1.5609 -2.4453
    2MOL   H173  575   2.808   3.943   1.757 -1.0706 -1.4856 -0.2965
    2MOL   H174  576   3.001   3.929   1.917  0.4681 -2.5425  1.4617
    2MOL   H175  577   3.378   3.746   1.749 -1.1066 -1.9245  0.2974
    2MOL   H176  578   3.335   3.622   1.867  2.0408 -2.3473 -2.9560
    2MOL   H177  579   3.436   3.763   1.916  0.3642 -0.3513 -0.1661
    2MOL   H178  580   3.202   3.652   1.649 -0.3731 -1.8585  1.7730
    2MOL   H179  581   3.017   3.675   1.497  1.4084  0.6448 -0.2678
    2MOL   H180  582   2.816   3.673   1.374  1.0945 -1.0712  2.2424
    2MOL   H181  583   2.670   3.750   1.375  2.0605  2.0997 -2.0359
    2MOL   C182  584   2.707   3.594   1.537  0.5587  0.6928  0.0012
    2MOL   C183  585   2.700   3.466   1.453 -0.8094  0.2137  0.3220
    2MOL   C184  586   2.822   3.399   1.426  0.2718  0.3013  0.3624
    2MOL   C185  587   2.820   3.294   1.326 -0.0741 -0.5991 -0.1248
    2MOL   C186  588   2.699   3.263   1.260 -0.3295  0.0424 -0.0686
    2MOL   O187  589   2.683   3.157   1.170  0.1335 -0.0919  0.8227
    2MOL   C188  590   2.804   3.091   1.129 -0.2031  0.9357 -0.1551
    2MOL   C189  591   2.583   3.331   1.291  0.2318  0.9220 -0.5202
    2MOL   C190  592   2.581   3.432   1.386 -1.0182 -0.2096  0.4698
    2MOL   C191  593   2.567   3.618   1.613  0.4491 -0.5364  0.1578
    2MOL   H192  594   2.787   3.571   1.608  1.4784  0.9760 -0.9241
    2MOL   H193  595   2.910   3.421   1.483  0.9039  0.5242 -0.6854
    2MOL   H194  596   2.914   3.248   1.298 -0.1349  0.6393 -2.4573
    2MOL   H195  597   2.772   3.002   1.075  0.9622  1.9174 -2.5539
    2MOL   H196  598   2.859   3.049   1.213  2.1685  0.5335 -1.8470
    2MOL   H197  599   2.862   3.160   1.066  0.1244  0.0331 -0.8535
    2MOL   H198  600   2.495   3.307   1.232  1.0876 -2.4962 -0.5301
    2MOL   H199  601   2.490   3.485   1.408 -1.1644 -0.0194 -0.5788
    2MOL   H200  602   2.506   3.680   1.547  0.9868  1.4013  1.4360
    2MOL   H201  603   2.517   3.521   1.622 -0.6751  0.1328  1.2272
    2MOL   C202  604   2.571   3.670   1.759  0.2126 -0.4951 -0.4010
    2MOL   C203  605   2.634   3.570   1.861 -0.7287  0.6971 -0.1359
    2MOL   C204  606   2.585   3.439   1.880  0.5141 -0.3751 -0.7270
    2MOL   C205  607   2.650   3.352   1.971  0.3212  0.4389  0.1104
    2MOL   C206  608   2.767   3.385   2.035 -0.2757 -0.4622  0.5138
    2MOL   O207  609   2.829   3.289   2.113 -0.0617  0.0915 -0.2773
    2MOL   C208  610   2.949   3.324   2.180  0.1497  0.9674  0.3589
    2MOL   C209  611   2.826   3.514   2.005  1.0844 -0.2819 -0.2940
    2MOL   C210  612   2.756   3.605   1.921  0.1242 -0.0962 -0.2950
    2MOL   C211  613   2.429   3.698   1.809 -0.2511 -0.1437 -0.0747
    2MOL   H212  614   2.633   3.759   1.756 -1.4042  0.6547 -0.2660
    2MOL   H213  615   2.497   3.392   1.839  1.7249 -3.4003 -0.0006
    2MOL   H214  616   2.607   3.256   1.996 -0.4154  1.2444  2.0120
    2MOL   H215  617   3.018   3.352   2.100 -0.9381  2.6447 -0.0108
    2MOL   H216  618   2.929   3.415   2.237 -1.6369 -0.1753  1.6032
    2MOL   H217  619   2.986   3.245   2.245 -1.2564  0.6634  0.8095
    2MOL   H218  620   2.914   3.552   2.055 -1.1984  3.2214  1.1988
    2MOL   H219  621   2.804   3.701   1.907 -0.5721  0.7030  2.6224
    2MOL   H220  622   2.381   3.601   1.822  1.7053 -0.9454  1.3939
    2MOL   H221  623   2.369   3.759   1.741  2.4536  2.2356 -0.4322
    2MOL   C222  624   2.412   3.772   1.946  0.4184 -0.0047  0.3858
    2MOL   C223  625   2.498   3.899   1.952 -0.4859 -0.3284  0.1958
    2MOL   C224  626   2.474   4.014   1.874  0.2547  0.5702 -0.1301
    2MOL   C225  627   2.553   4.128   1.883  0.5598 -0.5189  0.8870
    2MOL   C226  628   2.660   4.133   1.969  0.1994 -0.6840  0.0599
    2MOL   O227  629   2.729   4.252   1.981  0.3267  0.2111  0.1588
    2MOL   C228  630   2.820   4.264   2.089 -0.0533 -0.0413  0.3694
    2MOL   C229  631   2.684   4.022   2.052  0.2456 -0.0289  0.7069
    2MOL   C230  632   2.605   3.901   2.041 -0.6182 -0.8740 -0.1326
    2MOL   C231  633   2.263   3.811   1.976 -0.4996 -0.0293  0.4020
    2MOL   H232  634   2.441   3.705   2.028  1.3719 -0.0336  0.0359
    2MOL   H233  635   2.394   4.017   1.801 -1.8177  4.3170  2.1662
    2MOL   H234  636   2.535   4.210   1.816  0.7041 -1.0558  0.1919
    2MOL   H235  637   2.892   4.183   2.084 -0.2753 -0.0593 -3.9212
    2MOL   H236  638   2.875   4.358   2.099 -1.0492  0.3365  2.9190
    2MOL   H237  639   2.764   4.249   2.182  0.9960 -1.7107  0.7526
    2MOL   H238  640   2.759   4.028   2.129  0.8028  0.5168  0.1266
    2MOL   H239  641   2.611   3.819   2.112 -0.7890 -2.6427 -2.1196
    2MOL   H240  642   2.205   3.851   1.893 -0.5562 -0.6357  0.1479
    2MOL   H241  643   2.210   3.717   1.990 -1.5621  0.4631 -0.2611
    2MOL   C242  644   2.228   3.907   2.097 -0.1753 -0.4077  0.4061
    2MOL   C243  645   2.080   3.890   2.121 -0.0627  0.4251 -0.4289
    2MOL   C244  646   1.986   3.995   2.093 -0.3362 -0.8581  0.6318
    2MOL   C245  647   1.846   3.987   2.109  0.5572  0.3290  0.3438
    2MOL   C246  648   1.792   3.861   2.153  0.2112  0.0130  0.1100
    2MOL   O247  649   1.653   3.834   2.149 -0.7320  0.4615  0.1299
    2MOL   C248  650   1.563   3.937   2.099 -0.1622  0.4540 -0.2709
    2MOL   C249  651   1.882   3.760   2.190  0.3043 -0.2701 -0.2876
    2MOL   C250  652   2.024   3.773   2.181 -0.5916 -0.1744  0.0030
    2MOL   C251  653   2.305   3.879   2.224 -0.3678 -0.3207  0.2100
    2MOL   H252  654   2.251   4.010   2.072  1.2079 -0.6684  0.5734
    2MOL   H253  655   2.025   4.084   2.045 -0.4186 -0.0471  2.0463
    2MOL   H254  656   1.789   4.071   2.071  1.5269  0.2645 -1.3440
    2MOL   H255  657   1.458   3.910   2.109  0.1109 -0.0086  1.6430
    2MOL   H256  658   1.574   4.018   2.171  0.6893  0.8663 -0.8570
    2MOL   H257  659   1.592   3.960   1.997 -0.6147  0.1547 -0.4641
    2MOL   H258  660   1.854   3.664   2.230 -1.9695  1.3112  2.0799
    2MOL   H259  661   2.082   3.689   2.215 -1.8438 -2.5631 -3.4414
    2MOL   H260  662   2.411   3.880   2.199 -0.7970  0.5374 -1.6205
    2MOL   H261  663   2.282   3.774   2.244  0.7579 -1.0750 -2.2346
    2MOL   C262  664   2.270   3.969   2.346 -0.3057  0.7930 -0.1366
    2MOL   C263  665   2.300   4.120   2.324 -0.2240 -0.2699  0.3853
    2MOL   C264  666   2.207   4.213   2.376 -0.3338  0.2795  0.0612
    2MOL   C265  667   2.218   4.349   2.337 -0.2497 -0.2252  0.1280
    2MOL   C266  668   2.325   4.395   2.254  0.4443 -0.1118  0.0267
    2MOL   O267  669   2.324   4.521   2.200 -0.4029 -0.4478  0.4224
    2MOL   C268  670   2.228   4.615   2.241  0.0456  0.4961  0.2965
    2MOL   C269  671   2.416   4.299   2.213 -0.4563 -0.2714 -0.0986
    2MOL   C270  672   2.404   4.165   2.248  0.1914  0.3639  0.0447
    2MOL   C271  673   2.333   3.926   2.482 -0.4526  0.2839 -0.2843
    2MOL   H272  674   2.163   3.958   2.362 -0.0270 -1.1352  0.5440
    2MOL   H273  675   2.131   4.175   2.443 -1.0341 -1.0010 -1.4405
    2MOL   H274  676   2.136   4.406   2.377 -0.4389 -1.1110  1.0230
    2MOL   H275  677   2.127   4.578   2.224  0.6034 -0.3346 -1.3611
    2MOL   H276  678   2.222   4.712   2.192  1.1296  0.8490  0.8594
    2MOL   H277  679   2.234   4.638   2.347  0.7992 -0.2466  0.4190
    2MOL   H278  680   2.479   4.334   2.133 -2.1195  1.9065 -0.5036
    2MOL   H279  681   2.476   4.099   2.203  0.4899  0.1387  0.8565
    2MOL   H280  682   2.440   3.921   2.462 -0.1696  1.9633  0.6692
    2MOL   H281  683   2.328   4.001   2.561 -0.2132  0.5310 -0.5002
    2MOL   C282  684   2.300   3.790   2.538 -0.4333 -0.5329  0.1273
    2MOL   C283  685   2.152   3.752   2.523 -0.2510 -0.7101  0.7840
    2MOL   C284  686   2.107   3.629   2.472  0.2021  0.5469 -0.1810
    2MOL   C285  687   1.975   3.591   2.486 -0.5749 -0.0796 -0.0117
    2MOL   C286  688   1.881   3.682   2.531 -0.0218 -0.2892 -0.5717
    2MOL   O287  689   1.748   3.643   2.534 -0.2910  0.5504  0.5590
    2MOL   C288  690   1.650   3.748   2.539 -0.0850  0.6551 -0.7332
    2MOL   C289  691   1.924   3.811   2.575 -0.0825 -1.0695 -0.1242
    2MOL   C290  692   2.057   3.847   2.574 -0.9808  0.0875  0.4584
    2MOL   C291  693   2.339   3.769   2.684 -0.0607  0.3140  0.0211
    2MOL   H292  694   2.345   3.716   2.471 -1.7887 -1.5067  0.2869
    2MOL   H293  695   2.181   3.560   2.436 -0.3361 -1.6522  2.7964
    2MOL   H294  696   1.946   3.492   2.453 -1.6448  0.6496 -1.3244
    2MOL   H295  697   1.672   3.818   2.457 -2.5399  1.6845 -0.5432
    2MOL   H296  698   1.548   3.714   2.524  0.2960 -1.8045  1.8486
    2MOL   H297  699   1.651   3.811   2.627  1.8840 -1.1347  0.5763
    2MOL   H298  700   1.853   3.877   2.623  2.3949  0.7544  1.1641
    2MOL   H299  701   2.087   3.945   2.606  0.4605 -0.1614 -0.1300
    2MOL   H300  702   2.298   3.858   2.732  1.0503  1.2864 -0.7989
    2MOL   H301  703   2.278   3.690   2.727 -1.1609  0.2033 -1.6938
    2MOL   C302  704   2.495   3.754   2.715 -0.2380 -0.3879  0.1028
    2MOL   C303  705   2.511   3.758   2.869  0.1405  0.5524  0.5851
    2MOL   C304  706   2.557   3.876   2.928 -0.1699  0.0426 -0.0054
    2MOL   C305  707   2.590   3.884   3.060  0.2783 -0.0971 -0.1195
    2MOL   C306  708   2.566   3.774   3.143  0.3127  0.2056 -0.2452
    2MOL   O307  709   2.594   3.777   3.279  0.1018  0.3395  0.0523
    2MOL   C308  710   2.557   3.899   3.338 -0.0971 -0.0835 -0.2250
    2MOL   C309  711   2.501   3.657   3.093 -0.4217 -0.5500 -0.1502
    2MOL   C310  712   2.474   3.653   2.955 -0.0058  0.1464 -0.1297
    2MOL   C311  713   2.559   3.620   2.656 -0.1170 -0.4024 -0.2715
    2MOL   H312  714   2.548   3.843   2.682 -2.6452  0.7226 -0.8484
    2MOL   H313  715   2.579   3.954   2.857  0.5980 -1.9021 -1.9587
    2MOL   H314  716   2.631   3.980   3.087 -1.6450  0.8818 -0.6369
    2MOL   H315  717   2.582   3.900   3.444 -1.5352  1.8285  0.1353
    2MOL   H316  718   2.449   3.898   3.354  0.2566 -0.6167  2.4348
    2MOL   H317  719   2.586   3.996   3.297 -0.2898  0.0701 -0.0020
    2MOL   H318  720   2.468   3.578   3.158 -3.0227  2.2571  2.0561
    2MOL   H319  721   2.442   3.559   2.913 -0.2392  0.7136 -1.2312
    2MOL   H320  722   2.482   3.543   2.662 -1.3456  0.7634 -0.6200
    2MOL   H321  723   2.622   3.574   2.731 -0.7720  0.4129  0.8001
    2MOL   C322  724   2.620   3.643   2.516  0.3648  0.6827 -0.2827
    2MOL   C323  725   2.559   3.543   2.419  0.4308  0.9462 -0.0586
    2MOL   C324  726   2.557   3.407   2.440 -0.3995 -0.4088  0.7350
    2MOL   C325  727   2.490   3.316   2.359  0.4435  0.5349  0.3075
    2MOL   C326  728   2.436   3.366   2.234 -0.3778 -0.2232 -0.0271
    2MOL   O327  729   2.361   3.292   2.150 -0.1311  0.0828 -0.9989
    2MOL   C328  730   2.376   3.153   2.141 -0.1168  0.5274  0.3124
    2MOL   C329  731   2.460   3.499   2.204 -0.2067 -0.7679 -0.5665
    2MOL   C330  732   2.512   3.591   2.294  0.3900  0.4064  0.3556
    2MOL   C331  733   2.778   3.628   2.514  0.8405 -0.4838  0.6909
    2MOL   H332  734   2.592   3.739   2.471  1.1618  0.0107 -2.2801
    2MOL   H333  735   2.609   3.375   2.530 -0.3488 -0.2778  0.7518
    2MOL   H334  736   2.473   3.215   2.394  0.9659  0.2490 -0.2458
    2MOL   H335  737   2.306   3.115   2.216  2.7436  1.5277  3.6219
    2MOL   H336  738   2.469   3.102   2.162  0.6578  1.6349 -0.3748
    2MOL   H337  739   2.338   3.120   2.044 -0.8384 -0.0090  0.7736
    2MOL   H338  740   2.440   3.525   2.101 -0.1806  1.4372 -0.0218
    2MOL   H339  741   2.516   3.697   2.274 -2.2550  0.8524  1.9862
    2MOL   H340  742   2.808   3.533   2.559  1.6452  0.3738  2.0148
    2MOL   H341  743   2.812   3.617   2.411  0.8041 -1.9717  0.8289
    2MOL   C342  744   2.855   3.741   2.605  0.3158  0.1681 -0.4359
    2MOL   C343  745   2.808   3.880   2.582 -0.4252  0.9033  0.0126
    2MOL   C344  746   2.790   3.980   2.679 -0.3783  0.1467  0.0215
    2MOL   C345  747   2.722   4.100   2.648 -0.6207  0.0572 -0.1161
    2MOL   C346  748   2.689   4.138   2.511 -0.0059 -0.5483  0.1834
    2MOL   O347  749   2.612   4.247   2.475  0.1010  0.1698 -0.3814
    2MOL   C348  750   2.518   4.283   2.578  0.2406  0.2600 -0.0473
    2MOL   C349  751   2.709   4.039   2.417 -0.9904 -0.8046 -0.2010
    2MOL   C350  752   2.777   3.916   2.445 -0.8999 -0.7042  0.3642
    2MOL   C351  753   3.005   3.726   2.597 -0.0585  0.4905 -0.1534
    2MOL   H352  754   2.831   3.714   2.708  0.9396 -2.2354 -0.8820
    2MOL   H353  755   2.813   3.960   2.783  1.1979 -0.8461 -0.5008
    2MOL   H354  756   2.707   4.168   2.730  3.0308  0.4847  0.2890
    2MOL   H355  757   2.565   4.315   2.671 -0.4734  2.3551 -0.3905
    2MOL   H356  758   2.464   4.372   2.546 -0.9983  0.0047  1.2598
    2MOL   H357  759   2.445   4.202   2.584 -2.7533  2.9303  0.8194
    2MOL   H358  760   2.682   4.070   2.317  1.6207  0.3504 -0.5918
    2MOL   H359  761   2.801   3.846   2.367  2.2281 -2.5531  2.8637
    2MOL   H360  762   3.010   3.654   2.515 -0.1135  0.6475 -0.2965
    2MOL   H361  763   3.049   3.820   2.563 -1.1114 -0.1026 -3.2840
    2MOL   C362  764   3.086   3.692   2.728  0.3353 -0.1024  0.3359
    2MOL   C363  765   3.067   3.804   2.834  0.4411  0.4877 -0.3936
    2MOL   C364  766   3.004   3.778   2.960  0.3982 -0.2717  0.4409
    2MOL   C365  767   2.994   3.879   3.060 -0.3748  0.0854  0.1608
    2MOL   C366  768   3.024   4.012   3.030 -0.2361 -0.5831  0.2922
    2MOL   O367  769   3.019   4.113   3.126 -0.1352 -0.4555  0.0890
    2MOL   C368  770   2.980   4.080   3.257  0.1523 -0.4064  0.4307
    2MOL   C369  771   3.085   4.033   2.903 -0.2145  0.6779  1.2253
    2MOL   C370  772   3.101   3.933   2.806 -0.2972 -0.3585  0.4754
    2MOL   C371  773   3.226   3.657   2.696 -0.5169  0.4242  0.1172
    2MOL   H372  774   3.049   3.603   2.779  0.0953 -1.0074 -1.4070
    2MOL   H373  775   2.965   3.681   2.988 -0.7647  0.0955  0.1330
    2MOL   H374  776   2.961   3.850   3.158  0.2279 -0.9447  0.0670
    2MOL   H375  777   2.984   4.174   3.312 -0.0398  2.2740 -3.8541
    2MOL   H376  778   2.874   4.055   3.256 -0.1910  0.9686  0.9881
    2MOL   H377  779   3.043   4.008   3.308 -1.6159 -2.1060  0.2816
    2MOL   H378  780   3.125   4.130   2.877  0.6260 -0.5311 -2.2923
    2MOL   H379  781   3.149   3.946   2.710 -2.8714  1.9973 -0.5560
    2MOL   H380  782   3.236   3.564   2.640  0.4320  1.2641 -1.1695
    2MOL   H381  783   3.265   3.736   2.631 -0.1378  1.6541  1.8016
    2MOL   C382  784   3.327   3.646   2.818 -0.2180 -0.0546 -0.2240
    2MOL   C383  785   3.469   3.628   2.767  0.1176  0.7023  0.3709
    2MOL   C384  786   3.570   3.727   2.778 -0.0143 -0.3977  0.2636
    2MOL   C385  787   3.704   3.694   2.740  0.0542  0.3574 -0.0921
    2MOL   C386  788   3.734   3.574   2.678 -0.4614  0.1955  0.3637
    2MOL   O387  789   3.863   3.538   2.643 -0.4327  0.5486 -0.6877
    2MOL   C388  790   3.976   3.589   2.711  0.0909 -0.4286  0.7495
    2MOL   C389  791   3.631   3.480   2.659  0.6355 -0.4425 -0.9809
    2MOL   C390  792   3.498   3.506   2.703  0.1134 -0.2894 -0.0118
    2MOL   C391  793   3.288   3.551   2.930 -0.1259  0.0850 -0.0541
    2MOL   H392  794   3.335   3.743   2.869  2.8347 -0.6077  0.4368
    2MOL   H393  795   3.560   3.822   2.827  1.2837  0.9906 -2.1020
    2MOL   H394  796   3.783   3.762   2.769 -0.1970  0.5151  0.2249
    2MOL   H395  797   3.993   3.695   2.688 -1.0745 -0.8171 -2.0626
    2MOL   H396  798   4.058   3.537   2.662 -1.9933 -0.0103 -3.3908
    2MOL   H397  799   3.971   3.577   2.820 -1.4527  0.1058  0.7517
    2MOL   H398  800   3.648   3.388   2.606  0.1905  0.1105 -2.0978
    2MOL   H399  801   3.418   3.435   2.687  1.5504 -1.5059 -2.0068
    2MOL   H400  802   3.267   3.453   2.889 -0.0115  0.4152 -0.9200
    2MOL   H401  803   3.196   3.596   2.969 -0.4511 -2.2128  1.9660
    2MOL   H402  804   3.365   3.540   3.006 -0.7011  0.6806  0.6308
    3MOL     C1  805   1.491   0.821   1.844  0.6836  0.8558  0.7583
    3MOL     C2  806   1.575   0.945   1.819 -0.1193  0.4814 -0.1308
    3MOL     C3  807   1.570   1.044   1.914  0.8268 -0.1725 -0.2934
    3MOL     C4  808   1.652   1.156   1.906 -0.0747 -0.3102 -0.7078
    3MOL     C5  809   1.723   1.178   1.785 -0.3595 -0.2727  1.1496
    3MOL     O6  810   1.803   1.282   1.764  1.1279 -0.1500 -0.1292
    3MOL     C7  811   1.784   1.391   1.846  0.0590  0.0854 -0.7278
    3MOL     C8  812   1.715   1.083   1.682  0.7214  0.7554  0.2881
    3MOL     C9  813   1.651   0.959   1.695  1.1114  0.9301 -0.1075
    3MOL    C10  814   1.342   0.837   1.811  0.3538 -0.4071  0.0097
    3MOL    H11  815   1.522   0.769   1.934  0.8536  0.1021  0.2674
    3MOL    H12  816   1.506   1.035   2.001 -1.7067 -1.4301 -2.2064
    3MOL    H13  817   1.654   1.219   1.994 -1.5390 -0.6661 -0.3987
    3MOL    H14  818   1.680   1.420   1.865 -0.0267 -1.3851  1.1520
    3MOL    H15  819   1.835   1.375   1.940  0.0609  0.4101 -0.6730
    3MOL    H16  820   1.842   1.464   1.790 -0.1226  0.3591 -0.5583
    3MOL    H17  821   1.783   1.098   1.600  0.8350  0.0574  0.2486
    3MOL    H18  822   1.643   0.878   1.623 -1.3522  1.1475 -0.1265
    3MOL    H19  823   1.334   0.881   1.712 -0.9348  0.6779  0.5912
    3MOL    H20  824   1.305   0.738   1.784 -2.5368  0.5183  0.4073
    3MOL    H21  825   1.530   0.754   1.768  0.2577  0.2778  1.0528
    3MOL    C22  826   1.247   0.885   1.916  0.3565  0.6114 -0.0220
    3MOL    C23  827   1.115   0.925   1.843 -0.9227 -0.1500  0.5969
    3MOL    C24  828   1.110   1.061   1.796  0.5245 -0.2443  0.2095
    3MOL    C25  829   1.013   1.095   1.702 -0.0230 -0.0470  0.4268
    3MOL    C26  830   0.916   1.001   1.660  0.0560 -0.1969 -0.1549
    3MOL    O27  831   0.829   1.026   1.556  0.1571  0.4545 -0.0159
    3MOL    C28  832   0.852   1.149   1.488  1.1833 -0.3695 -0.0608
    3MOL    C29  833   0.915   0.872   1.717 -0.4822  0.4601  0.0503
    3MOL    C30  834   1.016   0.830   1.804  0.0069  0.8369 -0.2028
    3MOL    C31  835   1.229   0.788   2.031  0.2347  0.1000  0.5606
    3MOL    H32  836   1.282   0.978   1.961 -1.4145  0.4931  1.6390
    3MOL    H33  837   1.185   1.133   1.827  1.0517 -0.3452 -0.8075
    3MOL    H34  838   1.015   1.198   1.670  2.1879 -0.8306 -2.2102
    3MOL    H35  839   0.955   1.151   1.454  1.5422  2.3904  1.0283
    3MOL    H36  840   0.841   1.228   1.563 -2.8486 -0.7416 -0.1708
    3MOL    H37  841   0.779   1.160   1.408 -0.4564 -3.3170  0.9554
    3MOL    H38  842   0.832   0.805   1.697 -1.1746  1.6311 -1.0444
    3MOL    H39  843   1.033   0.726   1.831  1.2831  0.2486 -3.0998
    3MOL    H40  844   1.187   0.695   1.994  0.2884 -0.4932  1.9718
    3MOL    H41  845   1.331   0.768   2.063  0.7826  1.5879 -0.2105
    3MOL    C42  846   1.153   0.856   2.146 -0.4301  0.4172  0.6420
    3MOL    C43  847   1.206   0.996   2.186 -0.1387  0.1359 -0.1151
    3MOL    C44  848   1.126   1.114   2.176 -0.6865 -0.1562 -0.3418
    3MOL    C45  849   1.181   1.241   2.207 -0.3542 -0.5444 -1.4127
    3MOL    C46  850   1.314   1.254   2.238 -0.3877  0.1891  0.3900
    3MOL    O47  851   1.368   1.374   2.257  0.3621  0.0975  0.3004
    3MOL    C48  852   1.285   1.493   2.272 -0.9271  0.1694 -0.4597
    3MOL    C49  853   1.397   1.141   2.236  0.2480 -0.0413 -0.3351
    3MOL    C50  854   1.342   1.010   2.220 -0.9212 -0.3319 -0.0692
    3MOL    C51  855   1.153   0.768   2.272  0.9635 -0.1705  0.3356
    3MOL    H52  856   1.052   0.878   2.109  0.0094  1.9239  0.2959
    3MOL    H53  857   1.020   1.106   2.155 -0.9413 -0.8553  1.1420
    3MOL    H54  858   1.113   1.324   2.203 -1.5846 -1.3580  1.5035
    3MOL    H55  859   1.200   1.478   2.339  0.9875 -0.4708  1.8867
    3MOL    H56  860   1.344   1.580   2.303 -0.1477 -0.6658  0.4114
    3MOL    H57  861   1.243   1.520   2.175 -0.5248 -0.7963 -0.9031
    3MOL    H58  862   1.503   1.152   2.256  0.2580 -1.5963  0.5809
    3MOL    H59  863   1.406   0.923   2.213 -0.7931 -0.1700 -0.9968
    3MOL    H60  864   1.101   0.819   2.353  0.6312  0.1681 -0.0958
    3MOL    H61  865   1.258   0.753   2.301  0.7254 -2.8580 -0.1324
    3MOL    C62  866   1.084   0.627   2.266  0.3536 -0.5354  0.3284
    3MOL    C63  867   0.935   0.623   2.252  0.0687  0.3505  0.7664
    3MOL    C64  868   0.883   0.612   2.126 -0.0868  0.4938  0.5727
    3MOL    C65  869   0.745   0.593   2.097 -0.4528  0.3607 -0.7124
    3MOL    C66  870   0.652   0.576   2.204 -0.4439  0.0418  0.3833
    3MOL    O67  871   0.520   0.552   2.189 -0.1444  0.4903  0.4310
    3MOL    C68  872   0.484   0.511   2.060  0.0561 -0.0111  0.4324
    3MOL    C69  873   0.706   0.598   2.332  0.2001  0.4310 -0.1847
    3MOL    C70  874   0.845   0.606   2.358 -0.1866  0.0049 -0.5558
    3MOL    C71  875   1.133   0.529   2.372 -0.6084  0.1677  0.1164
    3MOL    H72  876   1.135   0.574   2.185  2.1500 -0.6030  1.4925
    3MOL    H73  877   0.941   0.617   2.036  0.1562  1.0729  0.7544
    3MOL    H74  878   0.719   0.583   1.992 -0.8320  1.2492 -0.7019
    3MOL    H75  879   0.530   0.418   2.026 -1.6491 -0.2186 -1.4488
    3MOL    H76  880   0.486   0.583   1.978 -0.7134 -1.4971 -0.9454
    3MOL    H77  881   0.383   0.468   2.057 -0.4790  1.2870 -1.0743
    3MOL    H78  882   0.640   0.573   2.413  3.2504 -1.0057  1.9785
    3MOL    H79  883   0.871   0.596   2.463 -0.2144  0.0951 -0.5404
    3MOL    H80  884   1.240   0.520   2.356 -0.8210  0.2859 -1.4469
    3MOL    H81  885   1.133   0.569   2.474 -0.3375  2.0616 -0.6009
    3MOL    C82  886   1.084   0.384   2.377 -0.0853 -0.2963 -0.0722
    3MOL    C83  887   1.094   0.316   2.243 -0.4211 -0.5215  0.0812
    3MOL    C84  888   0.986   0.248   2.179 -0.1628  0.4809  0.1189
    3MOL    C85  889   1.013   0.170   2.061 -0.0882 -0.5206 -0.5217
    3MOL    C86  890   1.145   0.160   2.013 -1.0492  0.1684 -0.0504
    3MOL    O87  891   1.175   0.076   1.913 -0.4223  0.6150 -0.3214
    3MOL    C88  892   1.314   0.037   1.886  0.1743  0.2371  0.3432
    3MOL    C89  893   1.245   0.234   2.075 -0.1743  0.0485 -0.0927
    3MOL    C90  894   1.221   0.316   2.183  0.1261 -0.5233  0.1273
    3MOL    C91  895   1.162   0.308   2.485 -1.1691  0.2640  0.2019
    3MOL    H92  896   0.979   0.378   2.405  0.3031  1.5424  1.8969
    3MOL    H93  897   0.888   0.247   2.223  0.2582  1.4357  1.1199
    3MOL    H94  898   0.939   0.113   2.008 -0.0177  1.1206 -2.4152
    3MOL    H95  899   1.380   0.122   1.869 -1.2337  1.1098 -0.8631
    3MOL    H96  900   1.314   8.007   1.802  1.6320  0.0520  0.4787
    3MOL    H97  901   1.355   8.023   1.971  1.5782  0.4402 -0.1837
    3MOL    H98  902   1.348   0.232   2.043  0.2509  0.8639  1.1681
    3MOL    H99  903   1.302   0.368   2.231 -0.1271  0.7175 -0.7659
    3MOL   H100  904   1.268   0.329   2.471 -1.7682  1.7484 -2.4410
    3MOL   H101  905   1.145   0.353   2.583 -2.5448  0.9416 -0.3331
    3MOL   C102  906   1.140   0.159   2.489  0.4717  0.0118 -0.2371
    3MOL   C103  907   1.241   0.088   2.578 -0.3489 -0.7077 -0.7815
    3MOL   C104  908   1.277   0.140   2.705 -0.3476  0.4547  0.9149
    3MOL   C105  909   1.390   0.094   2.778 -0.1147  0.3591  0.8582
    3MOL   C106  910   1.462   8.022   2.731  0.2255  0.3591  0.0379
    3MOL   O107  911   1.564   7.961   2.801 -1.5207 -0.2874  0.2411
    3MOL   C108  912   1.625   8.025   2.916 -0.0043 -0.1680  0.3879
    3MOL   C109  913   1.419   7.960   2.615 -0.5208  0.3297  0.2270
    3MOL   C110  914   1.311   8.008   2.541  0.5366  0.0775  0.1555
    3MOL   C111  915   0.996   0.122   2.542 -0.0707 -0.7105 -0.5259
    3MOL   H112  916   1.138   0.103   2.396  1.1994 -0.1907 -0.1340
    3MOL   H113  917   1.229   0.227   2.747 -0.6278 -0.5595  2.7551
    3MOL   H114  918   1.420   0.143   2.869 -0.0015 -0.5931  1.3475
    3MOL   H115  919   1.659   0.082   2.881 -0.2192 -0.3141 -0.2233
    3MOL   H116  920   1.555   0.007   2.997 -0.5612  0.7665 -0.3347
    3MOL   H117  921   1.699   7.953   2.950 -1.4276 -0.2118  3.6477
    3MOL   H118  922   1.474   7.877   2.573  0.8918  1.2146  0.2937
    3MOL   H119  923   1.288   7.964   2.445  1.3172  0.2339 -0.1046
    3MOL   H120  924   0.997   0.163   2.643 -0.6568 -1.7966 -0.0745
    3MOL   H121  925   0.924   0.177   2.480 -0.3432 -2.3630 -1.7156
    3MOL   C122  926   0.947   8.015   2.513  0.4803  0.3097 -0.8938
    3MOL   C123  927   0.908   7.990   2.371 -0.1246  0.3513  0.0464
    3MOL   C124  928   0.976   7.887   2.296  0.0016 -0.0333  0.0101
    3MOL   C125  929   0.936   7.838   2.173  0.6468 -0.6532 -0.3472
    3MOL   C126  930   0.814   7.898   2.118  0.0105 -0.1139  0.3634
    3MOL   O127  931   0.752   7.866   2.001 -0.3827 -0.3545  0.2965
    3MOL   C128  932   0.797   7.742   1.943  0.0667  0.6362 -0.1737
    3MOL   C129  933   0.749   8.001   2.190  0.0295  0.5170  0.2523
    3MOL   C130  934   0.800   0.008   2.312  0.4338  0.0675 -1.0728
    3MOL   C131  935   0.841   7.977   2.623  0.1343 -0.1762 -0.2865
    3MOL   H132  936   1.034   7.957   2.543 -0.9097  0.3916  3.8085
    3MOL   H133  937   1.065   7.837   2.330  0.0447 -1.3407 -1.9497
    3MOL   H134  938   0.991   7.761   2.121  1.6956 -0.4033  0.3820
    3MOL   H135  939   0.767   7.670   2.018  2.2536 -0.0547  0.0684
    3MOL   H136  940   0.747   7.722   1.848 -0.1522 -0.8609  0.2561
    3MOL   H137  941   0.903   7.741   1.918 -0.1297  0.8916 -1.0554
    3MOL   H138  942   0.658   8.039   2.146 -0.4029 -0.3115  0.4156
    3MOL   H139  943   0.759   0.098   2.356 -0.2295 -0.2222 -1.0902
    3MOL   H140  944   0.755   0.001   2.609  0.1103 -0.2694 -0.5717
    3MOL   H141  945   0.878   7.989   2.725  1.9059 -0.4907 -0.8712
    3MOL   C142  946   0.774   7.843   2.621  0.2345  0.5434  0.1390
    3MOL   C143  947   0.872   7.725   2.626 -0.5204  0.3344  0.5237
    3MOL   C144  948   0.966   7.714   2.723 -0.2048 -0.1693 -0.4301
    3MOL   C145  949   1.069   7.615   2.735 -0.1104 -0.2036 -0.3032
    3MOL   C146  950   1.073   7.514   2.635 -0.1018 -1.3618  0.3492
    3MOL   O147  951   1.160   7.412   2.639  0.2818 -0.2853  0.4439
    3MOL   C148  952   1.276   7.424   2.717  0.1501  0.6188 -0.2534
    3MOL   C149  953   0.985   7.528   2.525 -0.4029 -0.0988 -0.8143
    3MOL   C150  954   0.879   7.619   2.529 -0.4987  0.4969  0.8753
    3MOL   C151  955   0.673   7.822   2.738  0.0798 -0.0902  0.2201
    3MOL   H152  956   0.719   7.832   2.528  1.9499 -3.6770 -0.5156
    3MOL   H153  957   0.960   7.794   2.796  1.5323  0.0369 -0.4895
    3MOL   H154  958   1.132   7.612   2.823 -2.0546  2.2053  1.2469
    3MOL   H155  959   1.351   7.361   2.669  0.6868  1.7600 -0.9246
    3MOL   H156  960   1.314   7.526   2.721  2.7545 -0.1114 -4.1021
    3MOL   H157  961   1.252   7.382   2.815  0.9792  0.1432 -0.2537
    3MOL   H158  962   0.968   7.473   2.433 -2.0417 -1.2265  0.1361
    3MOL   H159  963   0.808   7.619   2.448 -0.9884  3.4750  1.2619
    3MOL   H160  964   0.716   7.855   2.833 -2.0459 -0.2570  1.2722
    3MOL   H161  965   0.658   7.715   2.749  1.0299 -0.2345  0.1584
    3MOL   C162  966   0.533   7.886   2.716 -0.1630  0.1366  0.4932
    3MOL   C163  967   0.478   7.959   2.834 -0.4324  0.8513 -0.1257
    3MOL   C164  968   0.455   7.883   2.951  0.5188 -0.3603  0.0109
    3MOL   C165  969   0.402   7.939   3.068  0.1990  0.2431 -0.5268
    3MOL   C166  970   0.377   0.036   3.066 -0.3843  0.0043  0.4216
    3MOL   O167  971   0.327   0.085   3.185  0.2632 -0.0696 -0.3959
    3MOL   C168  972   0.317   0.233   3.182  0.6616  0.5307 -0.0408
    3MOL   C169  973   0.404   0.116   2.950  0.2855  0.9218  0.5037
    3MOL   C170  974   0.464   0.059   2.839 -0.3275  0.0573 -0.5341
    3MOL   C171  975   0.439   7.783   2.665  0.8911 -0.3922  0.2851
    3MOL   H172  976   0.551   7.971   2.650  0.3934 -0.0639  0.3890
    3MOL   H173  977   0.485   7.780   2.948  0.1267 -0.4491 -1.1425
    3MOL   H174  978   0.373   7.867   3.142 -0.9595 -0.4257 -1.6111
    3MOL   H175  979   0.270   0.252   3.279  0.2481 -0.8021  0.0343
    3MOL   H176  980   0.242   0.243   3.104 -1.7373 -1.4169  1.9061
    3MOL   H177  981   0.408   0.286   3.154  0.3330  1.2383  0.2099
    3MOL   H178  982   0.380   0.221   2.938  4.1165  1.6553 -1.6107
    3MOL   H179  983   0.488   0.116   2.751  1.5722  0.7212  0.3645
    3MOL   H180  984   0.408   7.723   2.750  1.7999  1.7608  2.1877
    3MOL   H181  985   0.496   7.721   2.595 -1.2580  0.0506 -1.9099
    3MOL   C182  986   0.308   7.818   2.588  0.0435  0.0583  0.1522
    3MOL   C183  987   0.321   7.884   2.454 -0.0283 -0.4838  0.2337
    3MOL   C184  988   0.350   8.021   2.442  0.2702 -0.5021  0.2551
    3MOL   C185  989   0.341   0.051   2.324  0.0971  0.2651  0.1386
    3MOL   C186  990   0.314   8.021   2.199 -0.6644 -0.1974 -0.2528
    3MOL   O187  991   0.301   0.054   2.078 -0.0119 -0.3704  0.0661
    3MOL   C188  992   0.255   8.019   1.969 -0.0536  0.7989  0.0999
    3MOL   C189  993   0.299   7.878   2.211 -0.7744 -0.1818  0.2062
    3MOL   C190  994   0.301   7.809   2.335  0.0161 -0.0873 -0.9663
    3MOL   C191  995   0.209   7.884   2.681  0.4137 -0.2363 -0.4984
    3MOL   H192  996   0.259   7.722   2.576 -1.7815  1.0579 -0.5910
    3MOL   H193  997   0.357   0.039   2.533 -0.6226  1.0532 -0.6350
    3MOL   H194  998   0.358   0.157   2.318 -2.9431  0.6836 -2.8549
    3MOL   H195  999   0.164   7.969   2.000  0.5700 -1.0742 -0.9615
    3MOL   H196 1000   0.338   7.954   1.940 -1.3608 -1.5137  1.3701
    3MOL   H197 1001   0.242   0.054   1.890  1.4370 -1.4261 -2.3643
    3MOL   H198 1002   0.298   7.807   2.130 -0.3223  1.1840 -1.0237
    3MOL   H199 1003   0.275   7.704   2.345 -0.3521 -0.1056 -1.9777
    3MOL   H200 1004   0.211   7.835   2.778  0.9736 -0.4528 -0.6173
    3MOL   H201 1005   0.245   7.983   2.709  0.5900 -0.7387  1.1161
    3MOL   C202 1006   0.065   7.887   2.640 -1.3258  0.0604  1.4530
    3MOL   C203 1007   0.005   8.031   2.633  0.4897  0.1231 -0.1544
    3MOL   C204 1008   0.002   0.077   2.745  0.3847 -0.3070 -0.1767
    3MOL   C205 1009   7.982   0.205   2.738  0.2468 -0.6272  0.1151
    3MOL   C206 1010   7.927   0.249   2.615  0.5420  1.2543 -0.0067
    3MOL   O207 1011   7.860   0.366   2.612  0.4194  0.3474  0.5672
    3MOL   C208 1012   7.829   0.421   2.484 -0.0889 -0.1781 -0.0685
    3MOL   C209 1013   7.939   0.163   2.502  0.6561  0.0924 -0.5770
    3MOL   C210 1014   8.002   0.037   2.514 -0.1357 -0.0677  0.0720
    3MOL   C211 1015   8.016   7.792   2.723 -0.4015 -0.4568  0.3861
    3MOL   H212 1016   0.073   7.851   2.537  0.7917  1.4955  1.0905
    3MOL   H213 1017   0.043   0.048   2.841  0.8136  0.8160 -0.0132
    3MOL   H214 1018   7.978   0.265   2.828 -2.7410 -0.1985 -0.2577
    3MOL   H215 1019   7.927   0.434   2.436 -0.7699 -0.2420 -1.5090
    3MOL   H216 1020   7.759   0.361   2.426  2.3985 -1.6165 -1.7184
    3MOL   H217 1021   7.778   0.516   2.490  1.8259  0.7751  1.9202
    3MOL   H218 1022   7.895   0.174   2.404 -1.3560 -3.3000 -0.1159
    3MOL   H219 1023   8.004   8.020   2.422 -0.3452  2.8876 -1.8450
    3MOL   H220 1024   8.015   7.817   2.829  1.0691 -1.2373  0.5847
    3MOL   H221 1025   0.023   7.694   2.727  0.8367  0.0838 -0.6896
    3MOL   C222 1026   7.875   7.777   2.664  0.0174  1.0502 -0.3767
    3MOL   C223 1027   7.861   7.750   2.519 -0.2622  0.1551 -0.5253
    3MOL   C224 1028   7.921   7.632   2.461  0.4873  0.1636  0.0122
    3MOL   C225 1029   7.927   7.611   2.323  0.1859  0.6021  0.6821
    3MOL   C226 1030   7.870   7.717   2.238  0.6613 -0.1148  0.1770
    3MOL   O227 1031   7.897   7.710   2.105 -0.2116  0.6228  0.0644
    3MOL   C228 1032   7.893   7.823   2.018  0.3414  0.1980 -0.1461
    3MOL   C229 1033   7.806   7.830   2.295 -0.2055 -0.1024  0.8673
    3MOL   C230 1034   7.800   7.845   2.436 -0.7054  0.5348  0.3659
    3MOL   C231 1035   7.791   7.686   2.759  0.1311 -0.3722  0.6457
    3MOL   H232 1036   7.831   7.877   2.674  0.5791  1.1736  1.1127
    3MOL   H233 1037   7.984   7.568   2.522  2.1865  0.6645 -1.1854
    3MOL   H234 1038   7.963   7.520   2.277 -4.3884 -2.1111  2.2399
    3MOL   H235 1039   7.797   7.873   2.007  0.0256 -0.7522 -1.9448
    3MOL   H236 1040   7.959   7.902   2.054  1.6246  0.0815 -2.1658
    3MOL   H237 1041   7.917   7.802   1.914 -0.8488  0.2938 -0.4447
    3MOL   H238 1042   7.761   7.911   2.238 -1.8290 -0.6846  1.2955
    3MOL   H239 1043   7.743   7.927   2.477  0.3203  0.5738  1.7282
    3MOL   H240 1044   7.844   7.591   2.753 -0.2889 -0.6219  0.9308
    3MOL   H241 1045   7.784   7.729   2.859  1.2150 -0.0845  0.6041
    3MOL   C242 1046   7.648   7.660   2.718 -0.6869  0.2767 -0.6252
    3MOL   C243 1047   7.590   7.541   2.792 -0.1535 -0.2198  0.5089
    3MOL   C244 1048   7.538   7.433   2.717 -0.0893 -0.1730  0.1177
    3MOL   C245 1049   7.477   7.328   2.786  0.8325  0.3911  0.3410
    3MOL   C246 1050   7.462   7.329   2.928 -0.2714  0.2771  0.7462
    3MOL   O247 1051   7.394   7.225   2.981 -0.1698 -0.4931  0.1986
    3MOL   C248 1052   7.446   7.173   3.103  0.1279 -0.1706 -0.7621
    3MOL   C249 1053   7.516   7.436   3.005  0.3142  0.1190  0.7548
    3MOL   C250 1054   7.578   7.545   2.935 -0.2030  0.7302 -0.7592
    3MOL   C251 1055   7.558   7.783   2.729 -0.5252  0.1431 -0.5008
    3MOL   H252 1056   7.650   7.614   2.619 -2.4835 -2.5170  0.5805
    3MOL   H253 1057   7.541   7.424   2.610 -0.4881  0.6850  0.0290
    3MOL   H254 1058   7.445   7.244   2.725  1.3062 -0.5212  1.3256
    3MOL   H255 1059   7.555   7.179   3.093  0.0675 -0.2305 -1.4679
    3MOL   H256 1060   7.400   7.223   3.189  1.1852  1.2111 -0.9789
    3MOL   H257 1061   7.439   7.065   3.116  4.5082 -0.5468 -0.5247
    3MOL   H258 1062   7.517   7.434   3.113  3.1449 -1.4990  0.7371
    3MOL   H259 1063   7.614   7.629   2.992  0.0190 -0.3755  0.7701
    3MOL   H260 1064   7.607   7.868   2.681  2.2779  0.5690  2.8917
    3MOL   H261 1065   7.564   7.808   2.835  1.3845  1.0973 -0.8069
    3MOL   C262 1066   7.410   7.769   2.697 -0.4975 -0.5004  0.1517
    3MOL   C263 1067   7.386   7.738   2.548  0.3850 -0.4369 -0.4059
    3MOL   C264 1068   7.434   7.826   2.449  0.4013  0.5388 -0.3111
    3MOL   C265 1069   7.405   7.799   2.314 -0.0083  0.8636 -0.1826
    3MOL   C266 1070   7.340   7.681   2.284 -0.1439 -0.8998 -0.1055
    3MOL   O267 1071   7.321   7.655   2.147 -0.5839 -0.2342 -0.5267
    3MOL   C268 1072   7.340   7.525   2.099  0.0728 -0.8233 -0.0643
    3MOL   C269 1073   7.279   7.601   2.384  0.0945  0.0561 -0.1003
    3MOL   C270 1074   7.308   7.631   2.514 -0.8762 -0.5510 -0.0951
    3MOL   C271 1075   7.331   7.888   2.741 -0.0533  0.2323 -0.0999
    3MOL   H272 1076   7.365   7.685   2.750 -1.5387  0.2796  0.5240
    3MOL   H273 1077   7.485   7.914   2.486  0.9098 -0.5046  1.5660
    3MOL   H274 1078   7.439   7.856   2.229  3.1984 -1.4698 -0.5700
    3MOL   H275 1079   7.238   7.485   2.101 -0.6621  0.8583 -2.1292
    3MOL   H276 1080   7.406   7.476   2.170 -1.3951  0.2284  2.0608
    3MOL   H277 1081   7.377   7.518   1.996 -0.8062 -2.0229 -0.3179
    3MOL   H278 1082   7.213   7.517   2.367 -1.5505  0.4946  3.5817
    3MOL   H279 1083   7.273   7.577   2.601  2.7493  2.4854  3.4650
    3MOL   H280 1084   7.392   7.975   2.715 -0.6552  0.8567  0.5335
    3MOL   H281 1085   7.237   7.891   2.685 -0.0940 -1.5837 -0.1544
    3MOL   C282 1086   7.295   7.897   2.892  0.6007  0.3439 -0.1194
    3MOL   C283 1087   7.221   7.770   2.939 -0.1246  0.1219 -0.1309
    3MOL   C284 1088   7.093   7.727   2.878 -0.6938 -0.2578  0.0301
    3MOL   C285 1089   7.025   7.613   2.925 -0.2259 -0.9573  0.3136
    3MOL   C286 1090   7.086   7.530   3.031  1.2013  0.2163  0.2942
    3MOL   O287 1091   7.014   7.424   3.085  0.0238 -0.4478 -0.4007
    3MOL   C288 1092   7.048   7.386   3.220 -0.0696  0.3889 -0.0559
    3MOL   C289 1093   7.207   7.570   3.081  0.7064  0.0716  0.6733
    3MOL   C290 1094   7.272   7.683   3.034 -0.0740  0.1520  0.0864
    3MOL   C291 1095   7.203   8.022   2.917  0.1025 -0.6769 -0.8173
    3MOL   H292 1096   7.389   7.909   2.946  0.5619 -0.0524  0.0407
    3MOL   H293 1097   7.048   7.777   2.793 -0.9666 -0.9925 -0.2722
    3MOL   H294 1098   6.933   7.595   2.871 -0.4795  1.2191 -0.0448
    3MOL   H295 1099   6.959   7.332   3.252 -0.4489  0.1381 -1.4894
    3MOL   H296 1100   7.124   7.311   3.243 -2.0386 -0.8656  2.5764
    3MOL   H297 1101   7.053   7.480   3.276 -0.5713  0.3349  0.0789
    3MOL   H298 1102   7.252   7.523   3.167 -0.6189 -1.1416  0.7226
    3MOL   H299 1103   7.357   7.722   3.088  0.4848 -0.2161 -0.5267
    3MOL   H300 1104   7.102   7.995   2.886 -0.6245 -1.3656  2.0442
    3MOL   H301 1105   7.209   8.035   3.025  0.7486  0.1849 -0.9536
    3MOL   C302 1106   7.253   0.116   2.859  0.8496 -0.3291 -0.0240
    3MOL   C303 1107   7.165   0.230   2.905  0.4557  0.1021 -0.8156
    3MOL   C304 1108   7.118   0.318   2.808 -1.2556 -0.1682  0.0333
    3MOL   C305 1109   7.052   0.439   2.853 -0.2963 -0.2335 -0.5254
    3MOL   C306 1110   7.040   0.471   2.986  0.1604  0.0587  0.4707
    3MOL   O307 1111   6.979   0.590   3.012  0.3179 -0.5341  0.2723
    3MOL   C308 1112   6.997   0.655   3.133 -0.3705 -0.0120  0.6179
    3MOL   C309 1113   7.093   0.381   3.082 -0.1019 -0.3283  0.0627
    3MOL   C310 1114   7.159   0.261   3.045  0.3189 -0.8295 -0.3665
    3MOL   C311 1115   7.399   0.147   2.896 -0.3523  0.3699  0.1842
    3MOL   H312 1116   7.236   0.103   2.752  0.1575  1.1041 -0.1013
    3MOL   H313 1117   7.134   0.289   2.705 -1.7544 -2.3314  0.5284
    3MOL   H314 1118   7.009   0.511   2.785  1.4179 -0.6777 -2.1192
    3MOL   H315 1119   7.101   0.685   3.146 -1.3778  2.2755  3.9612
    3MOL   H316 1120   6.972   0.596   3.221 -3.1123  2.0525  1.2597
    3MOL   H317 1121   6.936   0.745   3.138  1.5071  1.5173 -2.4247
    3MOL   H318 1122   7.087   0.409   3.187 -2.3007 -0.0851 -0.1005
    3MOL   H319 1123   7.206   0.201   3.122 -0.8233 -0.4935  0.6011
    3MOL   H320 1124   7.469   0.064   2.885  1.5084  1.4367  3.3109
    3MOL   H321 1125   7.414   0.163   3.003  1.0212  4.1616 -0.5224
    3MOL   C322 1126   7.463   0.275   2.823 -0.2277  0.3805 -0.6690
    3MOL   C323 1127   7.480   0.260   2.674  0.1355  0.6074 -0.1702
    3MOL   C324 1128   7.426   0.361   2.600  0.1618  0.1118  0.0883
    3MOL   C325 1129   7.443   0.346   2.461 -0.0734 -0.4137  0.3552
    3MOL   C326 1130   7.511   0.242   2.399 -0.3658  0.2049  0.5711
    3MOL   O327 1131   7.517   0.237   2.260  0.0274  0.4141 -0.2653
    3MOL   C328 1132   7.549   0.111   2.198  0.7252 -0.0169  0.0383
    3MOL   C329 1133   7.565   0.145   2.483  0.2972  0.5686 -0.3134
    3MOL   C330 1134   7.548   0.153   2.623  0.4884 -0.2612  0.1029
    3MOL   C331 1135   7.596   0.315   2.889 -0.0085  0.7335 -0.1968
    3MOL   H332 1136   7.394   0.358   2.838 -0.6579 -0.1466  0.3180
    3MOL   H333 1137   7.371   0.446   2.635  0.8867  0.2767  0.8485
    3MOL   H334 1138   7.411   0.425   2.394  0.2977 -1.0685 -0.6004
    3MOL   H335 1139   7.481   0.033   2.232 -0.0090 -0.0657 -1.5108
    3MOL   H336 1140   7.655   0.086   2.194  0.8576  0.6571 -1.0252
    3MOL   H337 1141   7.524   0.144   2.097  0.2475  1.6735  0.6924
    3MOL   H338 1142   7.615   0.062   2.436 -1.1180 -0.1747 -0.5448
    3MOL   H339 1143   7.597   0.085   2.692  0.9284  0.8163  0.8634
    3MOL   H340 1144   7.661   0.228   2.887  0.4786  1.0600  1.2746
    3MOL   H341 1145   7.648   0.385   2.824 -0.5938  0.4636 -0.9713
    3MOL   C342 1146   7.587   0.386   3.029 -0.4301 -0.4643  0.1943
    3MOL   C343 1147   7.557   0.529   3.013  0.0917  0.0766 -0.2362
    3MOL   C344 1148   7.649   0.628   2.998  0.1592 -0.6159  0.3991
    3MOL   C345 1149   7.619   0.758   2.967  0.0990  0.6624 -1.3164
    3MOL   C346 1150   7.484   0.800   2.962  0.3101  0.0855  0.2110
    3MOL   O347 1151   7.452   0.927   2.935  0.7200 -0.6228  0.0361
    3MOL   C348 1152   7.550   1.014   2.886  0.3789  0.1362 -0.0732
    3MOL   C349 1153   7.387   0.698   2.973 -0.2066 -0.5640  0.2316
    3MOL   C350 1154   7.419   0.568   3.009 -0.1077  0.7583  0.4960
    3MOL   C351 1155   7.704   0.360   3.122  0.1974  0.1809 -0.7117
    3MOL   H352 1156   7.499   0.347   3.079 -0.8147  2.2256  1.7027
    3MOL   H353 1157   7.750   0.594   3.019 -1.0402 -3.3438  2.1837
    3MOL   H354 1158   7.694   0.833   2.990 -0.5380  1.1966 -0.9719
    3MOL   H355 1159   7.602   1.045   2.977 -0.7597  0.3959  0.5062
    3MOL   H356 1160   7.619   0.976   2.811 -1.0229 -0.0144 -1.3153
    3MOL   H357 1161   7.507   1.104   2.843 -1.3498  0.4373  2.1715
    3MOL   H358 1162   7.285   0.729   2.957  0.8085  0.6323 -4.9440
    3MOL   H359 1163   7.350   0.498   3.054 -1.3459  1.1584 -0.7824
    3MOL   H360 1164   7.793   0.383   3.064  0.6012 -1.8708 -0.9665
    3MOL   H361 1165   7.705   0.435   3.201 -1.9492  0.4228 -0.8797
    3MOL   C362 1166   7.706   0.220   3.186  0.3114 -0.8099  0.2865
    3MOL   C363 1167   7.580   0.200   3.268 -0.3743  0.3787 -0.0710
    3MOL   C364 1168   7.538   0.290   3.376  0.1406 -0.9985  0.0215
    3MOL   C365 1169   7.432   0.247   3.466 -0.0238  0.0473  0.0354
    3MOL   C366 1170   7.370   0.125   3.447 -0.6492 -0.2901  0.6488
    3MOL   O367 1171   7.281   0.088   3.545  0.2668 -0.1667  0.0425
    3MOL   C368 1172   7.239   7.992   3.565  0.0778  0.5501 -0.3332
    3MOL   C369 1173   7.409   0.043   3.337 -0.6039 -0.4864 -0.5758
    3MOL   C370 1174   7.514   0.079   3.253 -0.0938 -0.5141  0.2938
    3MOL   C371 1175   7.833   0.198   3.278 -0.4826  0.2248  0.1285
    3MOL   H372 1176   7.716   0.145   3.107 -0.0239  1.0977 -1.6066
    3MOL   H373 1177   7.586   0.385   3.399 -2.1451  0.0475  0.6523
    3MOL   H374 1178   7.399   0.318   3.541  0.2561 -0.0883  0.2883
    3MOL   H375 1179   7.321   7.923   3.582  0.1932  0.3762 -1.5848
    3MOL   H376 1180   7.165   7.989   3.645  1.1595  0.6550  0.6853
    3MOL   H377 1181   7.189   7.962   3.473 -0.9689  0.0774  0.3827
    3MOL   H378 1182   7.358   7.988   3.323 -1.7296  0.0097  0.1147
    3MOL   H379 1183   7.538   0.006   3.178 -0.4666 -1.6416  1.2540
    3MOL   H380 1184   7.900   0.277   3.244 -0.5639 -0.5320 -1.8388
    3MOL   H381 1185   7.824   0.222   3.384  0.3887 -1.1596  0.5287
    3MOL   C382 1186   7.908   0.067   3.260 -0.0895 -0.1138  0.1303
    3MOL   C383 1187   7.824   7.985   3.302 -0.4271  0.1224  0.4461
    3MOL   C384 1188   7.807   7.872   3.220 -0.0920  0.5389  1.3111
    3MOL   C385 1189   7.736   7.759   3.275 -0.5297 -0.1809  0.3226
    3MOL   C386 1190   7.676   7.762   3.405 -0.2992  0.2041 -0.3195
    3MOL   O387 1191   7.600   7.661   3.465 -0.7576 -0.3863 -0.0558
    3MOL   C388 1192   7.545   7.569   3.366  0.1443  0.0833 -0.1189
    3MOL   C389 1193   7.699   7.874   3.484  0.2444  0.9341 -0.3461
    3MOL   C390 1194   7.769   7.984   3.434  0.4287  0.2558 -0.1459
    3MOL   C391 1195   0.007   0.067   3.333  0.9079  0.3907  0.5211
    3MOL   H392 1196   7.941   0.056   3.156  0.0439 -0.8413  0.2482
    3MOL   H393 1197   7.852   7.855   3.124  0.2286 -0.5501  1.6460
    3MOL   H394 1198   7.721   7.680   3.204  2.4967 -2.2648  1.8870
    3MOL   H395 1199   7.622   7.523   3.304  1.3843 -0.4657  1.7884
    3MOL   H396 1200   7.468   7.615   3.305  1.3683  0.7236 -1.2081
    3MOL   H397 1201   7.499   7.490   3.425 -0.2612 -1.4037 -2.3639
    3MOL   H398 1202   7.659   7.890   3.584  0.9744  0.8646 -0.0411
    3MOL   H399 1203   7.787   0.035   3.490  0.7120  0.2749 -0.2678
    3MOL   H400 1204   0.068   0.151   3.299  0.1193  0.9680  0.5189
    3MOL   H401 1205   0.062   8.013   3.330 -0.4995 -0.6234  4.1589
    3MOL   H402 1206   8.032   0.080   3.440 -0.3737 -0.9640  0.5158
    4MOL     C1 1207   5.534   0.806   5.294 -0.0639  0.2652 -0.2189
    4MOL     C2 1208   5.404   0.898   5.300 -0.0384  0.9164 -0.1158
    4MOL     C3 1209   5.421   1.032   5.261 -0.5508  0.8836 -0.0170
    4MOL     C4 1210   5.310   1.121   5.276  0.0540  0.2075  0.0084
    4MOL     C5 1211   5.185   1.076   5.322  0.8734  0.1746 -0.2078
    4MOL     O6 1212   5.080   1.168   5.342 -0.2793  0.0569 -0.2502
    4MOL     C7 1213   4.973   1.132   5.425  0.3301  0.4107 -0.5845
    4MOL     C8 1214   5.172   0.944   5.367 -0.3250  0.1570 -0.0399
    4MOL     C9 1215   5.275   0.853   5.347  0.0722  0.0712  0.6635
    4MOL    C10 1216   5.636   0.832   5.409 -0.1801  0.0489 -0.2700
    4MOL    H11 1217   5.577   0.827   5.196 -2.2325  1.6891 -0.8796
    4MOL    H12 1218   5.516   1.071   5.228 -0.5973 -0.0659 -1.3206
    4MOL    H13 1219   5.326   1.225   5.255 -4.3623  0.7891 -0.9519
    4MOL    H14 1220   4.907   1.219   5.424  0.7884  0.7611 -0.3957
    4MOL    H15 1221   4.918   1.045   5.388  1.1116 -0.9699  1.4660
    4MOL    H16 1222   5.008   1.114   5.526  0.9024 -1.6355 -1.1211
    4MOL    H17 1223   5.077   0.907   5.402 -1.4938  0.7560 -2.4987
    4MOL    H18 1224   5.261   0.749   5.369 -0.5046 -0.1096 -0.5569
    4MOL    H19 1225   5.736   0.794   5.388  0.5531  0.7786  1.8336
    4MOL    H20 1226   5.655   0.939   5.406  1.8055 -0.2807  0.3632
    4MOL    H21 1227   5.486   0.708   5.290 -0.0874  0.1885  1.8525
    4MOL    C22 1228   5.591   0.786   5.547  0.2270  0.4340  0.4932
    4MOL    C23 1229   5.573   0.636   5.552  0.5807 -0.5112 -0.2581
    4MOL    C24 1230   5.469   0.585   5.634  0.5350  0.6991 -0.1098
    4MOL    C25 1231   5.442   0.447   5.642 -0.2621 -0.0172 -0.0632
    4MOL    C26 1232   5.523   0.353   5.580 -0.1611 -0.1269 -0.1527
    4MOL    O27 1233   5.490   0.224   5.571  0.0839 -0.7851  0.5906
    4MOL    C28 1234   5.439   0.161   5.685  0.1903 -0.5574  0.5396
    4MOL    C29 1235   5.632   0.399   5.503  0.1138  0.3518 -0.7433
    4MOL    C30 1236   5.661   0.536   5.492 -0.6529 -0.1039  0.2100
    4MOL    C31 1237   5.667   0.856   5.660  0.3261 -0.2313  0.5921
    4MOL    H32 1238   5.487   0.815   5.562 -0.2667 -1.0211 -0.1278
    4MOL    H33 1239   5.409   0.656   5.688 -2.2703 -2.6526  1.3702
    4MOL    H34 1240   5.362   0.428   5.713  1.3664 -0.9810  1.5469
    4MOL    H35 1241   5.422   0.057   5.657  0.8149 -0.2735 -0.9295
    4MOL    H36 1242   5.353   0.199   5.740 -2.3559 -3.4383 -1.2708
    4MOL    H37 1243   5.527   0.161   5.750  2.5683 -0.2152 -2.5520
    4MOL    H38 1244   5.690   0.326   5.447 -0.6568 -0.5547 -0.3672
    4MOL    H39 1245   5.750   0.572   5.442 -0.5896 -1.2659 -0.5452
    4MOL    H40 1246   5.640   0.793   5.744 -1.4407 -1.6853 -1.0437
    4MOL    H41 1247   5.776   0.851   5.654  0.3775  0.7295  0.5318
    4MOL    C42 1248   5.636   1.009   5.690  0.6810  0.1314 -0.2638
    4MOL    C43 1249   5.715   1.064   5.808 -0.4434  0.6969 -0.5642
    4MOL    C44 1250   5.700   1.015   5.940 -0.1369  0.0692  0.1336
    4MOL    C45 1251   5.762   1.078   6.049  0.1907 -0.7857  0.1611
    4MOL    C46 1252   5.832   1.201   6.032  0.5453  0.1473 -0.1985
    4MOL    O47 1253   5.881   1.283   6.133 -0.7513  0.7516 -0.4363
    4MOL    C48 1254   5.841   1.247   6.270  0.7118  0.4723 -0.4453
    4MOL    C49 1255   5.858   1.236   5.900 -0.1568  0.0812 -0.5793
    4MOL    C50 1256   5.797   1.173   5.792 -0.1178 -0.2823  0.5742
    4MOL    C51 1257   5.481   1.031   5.708  0.3239  0.0420 -0.1756
    4MOL    H52 1258   5.668   1.064   5.602  1.7117 -0.6646 -0.4008
    4MOL    H53 1259   5.648   0.923   5.965  1.0221 -1.1373 -1.7602
    4MOL    H54 1260   5.733   1.037   6.145  2.0640 -1.1672  0.5854
    4MOL    H55 1261   5.883   1.318   6.341  2.3706  0.5169 -1.4287
    4MOL    H56 1262   5.734   1.258   6.288  0.8299  1.0229 -0.0755
    4MOL    H57 1263   5.867   1.142   6.284 -2.2206  0.0885  2.8354
    4MOL    H58 1264   5.916   1.326   5.890  2.2008 -1.0980  1.8702
    4MOL    H59 1265   5.815   1.215   5.694 -0.8109  0.1822  0.6403
    4MOL    H60 1266   5.448   0.967   5.790 -0.3695 -1.4205 -1.5839
    4MOL    H61 1267   5.417   0.995   5.628 -0.5469  2.5643 -0.6501
    4MOL    C62 1268   5.433   1.180   5.729  0.8557 -0.4317  0.4102
    4MOL    C63 1269   5.353   1.196   5.860  0.8490  0.6023  0.2653
    4MOL    C64 1270   5.230   1.133   5.874  0.1163  0.9112  0.2418
    4MOL    C65 1271   5.148   1.149   5.986 -0.3631 -0.0922  0.8123
    4MOL    C66 1272   5.189   1.235   6.088 -0.0545  0.0645 -0.4729
    4MOL    O67 1273   5.098   1.256   6.191  0.0992  0.1241  0.1635
    4MOL    C68 1274   5.135   1.333   6.303 -0.7032 -0.0903 -0.4685
    4MOL    C69 1275   5.317   1.300   6.076 -0.5138  0.7970 -0.2480
    4MOL    C70 1276   5.400   1.281   5.962  0.1261 -0.2597 -0.0692
    4MOL    C71 1277   5.365   1.230   5.598 -0.3123 -0.2721  0.2096
    4MOL    H72 1278   5.528   1.229   5.749  1.1277 -1.3027  1.2329
    4MOL    H73 1279   5.206   1.058   5.800  2.9933  0.0580  0.0919
    4MOL    H74 1280   5.052   1.100   5.996 -0.3808 -0.9274 -2.8528
    4MOL    H75 1281   5.117   1.290   6.401  0.5267 -0.5033 -0.4223
    4MOL    H76 1282   5.095   1.434   6.312 -0.3747  0.0755 -0.8408
    4MOL    H77 1283   5.243   1.335   6.311 -0.7947 -0.0426  0.8551
    4MOL    H78 1284   5.354   1.375   6.145  0.9799 -1.0308  1.0048
    4MOL    H79 1285   5.491   1.338   5.956 -0.0153  0.1690  1.5758
    4MOL    H80 1286   5.414   1.184   5.513 -1.5118 -1.8996  0.3641
    4MOL    H81 1287   5.258   1.207   5.606 -0.6051  1.1844  0.6402
    4MOL    C82 1288   5.380   1.389   5.604  0.2054  0.3101 -0.0151
    4MOL    C83 1289   5.527   1.436   5.602 -0.0622 -0.0168 -0.1526
    4MOL    C84 1290   5.579   1.528   5.697  0.1782  0.0742  0.2099
    4MOL    C85 1291   5.715   1.566   5.699  0.0674  0.2843 -0.5272
    4MOL    C86 1292   5.801   1.525   5.596 -0.0393  0.8744  0.7693
    4MOL    O87 1293   5.937   1.559   5.607  0.1519  0.1076 -0.6809
    4MOL    C88 1294   6.025   1.521   5.499  0.0603 -0.4874 -0.2374
    4MOL    C89 1295   5.747   1.446   5.494  0.6892 -0.1068 -0.0288
    4MOL    C90 1296   5.615   1.392   5.496 -0.2272  0.0644  0.3156
    4MOL    C91 1297   5.298   1.468   5.511  0.4328 -0.1195 -0.2503
    4MOL    H92 1298   5.346   1.410   5.706 -1.4901 -1.2811 -0.2183
    4MOL    H93 1299   5.525   1.566   5.783  1.2202  1.3270  0.3382
    4MOL    H94 1300   5.749   1.634   5.776  0.7626 -1.0504  0.3570
    4MOL    H95 1301   6.126   1.561   5.497  0.9361 -2.5667  1.0789
    4MOL    H96 1302   5.978   1.554   5.406 -1.1117 -2.3664 -0.3472
    4MOL    H97 1303   6.027   1.412   5.498 -1.7101 -0.6141  3.4529
    4MOL    H98 1304   5.813   1.415   5.413 -0.9030 -3.0678 -0.2594
    4MOL    H99 1305   5.571   1.329   5.421 -0.1318  0.2805  0.0754
    4MOL   H100 1306   5.326   1.573   5.518 -1.3338  0.2634  1.4305
    4MOL   H101 1307   5.320   1.433   5.409 -0.8529  0.9096 -0.8886
    4MOL   C102 1308   5.148   1.474   5.547  1.0069  0.0145  0.4253
    4MOL   C103 1309   5.125   1.525   5.685  0.3906 -0.7852 -0.3382
    4MOL   C104 1310   5.175   1.654   5.724  0.1812 -0.5478 -0.1805
    4MOL   C105 1311   5.148   1.696   5.859 -0.0777 -0.6919 -0.2240
    4MOL   C106 1312   5.062   1.621   5.945 -0.3701  0.1362  0.8748
    4MOL   O107 1313   5.031   1.661   6.073  0.2361  0.1334  0.7094
    4MOL   C108 1314   5.014   1.794   6.100 -0.1212  0.7575 -0.9538
    4MOL   C109 1315   5.019   1.492   5.904 -0.7277  1.2081  0.1863
    4MOL   C110 1316   5.057   1.440   5.778 -0.2714  0.0566 -0.1242
    4MOL   C111 1317   5.074   1.550   5.442 -0.2011  0.8270 -0.2019
    4MOL   H112 1318   5.107   1.373   5.547 -3.5820  1.7743 -0.3614
    4MOL   H113 1319   5.236   1.710   5.655 -1.9810  1.0633 -0.8795
    4MOL   H114 1320   5.181   1.795   5.889 -1.0192 -0.2623 -0.5751
    4MOL   H115 1321   4.959   1.828   6.012 -0.3387 -0.8414 -1.4486
    4MOL   H116 1322   4.951   1.816   6.186 -1.7959  2.6882 -2.6071
    4MOL   H117 1323   5.105   1.854   6.102 -0.4485  1.2837 -1.6503
    4MOL   H118 1324   4.949   1.438   5.968  1.0666  0.0465  1.2039
    4MOL   H119 1325   5.029   1.341   5.746 -0.0356  0.4223 -1.4794
    4MOL   H120 1326   5.145   1.616   5.393 -1.8540  0.4928 -3.1844
    4MOL   H121 1327   5.042   1.486   5.360  0.3124 -1.4566  1.3168
    4MOL   C122 1328   4.942   1.633   5.479  0.8765 -0.1265  0.1504
    4MOL   C123 1329   4.820   1.553   5.526  0.1005  0.8071 -0.9258
    4MOL   C124 1330   4.754   1.467   5.433  0.0056 -0.1221  0.8240
    4MOL   C125 1331   4.627   1.416   5.470 -0.0535 -0.6477 -0.2040
    4MOL   C126 1332   4.561   1.448   5.588 -0.3737  0.1043 -0.6414
    4MOL   O127 1333   4.443   1.384   5.600 -0.0198  0.0461  0.4208
    4MOL   C128 1334   4.396   1.358   5.732  0.6386  0.1786 -0.3094
    4MOL   C129 1335   4.630   1.526   5.683 -0.0227  0.2540  0.2576
    4MOL   C130 1336   4.758   1.582   5.648  0.0748 -0.2922 -0.9211
    4MOL   C131 1337   4.903   1.722   5.359  1.1829 -0.3263 -0.2811
    4MOL   H132 1338   4.964   1.694   5.567 -0.1904  0.5922 -0.0815
    4MOL   H133 1339   4.794   1.436   5.337  0.1910 -0.6811  1.0763
    4MOL   H134 1340   4.570   1.360   5.397 -0.1934  0.3029 -0.8214
    4MOL   H135 1341   4.302   1.407   5.756  0.5895 -1.2411  2.6190
    4MOL   H136 1342   4.374   1.252   5.731 -1.2893  0.5082  2.3439
    4MOL   H137 1343   4.465   1.370   5.816 -1.8175  0.4670  1.7369
    4MOL   H138 1344   4.584   1.536   5.780  1.4397  0.1020  0.9825
    4MOL   H139 1345   4.805   1.635   5.730 -1.7882 -1.9867  1.3433
    4MOL   H140 1346   4.854   1.660   5.284 -1.0832  0.3213  0.5943
    4MOL   H141 1347   4.996   1.767   5.325  0.1072  0.3640 -2.4121
    4MOL   C142 1348   4.799   1.838   5.387  0.2524 -0.4946  0.3783
    4MOL   C143 1349   4.830   1.907   5.517 -0.0993  0.4881 -0.7142
    4MOL   C144 1350   4.740   1.924   5.623 -0.0497 -0.2867 -0.4350
    4MOL   C145 1351   4.781   1.980   5.739  0.1628 -0.2399  0.2924
    4MOL   C146 1352   4.912   2.018   5.767  0.4258 -0.2900  0.0541
    4MOL   O147 1353   4.950   2.085   5.885  0.2419  0.7141 -0.7825
    4MOL   C148 1354   4.856   2.132   5.977  0.0469 -0.1652  0.2537
    4MOL   C149 1355   5.003   2.016   5.656  0.6162  0.6547 -0.5091
    4MOL   C150 1356   4.963   1.957   5.533  0.7754 -0.0033  0.8655
    4MOL   C151 1357   4.782   1.947   5.279 -0.7860  0.2980 -0.0400
    4MOL   H152 1358   4.699   1.799   5.406 -0.1351  0.1766 -0.2628
    4MOL   H153 1359   4.641   1.881   5.631  0.5026 -1.5936 -0.6524
    4MOL   H154 1360   4.703   1.981   5.813 -0.6876  1.4442 -0.6203
    4MOL   H155 1361   4.818   2.226   5.936  1.1920 -0.1616 -0.8272
    4MOL   H156 1362   4.776   2.059   5.989  2.4356 -2.5704  2.0115
    4MOL   H157 1363   4.904   2.149   6.073  1.0612  1.4526 -0.5178
    4MOL   H158 1364   5.101   2.058   5.670  0.3467  0.5735  1.9221
    4MOL   H159 1365   5.032   1.948   5.451 -2.4412  2.1663 -2.2095
    4MOL   H160 1366   4.875   1.998   5.256  0.4042 -2.0105 -0.4874
    4MOL   H161 1367   4.710   2.023   5.313 -0.0546  0.7645  0.4797
    4MOL   C162 1368   4.729   1.913   5.141 -0.0714  0.1088  0.4572
    4MOL   C163 1369   4.587   1.858   5.156 -0.5559  0.6908 -0.0506
    4MOL   C164 1370   4.558   1.722   5.152 -0.5638 -0.4232 -0.2739
    4MOL   C165 1371   4.428   1.667   5.158 -0.1731 -0.1224  0.5257
    4MOL   C166 1372   4.318   1.750   5.172  0.5808 -0.6773 -0.2826
    4MOL   O167 1373   4.196   1.697   5.179  0.3335  0.0520  0.1448
    4MOL   C168 1374   4.086   1.779   5.212 -0.8913  0.2119 -0.1444
    4MOL   C169 1375   4.342   1.891   5.181  0.2691 -0.1454 -0.1076
    4MOL   C170 1376   4.473   1.941   5.174  0.0416 -0.5972  0.4899
    4MOL   C171 1377   4.822   1.839   5.043  0.5154 -0.2927 -0.0838
    4MOL   H172 1378   4.717   2.016   5.106 -0.6775 -0.1124  0.0192
    4MOL   H173 1379   4.637   1.650   5.139 -0.8187 -0.6596 -0.5187
    4MOL   H174 1380   4.406   1.561   5.149 -0.7689  0.0097  0.3778
    4MOL   H175 1381   4.064   1.861   5.144 -4.0845 -0.1254  0.4034
    4MOL   H176 1382   4.101   1.821   5.312  0.5271  2.0498 -1.0984
    4MOL   H177 1383   3.995   1.719   5.218 -1.5134  1.2598  1.1090
    4MOL   H178 1384   4.260   1.959   5.203 -0.4336 -0.2489 -2.2799
    4MOL   H179 1385   4.497   2.044   5.194 -1.2771 -0.0730 -0.5901
    4MOL   H180 1386   4.752   1.824   4.961  0.5407 -3.3313  0.4091
    4MOL   H181 1387   4.843   1.738   5.078  0.1849 -0.7472 -1.1488
    4MOL   C182 1388   4.943   1.918   4.999  0.7269 -0.7104 -0.0074
    4MOL   C183 1389   4.922   2.068   4.984  0.0605 -0.2242  0.5844
    4MOL   C184 1390   4.820   2.122   4.896 -0.0531  0.0635  0.3450
    4MOL   C185 1391   4.827   2.256   4.859  0.2014  0.1312 -0.0882
    4MOL   C186 1392   4.926   2.338   4.908 -0.4267 -0.0321 -0.5848
    4MOL   O187 1393   4.936   2.469   4.860  0.7801  0.4830  0.1154
    4MOL   C188 1394   5.027   2.564   4.920 -0.0301 -1.0623 -0.9778
    4MOL   C189 1395   5.018   2.293   5.009 -1.0215 -0.0948 -0.2169
    4MOL   C190 1396   5.012   2.157   5.049  0.2631 -0.7617  0.4558
    4MOL   C191 1397   5.001   1.853   4.871  0.7506 -0.3737 -1.1163
    4MOL   H192 1398   5.018   1.920   5.079  0.3142 -2.2330  0.4289
    4MOL   H193 1399   4.748   2.059   4.845  1.9124 -1.0631 -1.1063
    4MOL   H194 1400   4.752   2.301   4.796  1.5233  2.3776 -0.1249
    4MOL   H195 1401   5.000   2.582   5.024 -0.4756  4.0609 -1.8359
    4MOL   H196 1402   5.014   2.657   4.864 -1.2298 -0.4361  0.3239
    4MOL   H197 1403   5.128   2.525   4.911 -0.1852 -1.8579  0.6837
    4MOL   H198 1404   5.098   2.351   5.053 -0.4541 -1.9797  1.2918
    4MOL   H199 1405   5.071   2.120   5.132  0.8754  0.7697  0.7227
    4MOL   H200 1406   5.028   1.752   4.899 -0.0074  0.0742  1.3760
    4MOL   H201 1407   4.919   1.849   4.798 -0.5960  1.7281  0.2258
    4MOL   C202 1408   5.124   1.931   4.812 -0.3891  0.0014  0.5998
    4MOL   C203 1409   5.134   1.913   4.661 -0.4204 -0.5740  0.4131
    4MOL   C204 1410   5.187   1.796   4.615  0.0319  0.0655  0.4498
    4MOL   C205 1411   5.222   1.788   4.475 -0.3532 -0.0735 -0.4538
    4MOL   C206 1412   5.166   1.884   4.386  0.6537  0.0877 -0.5292
    4MOL   O207 1413   5.195   1.882   4.250 -0.0045  0.2041  0.5245
    4MOL   C208 1414   5.286   1.796   4.187 -0.3410 -0.3926 -0.4864
    4MOL   C209 1415   5.100   1.999   4.438  0.0527  0.2827  0.3487
    4MOL   C210 1416   5.084   2.011   4.576 -0.0020  0.0764  0.6243
    4MOL   C211 1417   5.248   1.889   4.886 -0.6044  0.1725  0.2585
    4MOL   H212 1418   5.110   2.039   4.824  0.9962  0.1770  0.7660
    4MOL   H213 1419   5.214   1.720   4.687 -1.4113 -0.7812  0.1106
    4MOL   H214 1420   5.276   1.700   4.442 -0.8781 -0.9045  0.8792
    4MOL   H215 1421   5.246   1.696   4.203  0.2784 -0.7718 -1.2383
    4MOL   H216 1422   5.300   1.815   4.080 -1.8417  0.9216 -0.4548
    4MOL   H217 1423   5.380   1.811   4.239  0.7529 -3.2002 -1.5544
    4MOL   H218 1424   5.061   2.079   4.376  1.2115  0.9816  0.5101
    4MOL   H219 1425   5.045   2.101   4.622  1.2081 -0.0765  1.9962
    4MOL   H220 1426   5.261   1.781   4.884  0.3227  0.2833 -0.0994
    4MOL   H221 1427   5.229   1.909   4.992 -1.0221  1.3758 -0.0391
    4MOL   C222 1428   5.379   1.955   4.848 -0.6666 -0.0098  0.0141
    4MOL   C223 1429   5.388   2.113   4.846  0.2864 -0.5001  0.1246
    4MOL   C224 1430   5.348   2.181   4.734  0.2581 -0.9951  0.7383
    4MOL   C225 1431   5.349   2.321   4.733  0.1632  0.1011  0.0884
    4MOL   C226 1432   5.386   2.395   4.850  0.4671 -0.0212 -0.5217
    4MOL   O227 1433   5.369   2.533   4.844  0.0230  0.9184 -0.0619
    4MOL   C228 1434   5.410   2.609   4.729  1.0159  0.1028 -0.0181
    4MOL   C229 1435   5.430   2.327   4.966 -0.5877  0.9051  0.2772
    4MOL   C230 1436   5.437   2.181   4.964  0.3218  0.0245 -0.2143
    4MOL   C231 1437   5.507   1.885   4.910  0.4592 -0.9070 -0.0068
    4MOL   H232 1438   5.373   1.922   4.744 -0.5891  0.6336 -0.1939
    4MOL   H233 1439   5.315   2.132   4.644  1.7876 -2.1774  0.7972
    4MOL   H234 1440   5.310   2.376   4.648 -0.5007  1.2728  1.1457
    4MOL   H235 1441   5.336   2.616   4.650  2.1154  1.0887 -0.9680
    4MOL   H236 1442   5.443   2.705   4.769  1.2513 -0.0753  0.2153
    4MOL   H237 1443   5.495   2.557   4.686  0.4641 -1.1866  0.4310
    4MOL   H238 1444   5.456   2.377   5.058  1.0585  1.1463 -0.3084
    4MOL   H239 1445   5.471   2.129   5.053  1.4475  0.3606 -0.4390
    4MOL   H240 1446   5.509   1.906   5.017  0.7531 -0.6999 -0.0542
    4MOL   H241 1447   5.496   1.777   4.897  0.4010 -1.0741  1.3866
    4MOL   C242 1448   5.648   1.929   4.852  0.0283  0.0731  0.7457
    4MOL   C243 1449   5.754   1.867   4.941 -0.1170  0.3111 -0.0946
    4MOL   C244 1450   5.744   1.733   4.989  0.4046 -0.7886  0.1221
    4MOL   C245 1451   5.843   1.682   5.074 -0.0654  0.0948  0.4512
    4MOL   C246 1452   5.960   1.751   5.105 -0.3524  0.2507  0.6565
    4MOL   O247 1453   6.067   1.702   5.174 -0.2589  0.2912  0.4899
    4MOL   C248 1454   6.089   1.558   5.152  0.0517  0.5560  0.5382
    4MOL   C249 1455   5.972   1.877   5.054  0.1895 -0.0885 -0.2170
    4MOL   C250 1456   5.869   1.941   4.976 -0.6627  0.0644  0.4359
    4MOL   C251 1457   5.663   1.893   4.706 -0.1166  0.7012  0.0046
    4MOL   H252 1458   5.665   2.037   4.860  0.6239  0.2495 -2.3019
    4MOL   H253 1459   5.661   1.669   4.964  0.7041 -0.9053 -0.5764
    4MOL   H254 1460   5.832   1.581   5.112 -0.2967  0.9206  2.6789
    4MOL   H255 1461   6.021   1.499   5.213 -1.2227  2.3473  0.8813
    4MOL   H256 1462   6.075   1.522   5.050 -0.4832  3.8052 -0.6192
    4MOL   H257 1463   6.188   1.530   5.189 -0.0512  2.3145  2.1960
    4MOL   H258 1464   6.053   1.936   5.093 -1.6262  0.7075  2.5101
    4MOL   H259 1465   5.877   2.043   4.943 -0.3565 -0.6257 -1.6475
    4MOL   H260 1466   5.579   1.941   4.656  1.6437  2.4286 -1.3780
    4MOL   H261 1467   5.665   1.785   4.688 -0.2041  0.8584 -0.9927
    4MOL   C262 1468   5.792   1.939   4.633  0.8416  0.2760 -0.5215
    4MOL   C263 1469   5.806   2.089   4.645 -0.0192 -0.3689  0.0267
    4MOL   C264 1470   5.938   2.143   4.658 -0.8486  0.2182  0.6058
    4MOL   C265 1471   5.958   2.286   4.671  0.0050  0.0156  0.2645
    4MOL   C266 1472   5.849   2.368   4.669  0.7617 -0.1986  0.2325
    4MOL   O267 1473   5.889   2.502   4.677  1.0119  0.1483 -0.4499
    4MOL   C268 1474   5.787   2.602   4.676 -0.1224 -0.1916 -0.1032
    4MOL   C269 1475   5.718   2.320   4.641 -0.2685  0.3041  0.0498
    4MOL   C270 1476   5.697   2.176   4.627 -0.0638  0.0780 -0.9694
    4MOL   C271 1477   5.780   1.911   4.484  0.8405  1.0802  0.0778
    4MOL   H272 1478   5.882   1.891   4.671  2.2686  1.2686 -2.5756
    4MOL   H273 1479   6.024   2.078   4.659 -0.2202  0.9885 -1.0666
    4MOL   H274 1480   6.058   2.326   4.679 -0.2107  0.7731 -0.7257
    4MOL   H275 1481   5.742   2.623   4.773  1.9241  0.0646  0.7943
    4MOL   H276 1482   5.714   2.590   4.595  0.0567  0.2130 -0.3269
    4MOL   H277 1483   5.844   2.688   4.644  0.2439 -0.5066 -0.2964
    4MOL   H278 1484   5.640   2.392   4.624 -0.2441 -0.2245 -2.5149
    4MOL   H279 1485   5.600   2.140   4.600 -1.1794  2.4123 -0.2226
    4MOL   H280 1486   5.683   1.951   4.456  0.0985 -1.3070 -0.8821
    4MOL   H281 1487   5.863   1.965   4.439  1.6753  0.1288  0.4420
    4MOL   C282 1488   5.782   1.764   4.439 -0.5231 -0.2126 -0.1988
    4MOL   C283 1489   5.918   1.692   4.459  0.1257 -0.8043  0.3770
    4MOL   C284 1490   5.934   1.594   4.560  0.5837 -0.4683  0.6353
    4MOL   C285 1491   6.061   1.533   4.587 -0.4950 -0.4335  0.1730
    4MOL   C286 1492   6.168   1.579   4.516 -0.2316  0.6110 -0.3969
    4MOL   O287 1493   6.296   1.533   4.536 -0.4789 -0.2456  0.4619
    4MOL   C288 1494   6.328   1.437   4.642  0.2208  0.2631 -0.1120
    4MOL   C289 1495   6.154   1.678   4.421  0.0963 -0.0379  1.1337
    4MOL   C290 1496   6.030   1.732   4.386  0.4170  0.8217 -0.2577
    4MOL   C291 1497   5.733   1.763   4.291  0.0734  0.7113  0.4261
    4MOL   H292 1498   5.712   1.705   4.499 -2.6649  1.6878 -0.7432
    4MOL   H293 1499   5.843   1.567   4.612  0.1704  0.5811  0.4633
    4MOL   H294 1500   6.074   1.452   4.658 -0.3971 -0.4063  0.1854
    4MOL   H295 1501   6.301   1.338   4.604 -1.7920  1.1293 -1.0067
    4MOL   H296 1502   6.434   1.428   4.664  0.4127 -2.1602 -1.7286
    4MOL   H297 1503   6.280   1.459   4.737  0.3225  0.2033 -0.0458
    4MOL   H298 1504   6.246   1.717   4.379  0.2024 -1.2838  0.2024
    4MOL   H299 1505   6.031   1.798   4.300 -0.8632 -0.5676 -1.3647
    4MOL   H300 1506   5.629   1.796   4.299 -0.9275 -2.3349  0.4439
    4MOL   H301 1507   5.783   1.834   4.226 -1.4365 -0.4195 -2.0198
    4MOL   C302 1508   5.720   1.620   4.225 -0.1458  0.0205  0.2738
    4MOL   C303 1509   5.652   1.515   4.316 -0.2986  0.0354  0.0863
    4MOL   C304 1510   5.725   1.398   4.356 -0.3540  0.2853  0.8681
    4MOL   C305 1511   5.670   1.299   4.437 -1.3134  0.0288 -0.1887
    4MOL   C306 1512   5.538   1.314   4.488  0.1147  0.2954  0.4184
    4MOL   O307 1513   5.464   1.234   4.569  0.1023 -0.4982 -0.3648
    4MOL   C308 1514   5.522   1.110   4.604  0.1532 -0.3340  0.0154
    4MOL   C309 1515   5.469   1.431   4.453 -0.8221 -0.4344 -0.6440
    4MOL   C310 1516   5.521   1.530   4.369 -0.3593 -0.4289  0.0704
    4MOL   C311 1517   5.652   1.626   4.076  0.4233 -0.0612  0.4479
    4MOL   H312 1518   5.821   1.579   4.221 -0.9419 -1.8155 -1.6914
    4MOL   H313 1519   5.826   1.388   4.320 -0.1538  0.4624  1.3826
    4MOL   H314 1520   5.731   1.213   4.459 -2.9283 -0.9105  0.7672
    4MOL   H315 1521   5.534   1.045   4.517 -1.7876 -1.1152  0.3075
    4MOL   H316 1522   5.446   1.053   4.658 -0.3361 -0.0108 -0.3421
    4MOL   H317 1523   5.613   1.119   4.664 -0.0020 -0.2168  0.2348
    4MOL   H318 1524   5.375   1.442   4.505  2.0012  0.8948  4.5096
    4MOL   H319 1525   5.467   1.619   4.341 -0.4365 -0.9415 -1.4299
    4MOL   H320 1526   5.717   1.691   4.018 -1.3486 -0.6101 -2.2830
    4MOL   H321 1527   5.553   1.672   4.081  0.0107 -1.0126  1.3130
    4MOL   C322 1528   5.649   1.498   3.986  0.3981  0.4643 -0.0305
    4MOL   C323 1529   5.653   1.538   3.842 -0.4478  0.6129  0.3072
    4MOL   C324 1530   5.540   1.600   3.781  0.2177  0.2493 -1.0383
    4MOL   C325 1531   5.530   1.621   3.644  0.1047  0.8926  0.8403
    4MOL   C326 1532   5.638   1.587   3.557  0.7542 -0.5169 -0.2148
    4MOL   O327 1533   5.638   1.607   3.418  0.0922 -0.2722 -0.5227
    4MOL   C328 1534   5.520   1.640   3.352  0.8330 -0.3730 -0.8076
    4MOL   C329 1535   5.753   1.533   3.611  0.1951  0.4716  0.0025
    4MOL   C330 1536   5.766   1.515   3.757  0.3319 -0.2202  0.3348
    4MOL   C331 1537   5.533   1.402   4.025 -0.0842  0.0784 -0.4823
    4MOL   H332 1538   5.739   1.441   4.008  0.8382  1.7881  1.6842
    4MOL   H333 1539   5.460   1.625   3.849  0.4771  2.2443 -1.4236
    4MOL   H334 1540   5.443   1.673   3.608  1.7240  2.0545 -1.5425
    4MOL   H335 1541   5.448   1.562   3.373 -0.5132  0.2778 -2.8406
    4MOL   H336 1542   5.548   1.632   3.247  0.8663  0.8234 -0.9040
    4MOL   H337 1543   5.491   1.744   3.371  0.9761 -0.8589  2.3998
    4MOL   H338 1544   5.842   1.524   3.550 -0.5248  3.8726 -1.6606
    4MOL   H339 1545   5.857   1.469   3.791 -0.2884 -1.7507 -0.0438
    4MOL   H340 1546   5.520   1.395   4.133 -1.4218 -3.6337 -0.8088
    4MOL   H341 1547   5.448   1.464   3.999 -1.3364 -0.8968  1.2196
    4MOL   C342 1548   5.530   1.270   3.948 -0.4673 -0.0593 -0.2371
    4MOL   C343 1549   5.396   1.196   3.974 -0.0601  0.2277 -0.1532
    4MOL   C344 1550   5.364   1.168   4.103  0.0991  0.1766  0.2328
    4MOL   C345 1551   5.229   1.124   4.125  0.5614 -0.0450  0.6097
    4MOL   C346 1552   5.136   1.092   4.023 -0.1163 -0.4886 -0.4301
    4MOL   O347 1553   5.018   1.036   4.063 -0.5157 -0.3456  0.0726
    4MOL   C348 1554   4.928   0.995   3.966 -0.4772 -0.1222 -0.5154
    4MOL   C349 1555   5.175   1.126   3.889 -1.0543 -0.5342 -0.5476
    4MOL   C350 1556   5.301   1.187   3.867 -0.3896 -0.5259 -0.7392
    4MOL   C351 1557   5.651   1.173   3.980 -0.3031  0.2734  1.0510
    4MOL   H352 1558   5.529   1.290   3.841  0.9369 -1.1195 -0.4531
    4MOL   H353 1559   5.422   1.203   4.187  1.4058 -0.8729 -0.2104
    4MOL   H354 1560   5.212   1.102   4.230  1.3266  1.0255  0.9693
    4MOL   H355 1561   4.853   0.930   4.011 -1.4987  1.3616 -0.0714
    4MOL   H356 1562   4.878   1.072   3.908 -3.1226  0.8437  2.9105
    4MOL   H357 1563   4.990   0.932   3.901  1.1942  0.7719  0.1882
    4MOL   H358 1564   5.112   1.102   3.804 -0.7666  2.3531 -1.6418
    4MOL   H359 1565   5.323   1.222   3.767 -0.1677  1.0737 -0.1424
    4MOL   H360 1566   5.712   1.221   4.056 -1.5094  2.7010  0.5520
    4MOL   H361 1567   5.619   1.074   4.011  0.8364 -0.7764 -1.0153
    4MOL   C362 1568   5.748   1.141   3.863 -0.5833 -0.0995  0.1477
    4MOL   C363 1569   5.681   1.085   3.739  0.5533 -0.5720 -0.8850
    4MOL   C364 1570   5.682   1.164   3.616  0.7038  0.2063 -0.7748
    4MOL   C365 1571   5.619   1.113   3.504  0.4680  0.5217 -0.2545
    4MOL   C366 1572   5.547   0.995   3.500  0.7881 -0.3863  0.2577
    4MOL   O367 1573   5.483   0.951   3.388  0.0240 -0.7788 -0.2982
    4MOL   C368 1574   5.480   1.044   3.272  0.7218 -0.3625 -0.2764
    4MOL   C369 1575   5.538   0.925   3.624  0.9486 -0.1663 -0.4004
    4MOL   C370 1576   5.606   0.964   3.739  0.9743  0.1808 -0.3368
    4MOL   C371 1577   5.862   1.056   3.909 -0.1630  0.1386 -0.0924
    4MOL   H372 1578   5.791   1.233   3.824 -1.3936  0.4092  0.4403
    4MOL   H373 1579   5.734   1.257   3.602  0.8450  0.6613  2.4691
    4MOL   H374 1580   5.620   1.184   3.422 -0.9983  0.6859 -0.1456
    4MOL   H375 1581   5.580   1.071   3.236  1.1333 -0.1547  1.0161
    4MOL   H376 1582   5.428   1.013   3.181 -1.2871 -1.2383  1.1489
    4MOL   H377 1583   5.440   1.140   3.304  0.2879 -1.2776  1.9986
    4MOL   H378 1584   5.478   0.835   3.634  1.2284 -0.3772 -0.5932
    4MOL   H379 1585   5.595   0.923   3.838 -0.2999  2.0808  0.3396
    4MOL   H380 1586   5.823   0.959   3.937 -1.8071  0.6750 -0.4945
    4MOL   H381 1587   5.916   1.036   3.816 -0.3576 -1.8206  0.1894
    4MOL   C382 1588   5.965   1.110   4.013  0.5380  0.4723 -0.0526
    4MOL   C383 1589   6.021   1.248   3.976  0.4734 -0.5773  0.5253
    4MOL   C384 1590   6.075   1.275   3.845  0.0216  0.2053 -0.2429
    4MOL   C385 1591   6.110   1.409   3.810  0.4324  0.2784 -0.4671
    4MOL   C386 1592   6.108   1.512   3.912 -0.1445 -0.7999 -0.7175
    4MOL   O387 1593   6.161   1.637   3.887 -0.0113 -0.8560 -0.0308
    4MOL   C388 1594   6.255   1.659   3.775  0.0481  0.1250 -0.2569
    4MOL   C389 1595   6.066   1.478   4.041  0.4204 -0.2758 -0.3748
    4MOL   C390 1596   6.028   1.347   4.077  0.0877 -0.5642 -0.2875
    4MOL   C391 1597   6.084   1.020   4.056  0.2274  0.2670  0.1962
    4MOL   H392 1598   5.903   1.111   4.103  1.0977 -0.9374  0.3707
    4MOL   H393 1599   6.079   1.194   3.773  1.4959  0.2682 -0.2428
    4MOL   H394 1600   6.158   1.418   3.714  0.0052  1.6201 -0.5608
    4MOL   H395 1601   6.305   1.566   3.751 -0.2926 -0.2028  0.2847
    4MOL   H396 1602   6.332   1.729   3.807  0.6827 -0.2333 -0.9914
    4MOL   H397 1603   6.203   1.697   3.687 -0.0197 -1.5077 -0.9336
    4MOL   H398 1604   6.070   1.539   4.131  0.9166 -2.5395  1.1788
    4MOL   H399 1605   6.016   1.325   4.182  1.7329  0.4694  0.1385
    4MOL   H400 1606   6.060   0.923   4.100  1.2772  0.2579  0.7609
    4MOL   H401 1607   6.145   1.073   4.129 -2.2839  1.6479  1.3767
    4MOL   H402 1608   6.140   0.997   3.966  0.4621 -1.0383  0.6539
    5MOL     C1 1609   3.494   2.929   2.956  0.3907  0.2782 -0.2198
    5MOL     C2 1610   3.554   2.864   3.078 -1.0561 -0.2528 -0.0249
    5MOL     C3 1611   3.690   2.864   3.095  0.1340  1.4142  0.3232
    5MOL     C4 1612   3.752   2.794   3.209  0.8291 -0.5033 -0.2897
    5MOL     C5 1613   3.668   2.730   3.304  0.5311 -0.4187  0.5854
    5MOL     O6 1614   3.740   2.677   3.417  0.2451  0.2372 -0.2733
    5MOL     C7 1615   3.674   2.687   3.534  0.6622 -0.7558  0.1299
    5MOL     C8 1616   3.527   2.733   3.286  0.1537  0.2106 -0.4234
    5MOL     C9 1617   3.473   2.805   3.177 -0.5759  0.2588  0.2076
    5MOL    C10 1618   3.545   2.860   2.821 -0.3852 -0.3883 -0.8119
    5MOL    H11 1619   3.510   3.036   2.959 -1.9146  0.6529 -0.4425
    5MOL    H12 1620   3.759   2.903   3.023  0.6367 -0.6292 -0.3243
    5MOL    H13 1621   3.858   2.786   3.229  0.7276  1.2897  1.1140
    5MOL    H14 1622   3.644   2.790   3.554  0.8639 -1.2279  3.0015
    5MOL    H15 1623   3.586   2.623   3.536 -1.2862  1.8390  0.5873
    5MOL    H16 1624   3.741   2.658   3.614 -0.3408 -0.9040  0.9280
    5MOL    H17 1625   3.455   2.686   3.351  1.5189 -0.4014  0.6790
    5MOL    H18 1626   3.366   2.805   3.172 -0.5992 -2.5476  0.0425
    5MOL    H19 1627   3.653   2.846   2.825 -0.1638  1.4068 -0.3562
    5MOL    H20 1628   3.492   2.765   2.812 -1.0366 -0.2196  1.0328
    5MOL    H21 1629   3.385   2.929   2.962  0.2582 -0.8097 -2.0291
    5MOL    C22 1630   3.520   2.956   2.700 -0.5671 -0.3488 -0.6485
    5MOL    C23 1631   3.614   2.927   2.587 -1.2473  0.7982 -0.2309
    5MOL    C24 1632   3.608   2.805   2.521  0.1021  0.0028  0.3008
    5MOL    C25 1633   3.703   2.763   2.438 -0.6524 -0.2689  0.0488
    5MOL    C26 1634   3.821   2.839   2.420  0.7277  0.3944 -0.5320
    5MOL    O27 1635   3.924   2.781   2.346  0.3307  0.8597  0.3796
    5MOL    C28 1636   4.056   2.827   2.364  0.1993  0.8682 -0.1269
    5MOL    C29 1637   3.822   2.970   2.478 -0.8193 -0.0244 -0.2616
    5MOL    C30 1638   3.723   3.014   2.559 -0.0481  0.6479 -0.5798
    5MOL    C31 1639   3.370   2.980   2.650 -0.3212  0.4543 -0.1394
    5MOL    H32 1640   3.549   3.053   2.741 -1.5666 -1.3209  2.5166
    5MOL    H33 1641   3.524   2.741   2.546 -0.0397 -0.2044 -0.6944
    5MOL    H34 1642   3.701   2.662   2.400 -1.3097 -1.3704  2.8859
    5MOL    H35 1643   4.117   2.739   2.385 -2.1245 -0.2400  2.4387
    5MOL    H36 1644   4.070   2.885   2.455 -1.9256  0.5206  0.4497
    5MOL    H37 1645   4.081   2.894   2.282  1.8487  1.9858  1.2709
    5MOL    H38 1646   3.911   3.031   2.466  0.4276 -1.5980  0.7594
    5MOL    H39 1647   3.730   3.112   2.602  1.8369  0.0683  0.4696
    5MOL    H40 1648   3.320   2.900   2.595 -0.4382  1.4259 -1.4872
    5MOL    H41 1649   3.312   2.994   2.741 -2.0049 -1.2156 -0.9010
    5MOL    C42 1650   3.354   3.105   2.562 -0.0302  0.2467  0.5413
    5MOL    C43 1651   3.227   3.180   2.595  0.1249 -0.1009  0.6581
    5MOL    C44 1652   3.194   3.218   2.729 -0.2592  0.2548 -1.0082
    5MOL    C45 1653   3.072   3.277   2.770 -0.7144  0.1017 -0.1867
    5MOL    C46 1654   2.971   3.294   2.677  0.2222  0.2134  0.3715
    5MOL    O47 1655   2.848   3.352   2.706  0.5074 -0.1282 -0.4898
    5MOL    C48 1656   2.815   3.378   2.837 -0.1498  0.0832  0.6415
    5MOL    C49 1657   3.003   3.265   2.542  0.4290 -0.1574 -0.1431
    5MOL    C50 1658   3.121   3.202   2.505 -0.1402  0.4322 -0.5049
    5MOL    C51 1659   3.368   3.071   2.407  0.0032 -0.0985  0.0412
    5MOL    H52 1660   3.439   3.169   2.589  0.2939  0.1453 -0.2123
    5MOL    H53 1661   3.268   3.213   2.808 -0.9430 -0.3390 -0.3953
    5MOL    H54 1662   3.057   3.300   2.875 -2.0305  1.5309 -0.6743
    5MOL    H55 1663   2.847   3.481   2.856 -0.0753  0.6397 -2.1393
    5MOL    H56 1664   2.708   3.402   2.831  0.0861  2.4847  4.5759
    5MOL    H57 1665   2.839   3.305   2.913  0.5854  1.2083  1.5008
    5MOL    H58 1666   2.933   3.288   2.462  0.5165  0.8308  0.0563
    5MOL    H59 1667   3.126   3.157   2.407 -1.7397  0.1850 -0.4832
    5MOL    H60 1668   3.288   3.009   2.366  0.0607  0.0723 -0.3384
    5MOL    H61 1669   3.449   2.999   2.397  0.4069  0.4507 -0.7105
    5MOL    C62 1670   3.390   3.188   2.314 -0.2635  0.0539 -0.8413
    5MOL    C63 1671   3.417   3.133   2.171 -0.7786  0.8955  0.2496
    5MOL    C64 1672   3.543   3.087   2.136 -0.5633  0.0076 -0.2133
    5MOL    C65 1673   3.577   3.026   2.019  0.0562  0.3995  0.3511
    5MOL    C66 1674   3.479   3.029   1.913 -0.4226 -0.6028  0.5683
    5MOL    O67 1675   3.524   2.987   1.786 -0.2767 -0.1825  0.3929
    5MOL    C68 1676   3.426   2.973   1.681 -0.0126  0.4774 -0.0395
    5MOL    C69 1677   3.349   3.083   1.940 -0.1209 -0.2542 -0.2032
    5MOL    C70 1678   3.320   3.138   2.067  0.3531 -0.4609  0.1686
    5MOL    C71 1679   3.508   3.290   2.353 -0.0019  0.6021 -0.4586
    5MOL    H72 1680   3.300   3.249   2.307 -1.1878 -0.7678  2.8811
    5MOL    H73 1681   3.615   3.077   2.217 -1.2932 -0.4185  0.3907
    5MOL    H74 1682   3.677   2.987   2.010 -0.1588  0.0985 -0.7834
    5MOL    H75 1683   3.472   2.921   1.597 -1.4026  1.3370 -1.3659
    5MOL    H76 1684   3.388   3.069   1.648  0.5629 -0.0734 -2.4016
    5MOL    H77 1685   3.349   2.903   1.716 -0.4125 -0.0400 -1.9278
    5MOL    H78 1686   3.276   3.096   1.861  0.0136 -0.3344 -0.3403
    5MOL    H79 1687   3.228   3.195   2.059 -0.8671 -2.6500 -2.1476
    5MOL    H80 1688   3.486   3.333   2.451  2.5920  2.0653 -0.4761
    5MOL    H81 1689   3.596   3.225   2.357 -0.7529 -0.4040 -0.1997
    5MOL    C82 1690   3.529   3.411   2.260 -0.2630  0.4108 -0.4842
    5MOL    C83 1691   3.402   3.501   2.247  0.1365 -0.1826 -0.2988
    5MOL    C84 1692   3.381   3.608   2.342  0.4334  0.0743  0.2155
    5MOL    C85 1693   3.269   3.696   2.328  0.1427  0.8022 -0.1404
    5MOL    C86 1694   3.185   3.678   2.216  0.3986  0.2197 -0.0534
    5MOL    O87 1695   3.073   3.755   2.183  0.1670 -0.2871 -0.2057
    5MOL    C88 1696   3.077   3.888   2.242 -0.7395  0.8461  0.2015
    5MOL    C89 1697   3.204   3.573   2.131 -0.6379 -0.3657  0.4704
    5MOL    C90 1698   3.313   3.487   2.140  0.2969  0.6896 -0.4149
    5MOL    C91 1699   3.653   3.491   2.292  0.0350  0.7530 -0.0601
    5MOL    H92 1700   3.536   3.373   2.159  4.0353 -0.7532  0.1712
    5MOL    H93 1701   3.437   3.618   2.434  0.9591  2.2665 -0.3306
    5MOL    H94 1702   3.262   3.777   2.399 -1.4895  1.0390 -0.5603
    5MOL    H95 1703   3.162   3.947   2.207  0.3332 -0.7915 -0.0205
    5MOL    H96 1704   3.074   3.892   2.351 -0.7884 -1.2226  0.2936
    5MOL    H97 1705   2.989   3.949   2.220 -1.0425 -0.2646 -1.7665
    5MOL    H98 1706   3.125   3.554   2.059  1.1251 -0.7804 -1.3984
    5MOL    H99 1707   3.319   3.408   2.067  0.2631  0.8774 -0.6236
    5MOL   H100 1708   3.637   3.586   2.240 -1.0629 -0.7003 -2.4824
    5MOL   H101 1709   3.656   3.504   2.400 -1.1798 -1.9727  0.3463
    5MOL   C102 1710   3.789   3.416   2.254 -0.4091 -0.1331 -0.0878
    5MOL   C103 1711   3.807   3.370   2.109  0.0428 -0.3884 -0.1238
    5MOL   C104 1712   3.785   3.454   2.000  0.8396  0.4452  0.6284
    5MOL   C105 1713   3.795   3.407   1.864  0.5789 -0.0305  0.0971
    5MOL   C106 1714   3.845   3.277   1.840 -0.0912 -0.1087 -0.2730
    5MOL   O107 1715   3.847   3.242   1.704  0.3793  0.4743 -0.2656
    5MOL   C108 1716   3.909   3.116   1.679  0.2252  0.0963 -0.2447
    5MOL   C109 1717   3.875   3.195   1.952 -0.2111 -0.1729  0.6459
    5MOL   C110 1718   3.854   3.240   2.083 -0.1661  0.7927 -0.6231
    5MOL   C111 1719   3.904   3.515   2.289 -0.2889 -0.2978 -0.4504
    5MOL   H112 1720   3.795   3.329   2.318 -1.1016 -0.9428 -1.1065
    5MOL   H113 1721   3.756   3.557   2.013  1.3004  0.5807  0.5799
    5MOL   H114 1722   3.775   3.474   1.781  1.7049 -0.9580 -0.9353
    5MOL   H115 1723   3.845   3.030   1.698  3.8247 -2.8408 -0.7632
    5MOL   H116 1724   3.924   3.111   1.571  1.3025 -0.9169 -0.0664
    5MOL   H117 1725   4.005   3.099   1.726 -0.6858 -3.2150  0.5542
    5MOL   H118 1726   3.914   3.095   1.943 -0.0739 -0.0926  0.3525
    5MOL   H119 1727   3.888   3.182   2.167  2.0714 -0.9729 -2.7039
    5MOL   H120 1728   3.898   3.613   2.243  0.1542  0.6495  1.4652
    5MOL   H121 1729   3.890   3.548   2.392  0.0554 -0.7565 -0.2576
    5MOL   C122 1730   4.052   3.464   2.256  0.8541 -0.2504 -0.0409
    5MOL   C123 1731   4.098   3.341   2.337 -0.0269 -0.3556  0.9226
    5MOL   C124 1732   4.039   3.296   2.460 -0.0104 -1.3078  0.2581
    5MOL   C125 1733   4.109   3.194   2.538  0.1282  0.2549  0.1688
    5MOL   C126 1734   4.215   3.121   2.476  0.4517 -0.5939  0.3743
    5MOL   O127 1735   4.266   3.014   2.551  0.3277 -0.0733  0.5852
    5MOL   C128 1736   4.405   2.974   2.521 -0.2444 -0.3631  0.2554
    5MOL   C129 1737   4.264   3.155   2.350  0.1068 -1.1351  0.1522
    5MOL   C130 1738   4.211   3.269   2.283 -0.4643  0.0638 -0.0989
    5MOL   C131 1739   4.153   3.580   2.284  0.5369  0.3958  0.6091
    5MOL   H132 1740   4.055   3.446   2.148  0.2079 -0.7663  0.0313
    5MOL   H133 1741   3.948   3.343   2.494  1.9687  0.6841  3.0154
    5MOL   H134 1742   4.082   3.165   2.638 -0.0054 -1.9423 -0.4873
    5MOL   H135 1743   4.428   2.904   2.601 -4.4224  1.0672  2.8856
    5MOL   H136 1744   4.400   2.932   2.421 -2.6188  1.1138 -0.2921
    5MOL   H137 1745   4.479   3.054   2.533  0.0758 -0.3741 -1.5613
    5MOL   H138 1746   4.347   3.098   2.310  2.3213 -0.4120  3.4509
    5MOL   H139 1747   4.256   3.302   2.191 -0.0668  0.6650  0.3063
    5MOL   H140 1748   4.190   3.554   2.383 -0.4428 -1.9034  0.4141
    5MOL   H141 1749   4.104   3.673   2.311 -0.5115  0.4213 -1.2910
    5MOL   C142 1750   4.263   3.596   2.179 -0.1704  0.1076  0.1525
    5MOL   C143 1751   4.192   3.645   2.044  0.2081 -0.5582 -0.8422
    5MOL   C144 1752   4.118   3.765   2.045 -0.2260  0.1127  0.0839
    5MOL   C145 1753   4.056   3.809   1.921 -0.0678 -0.5633 -0.5011
    5MOL   C146 1754   4.068   3.739   1.803  0.1082 -0.2879 -0.4732
    5MOL   O147 1755   4.004   3.794   1.698 -0.5307  0.0027 -0.2440
    5MOL   C148 1756   3.985   3.707   1.586  0.4372  0.4667  0.8105
    5MOL   C149 1757   4.151   3.623   1.801 -0.1774 -0.1714  0.1728
    5MOL   C150 1758   4.212   3.573   1.923  0.6448  0.5772 -0.7806
    5MOL   C151 1759   4.368   3.693   2.221  1.4074 -0.0676 -0.3873
    5MOL   H152 1760   4.300   3.496   2.156  1.0751  0.7029 -0.5105
    5MOL   H153 1761   4.101   3.823   2.135  0.3542  0.8527 -0.2818
    5MOL   H154 1762   3.995   3.898   1.923  1.2883  0.3944 -0.8478
    5MOL   H155 1763   4.075   3.700   1.525 -1.0297  0.5459 -1.4532
    5MOL   H156 1764   3.956   3.608   1.620  0.8947  0.0314 -0.0606
    5MOL   H157 1765   3.905   3.748   1.524  1.5016 -0.2392 -1.0621
    5MOL   H158 1766   4.161   3.568   1.708  1.0589  0.0672  0.1571
    5MOL   H159 1767   4.275   3.486   1.920 -0.1378 -0.0332  0.0195
    5MOL   H160 1768   4.389   3.668   2.325  0.6910  1.4882  0.1368
    5MOL   H161 1769   4.328   3.794   2.225  2.0843  0.2155 -0.7220
    5MOL   C162 1770   4.499   3.679   2.134 -0.1942  0.0255  0.4682
    5MOL   C163 1771   4.572   3.545   2.147  0.5414 -0.4236  0.1573
    5MOL   C164 1772   4.632   3.511   2.269 -0.6118 -0.7977 -0.6954
    5MOL   C165 1773   4.699   3.388   2.285 -0.2484  0.2959  0.1983
    5MOL   C166 1774   4.695   3.285   2.183  0.3466  0.0523 -0.3798
    5MOL   O167 1775   4.745   3.164   2.198  0.9012  0.2007  0.4683
    5MOL   C168 1776   4.757   3.114   2.331  0.6184  0.4191 -0.3351
    5MOL   C169 1777   4.645   3.328   2.061  0.5976 -0.1190  0.3767
    5MOL   C170 1778   4.584   3.456   2.043  0.6352  0.2478 -0.2311
    5MOL   C171 1779   4.596   3.795   2.167  0.1229  0.1278  0.3944
    5MOL   H172 1780   4.469   3.691   2.030 -1.9723 -2.0135  0.7160
    5MOL   H173 1781   4.643   3.591   2.341 -0.7194  1.1131 -2.7385
    5MOL   H174 1782   4.750   3.366   2.377  2.4458  2.2830 -0.7370
    5MOL   H175 1783   4.772   3.006   2.330 -2.2550 -0.0485  0.8019
    5MOL   H176 1784   4.661   3.131   2.381  0.4090  1.7656 -1.1813
    5MOL   H177 1785   4.844   3.157   2.381  1.3985 -0.6182 -0.7632
    5MOL   H178 1786   4.641   3.260   1.977 -0.4166 -0.4773  0.7074
    5MOL   H179 1787   4.546   3.481   1.945  0.2833 -0.5798 -0.3078
    5MOL   H180 1788   4.699   3.758   2.157 -0.4602 -1.2692 -0.6810
    5MOL   H181 1789   4.574   3.828   2.268  0.2516  1.9477 -0.1561
    5MOL   C182 1790   4.599   3.923   2.074 -0.1389 -0.2293  0.5265
    5MOL   C183 1791   4.723   4.005   2.111 -0.4498  0.3364  0.2186
    5MOL   C184 1792   4.724   4.088   2.223  0.4060 -0.1109 -0.0162
    5MOL   C185 1793   4.832   4.179   2.246  0.2924 -0.7687 -0.4162
    5MOL   C186 1794   4.952   4.172   2.174 -0.9639  0.2694  0.1051
    5MOL   O187 1795   5.055   4.261   2.210  0.7446 -0.4542 -1.1551
    5MOL   C188 1796   5.174   4.265   2.132  0.2097  0.4626 -0.1286
    5MOL   C189 1797   4.956   4.072   2.071  0.8785  0.5829 -1.1868
    5MOL   C190 1798   4.843   3.992   2.037  0.6278 -0.3655  0.1904
    5MOL   C191 1799   4.462   3.997   2.072  1.0357 -0.1532 -0.3639
    5MOL   H192 1800   4.628   3.873   1.982  0.4018 -2.1220  1.6846
    5MOL   H193 1801   4.625   4.096   2.264 -0.5928 -2.2791 -1.8813
    5MOL   H194 1802   4.824   4.252   2.325 -2.9049  0.3071 -1.6579
    5MOL   H195 1803   5.165   4.342   2.055  0.4591  3.2530  2.5296
    5MOL   H196 1804   5.204   4.165   2.099  1.2827  0.9753 -0.7428
    5MOL   H197 1805   5.240   4.290   2.215 -1.4443 -3.0864  2.3642
    5MOL   H198 1806   5.043   4.062   2.007 -0.3227 -1.2083 -2.5927
    5MOL   H199 1807   4.857   3.913   1.965 -1.3271 -0.0167 -0.5921
    5MOL   H200 1808   4.382   3.938   2.027 -0.0868 -0.3848  1.8700
    5MOL   H201 1809   4.417   4.020   2.168 -0.3669  2.3872 -1.5775
    5MOL   C202 1810   4.456   4.128   1.982  0.3156  0.6070 -0.0452
    5MOL   C203 1811   4.516   4.244   2.052  0.5120 -0.4589 -0.1736
    5MOL   C204 1812   4.624   4.315   1.993  0.3293 -0.5072  0.3618
    5MOL   C205 1813   4.687   4.420   2.060  0.1227  0.1774  0.1812
    5MOL   C206 1814   4.634   4.463   2.179  0.3395  0.1215  0.1778
    5MOL   O207 1815   4.681   4.567   2.253  0.0288 -0.2334 -0.3816
    5MOL   C208 1816   4.796   4.636   2.200 -0.5785  0.3300 -0.2525
    5MOL   C209 1817   4.531   4.390   2.241 -0.2947 -0.1241 -0.3240
    5MOL   C210 1818   4.470   4.281   2.175  0.0942  0.1021  0.2575
    5MOL   C211 1819   4.308   4.160   1.955  0.3197  0.3188  0.1216
    5MOL   H212 1820   4.504   4.103   1.887  0.9307  1.6329 -0.0153
    5MOL   H213 1821   4.665   4.287   1.897 -1.0450 -0.1278 -0.3590
    5MOL   H214 1822   4.773   4.471   2.018 -1.4782  3.4390  0.7166
    5MOL   H215 1823   4.827   4.712   2.271  0.1143 -0.9162  0.8138
    5MOL   H216 1824   4.884   4.576   2.175 -0.0011  1.4846 -1.0372
    5MOL   H217 1825   4.757   4.685   2.111  0.4850 -1.9519 -2.0187
    5MOL   H218 1826   4.498   4.432   2.335  2.0730  1.1959 -0.0437
    5MOL   H219 1827   4.385   4.233   2.221  1.0128 -1.0664  0.7610
    5MOL   H220 1828   4.249   4.166   2.047 -1.8071 -1.3816 -1.0935
    5MOL   H221 1829   4.270   4.075   1.898  3.3701 -0.6540 -0.5534
    5MOL   C222 1830   4.278   4.286   1.868  0.6251  0.1945 -0.6928
    5MOL   C223 1831   4.191   4.251   1.747 -0.2062 -0.3788  0.5411
    5MOL   C224 1832   4.081   4.171   1.757  0.3834 -0.1950  0.4439
    5MOL   C225 1833   3.996   4.149   1.645 -0.1768 -0.1400 -0.6467
    5MOL   C226 1834   4.023   4.215   1.524  0.1135  1.1376 -0.0675
    5MOL   O227 1835   3.943   4.200   1.412 -0.7737 -0.6120 -0.0234
    5MOL   C228 1836   3.822   4.139   1.422 -1.1119 -0.0510  0.2701
    5MOL   C229 1837   4.140   4.293   1.507 -1.1639  0.4421 -0.3537
    5MOL   C230 1838   4.220   4.318   1.624 -0.1483 -0.6229  0.2953
    5MOL   C231 1839   4.221   4.410   1.943 -0.3562 -0.1217  0.1138
    5MOL   H232 1840   4.370   4.303   1.813 -0.1761 -1.0683 -2.4870
    5MOL   H233 1841   4.069   4.123   1.853 -0.4496  0.7946  0.8337
    5MOL   H234 1842   3.910   4.089   1.666 -1.2905  1.7183  0.2656
    5MOL   H235 1843   3.833   4.031   1.438 -0.0741 -0.2662 -1.6837
    5MOL   H236 1844   3.762   4.167   1.509 -1.4589 -1.9289  0.6722
    5MOL   H237 1845   3.763   4.157   1.332 -0.1402  1.0080 -0.1700
    5MOL   H238 1846   4.174   4.330   1.411 -0.7241 -0.3620 -0.5093
    5MOL   H239 1847   4.306   4.382   1.614 -0.2563 -0.3476  1.0655
    5MOL   H240 1848   4.114   4.390   1.948 -0.5438  1.3600  2.1713
    5MOL   H241 1849   4.252   4.424   2.046 -0.6579  2.6883 -0.1557
    5MOL   C242 1850   4.240   4.548   1.876  0.3032 -0.5383  0.1994
    5MOL   C243 1851   4.117   4.636   1.909  0.3475  0.1697 -0.3770
    5MOL   C244 1852   4.016   4.654   1.810  0.1820 -0.5743  0.1754
    5MOL   C245 1853   3.887   4.703   1.843  0.1387  0.4545  0.1949
    5MOL   C246 1854   3.860   4.759   1.972  0.1388 -0.2550 -0.0186
    5MOL   O247 1855   3.738   4.803   2.007  0.7007  0.6560  0.4127
    5MOL   C248 1856   3.627   4.804   1.919  0.1138 -0.0713 -0.2132
    5MOL   C249 1857   3.967   4.748   2.064 -1.0258  0.1873 -0.3888
    5MOL   C250 1858   4.089   4.677   2.038 -0.1059  0.3165 -0.5178
    5MOL   C251 1859   4.375   4.612   1.924 -0.8463 -0.1093  0.9932
    5MOL   H252 1860   4.227   4.538   1.768  1.2728  1.5874 -0.1281
    5MOL   H253 1861   4.029   4.601   1.717  0.4551 -0.4923  0.1650
    5MOL   H254 1862   3.804   4.694   1.775 -0.4485  1.7042  0.7209
    5MOL   H255 1863   3.538   4.846   1.965  0.6717  0.4395  0.4261
    5MOL   H256 1864   3.645   4.872   1.836 -0.5583  1.0727  0.5788
    5MOL   H257 1865   3.591   4.710   1.877  1.6086 -0.6498 -0.2499
    5MOL   H258 1866   3.957   4.766   2.170  2.7279  0.0863  0.0426
    5MOL   H259 1867   4.156   4.651   2.119  0.1616 -0.0231 -0.8466
    5MOL   H260 1868   4.442   4.532   1.956  1.0034  1.0872  0.1441
    5MOL   H261 1869   4.357   4.678   2.008  0.8613 -1.1636  2.2193
    5MOL   C262 1870   4.441   4.698   1.812 -0.3929 -0.3931  0.0164
    5MOL   C263 1871   4.494   4.616   1.694 -0.8662 -0.5117  0.0521
    5MOL   C264 1872   4.608   4.533   1.703  0.7246  0.1395 -0.3144
    5MOL   C265 1873   4.651   4.456   1.595 -0.0010 -0.0264 -0.3354
    5MOL   C266 1874   4.588   4.464   1.470  0.0785 -0.1720  1.2299
    5MOL   O267 1875   4.635   4.378   1.368  0.8230 -0.3658  0.1372
    5MOL   C268 1876   4.643   4.449   1.235  0.1541 -0.1290  0.0167
    5MOL   C269 1877   4.482   4.551   1.451  0.5391 -0.3071  0.0366
    5MOL   C270 1878   4.434   4.618   1.566  0.4291 -0.1852 -0.5948
    5MOL   C271 1879   4.540   4.802   1.868 -0.6021 -0.0861 -0.0210
    5MOL   H272 1880   4.357   4.757   1.773 -2.4971 -1.4663  2.8037
    5MOL   H273 1881   4.664   4.525   1.795 -0.6588 -1.7875  0.3863
    5MOL   H274 1882   4.744   4.402   1.601  1.7640  3.0048  1.0094
    5MOL   H275 1883   4.546   4.481   1.198 -0.6320  1.4573  3.1706
    5MOL   H276 1884   4.693   4.388   1.161 -0.3998 -0.5004 -0.0478
    5MOL   H277 1885   4.703   4.540   1.247  1.1436 -1.0407  2.4144
    5MOL   H278 1886   4.413   4.560   1.369  0.1685 -0.8704  0.2856
    5MOL   H279 1887   4.360   4.694   1.549 -0.6321 -0.3925  2.8479
    5MOL   H280 1888   4.559   4.763   1.968  1.1603  2.3658  0.6327
    5MOL   H281 1889   4.630   4.788   1.807  0.3216 -2.2764  1.7796
    5MOL   C282 1890   4.492   4.952   1.875  0.7712  0.4566  0.5714
    5MOL   C283 1891   4.471   5.014   1.740  0.1599 -0.0025 -0.1016
    5MOL   C284 1892   4.341   5.053   1.697 -0.1953 -0.0747  0.4908
    5MOL   C285 1893   4.319   5.115   1.569  0.5317  0.7330  0.4177
    5MOL   C286 1894   4.428   5.122   1.482  0.2356 -0.0617  0.8477
    5MOL   O287 1895   4.395   5.177   1.358 -0.5125 -0.6234  0.3037
    5MOL   C288 1896   4.497   5.176   1.260  0.8289  0.2829 -0.5982
    5MOL   C289 1897   4.556   5.068   1.518 -0.7189  0.1796 -0.3496
    5MOL   C290 1898   4.580   5.020   1.649  0.3290  0.1634  0.0424
    5MOL   C291 1899   4.592   5.030   1.966  0.6630 -0.2912 -0.5036
    5MOL   H292 1900   4.395   4.965   1.924  0.1557  0.5341 -0.6530
    5MOL   H293 1901   4.256   5.048   1.764 -1.8980  2.3632 -1.3958
    5MOL   H294 1902   4.218   5.143   1.543  0.2262 -0.3988  0.3501
    5MOL   H295 1903   4.461   5.178   1.157  0.3104  0.0981 -0.4200
    5MOL   H296 1904   4.576   5.249   1.276  0.8547  0.1525 -0.1267
    5MOL   H297 1905   4.548   5.080   1.263 -0.7137 -0.5340  0.4184
    5MOL   H298 1906   4.647   5.079   1.460 -0.6016  0.7372 -0.0646
    5MOL   H299 1907   4.678   4.987   1.682 -0.7527  0.1361  3.4566
    5MOL   H300 1908   4.600   4.979   2.062  3.0820 -0.6567 -0.8711
    5MOL   H301 1909   4.697   5.022   1.937  0.9258 -0.3662  0.4730
    5MOL   C302 1910   4.562   5.182   1.977 -0.2673  0.4254 -0.1514
    5MOL   C303 1911   4.585   5.229   2.124 -0.4077  0.1001 -0.3860
    5MOL   C304 1912   4.719   5.250   2.174  0.5777  1.1537 -0.4907
    5MOL   C305 1913   4.737   5.296   2.303 -0.6591 -0.0173 -0.5097
    5MOL   C306 1914   4.632   5.344   2.382 -0.6562  0.3253  0.0779
    5MOL   O307 1915   4.639   5.405   2.509 -0.3739 -0.9712 -0.0676
    5MOL   C308 1916   4.768   5.434   2.563  0.1879 -0.6310 -0.5200
    5MOL   C309 1917   4.503   5.313   2.332  0.8924 -0.1796  0.5424
    5MOL   C310 1918   4.476   5.249   2.207  0.3741 -0.0139  0.3584
    5MOL   C311 1919   4.625   5.273   1.860 -0.1969  0.2295 -0.3935
    5MOL   H312 1920   4.455   5.197   1.967 -0.3559  1.5583  2.1297
    5MOL   H313 1921   4.807   5.236   2.114 -1.1244 -0.3961 -2.6699
    5MOL   H314 1922   4.840   5.310   2.335  0.5310 -3.1169 -2.8325
    5MOL   H315 1923   4.808   5.347   2.615  0.2045  0.3383  1.1092
    5MOL   H316 1924   4.756   5.525   2.622  1.3590  0.1657 -1.4751
    5MOL   H317 1925   4.833   5.451   2.477 -0.2768  0.3726 -0.6797
    5MOL   H318 1926   4.419   5.336   2.395  0.2738 -0.2012 -0.2564
    5MOL   H319 1927   4.372   5.242   2.178  0.3550  0.6783  0.2514
    5MOL   H320 1928   4.590   5.239   1.763  0.4213 -0.5631 -0.3435
    5MOL   H321 1929   4.731   5.250   1.865 -0.2865  0.0271  0.8406
    5MOL   C322 1930   4.612   5.420   1.886 -0.0405  0.3606  0.8047
    5MOL   C323 1931   4.468   5.456   1.875  0.3479  0.1887 -0.2571
    5MOL   C324 1932   4.384   5.438   1.763 -0.1974  0.2738 -0.0885
    5MOL   C325 1933   4.245   5.467   1.770  0.7120 -0.3524  0.0060
    5MOL   C326 1934   4.180   5.518   1.887  0.0917 -0.4079 -0.1676
    5MOL   O327 1935   4.049   5.563   1.897  0.1270  0.7516 -0.2605
    5MOL   C328 1936   3.959   5.533   1.791  0.3398  0.0618  0.4886
    5MOL   C329 1937   4.265   5.553   1.997  0.9101  0.4745 -0.5080
    5MOL   C330 1938   4.405   5.514   1.994  0.3428  0.3007 -0.3366
    5MOL   C331 1939   4.697   5.507   1.794 -0.3238  0.0154 -0.1037
    5MOL   H332 1940   4.653   5.431   1.986 -2.8201  2.4166  1.8105
    5MOL   H333 1941   4.422   5.399   1.670 -4.0270 -3.2336 -0.3573
    5MOL   H334 1942   4.187   5.450   1.680 -0.2574  0.2041  0.5141
    5MOL   H335 1943   3.971   5.428   1.763  0.5150  0.7302 -2.1012
    5MOL   H336 1944   3.985   5.598   1.707  3.3805 -1.3366  0.2903
    5MOL   H337 1945   3.857   5.559   1.819  0.1569 -1.8330  1.6284
    5MOL   H338 1946   4.211   5.608   2.072 -0.9792 -3.1369  0.8937
    5MOL   H339 1947   4.478   5.520   2.073 -0.1068 -2.4546  0.3487
    5MOL   H340 1948   4.796   5.469   1.769  1.3786  3.3243  1.1983
    5MOL   H341 1949   4.642   5.503   1.700 -0.2358 -0.4737 -0.1328
    5MOL   C342 1950   4.722   5.649   1.847 -0.6921  0.7488 -0.5002
    5MOL   C343 1951   4.754   5.747   1.738 -0.0030  0.6852 -0.9466
    5MOL   C344 1952   4.671   5.855   1.713  0.6087 -0.1901 -2.0610
    5MOL   C345 1953   4.699   5.948   1.604  0.5755  0.6118 -0.3985
    5MOL   C346 1954   4.810   5.927   1.523  0.2334  0.2653 -0.5331
    5MOL   O347 1955   4.834   6.024   1.430 -0.4117 -0.2638  0.1192
    5MOL   C348 1956   4.943   6.009   1.340  0.2400  0.2227  0.0802
    5MOL   C349 1957   4.896   5.816   1.548 -0.3048 -0.2899  0.6823
    5MOL   C350 1958   4.866   5.729   1.656  0.1845  0.9860 -0.3772
    5MOL   C351 1959   4.814   5.645   1.969  0.1592 -0.6998  0.2067
    5MOL   H352 1960   4.627   5.682   1.890  0.3402  2.1282  0.7808
    5MOL   H353 1961   4.584   5.864   1.776  1.9130 -0.9182 -0.0941
    5MOL   H354 1962   4.633   6.029   1.578  2.4666  2.9689  1.8693
    5MOL   H355 1963   4.948   6.092   1.268  1.5445 -1.3975 -1.7634
    5MOL   H356 1964   5.041   6.008   1.388  0.5737 -0.7924 -0.5969
    5MOL   H357 1965   4.931   5.917   1.282 -1.4106  0.0681  0.6620
    5MOL   H358 1966   4.990   5.802   1.497 -1.1051  0.2542 -0.9518
    5MOL   H359 1967   4.938   5.656   1.688 -0.1228  1.2263  0.8614
    5MOL   H360 1968   4.771   5.588   2.052 -0.2206  0.9430  1.1554
    5MOL   H361 1969   4.903   5.594   1.932  0.7938  0.7491 -0.2783
    5MOL   C362 1970   4.867   5.778   2.016  0.6370  0.6783 -0.2461
    5MOL   C363 1971   5.014   5.791   1.995  0.0563  0.0011  0.2584
    5MOL   C364 1972   5.104   5.708   2.057  0.4446 -0.3266  0.4219
    5MOL   C365 1973   5.245   5.726   2.042  0.5156  0.4394  0.7123
    5MOL   C366 1974   5.294   5.828   1.958  0.1571 -0.4078 -0.0834
    5MOL   O367 1975   5.426   5.859   1.959 -0.1299 -0.1247 -0.2429
    5MOL   C368 1976   5.465   5.997   1.942 -0.0867  0.5940  0.4415
    5MOL   C369 1977   5.204   5.901   1.882 -0.1353  0.0162  0.2858
    5MOL   C370 1978   5.066   5.885   1.909  0.4534 -0.8422 -0.5708
    5MOL   C371 1979   4.830   5.804   2.166 -0.3550 -0.5472  0.3933
    5MOL   H372 1980   4.815   5.852   1.955  0.4746  1.1348  0.4557
    5MOL   H373 1981   5.061   5.634   2.123  1.9017 -0.8570  0.7877
    5MOL   H374 1982   5.307   5.657   2.097 -0.4725 -1.5617 -0.6239
    5MOL   H375 1983   5.552   6.018   2.005  0.9173 -3.2853  0.4906
    5MOL   H376 1984   5.477   6.016   1.835  0.7064 -0.5024  0.3211
    5MOL   H377 1985   5.387   6.064   1.976 -0.5704 -0.2392  1.0033
    5MOL   H378 1986   5.244   5.973   1.813  0.1400 -0.7372 -0.3483
    5MOL   H379 1987   5.006   5.956   1.855 -0.7058  0.8510  2.8503
    5MOL   H380 1988   4.886   5.736   2.229  2.4081  0.3377 -1.0109
    5MOL   H381 1989   4.863   5.903   2.197 -1.6797 -0.1394  0.5683
    5MOL   C382 1990   4.680   5.794   2.203  0.8245 -0.4558  0.9358
    5MOL   C383 1991   4.618   5.930   2.256  0.0471  0.4162  0.3578
    5MOL   C384 1992   4.500   5.983   2.193 -0.7264  0.4382 -0.3616
    5MOL   C385 1993   4.440   6.095   2.252  0.2650 -0.1434  0.5241
    5MOL   C386 1994   4.505   6.164   2.356 -0.0140  0.4140  0.5951
    5MOL   O387 1995   4.453   6.284   2.410  0.4936 -0.0806  0.1158
    5MOL   C388 1996   4.327   6.332   2.360  0.3738 -0.1675  0.0694
    5MOL   C389 1997   4.623   6.117   2.415  0.4682  0.2976 -0.2716
    5MOL   C390 1998   4.677   5.994   2.367  0.1449 -0.1725  0.0553
    5MOL   C391 1999   4.655   5.692   2.323  0.5599  0.1887 -0.4592
    5MOL   H392 2000   4.613   5.770   2.119  2.3298 -1.7597  0.0827
    5MOL   H393 2001   4.452   5.934   2.109  0.8391 -1.2365 -0.3148
    5MOL   H394 2002   4.342   6.119   2.213  0.9975  1.0835 -0.6350
    5MOL   H395 2003   4.246   6.262   2.379  0.4166 -0.1652  0.2707
    5MOL   H396 2004   4.327   6.370   2.258 -1.3463  1.6126  0.7043
    5MOL   H397 2005   4.307   6.427   2.411 -1.6316  1.4425 -3.5170
    5MOL   H398 2006   4.669   6.175   2.493  0.5939 -0.2002  0.0301
    5MOL   H399 2007   4.764   5.943   2.406 -0.0047 -1.3484 -1.1135
    5MOL   H400 2008   4.732   5.700   2.399  0.5735 -0.4173 -0.4059
    5MOL   H401 2009   4.677   5.599   2.270  0.0233 -0.0517 -0.2685
    5MOL   H402 2010   4.554   5.692   2.364 -0.0381  0.0035 -1.8890
    6MOL     C1 2011   7.097   0.019   7.993  0.1279  0.1622  0.2403
    6MOL     C2 2012   6.955   0.024   7.953 -0.3219  0.5168  0.4892
    6MOL     C3 2013   6.887   7.947   7.913 -0.2718 -0.2742  0.0008
    6MOL     C4 2014   6.752   7.950   7.878 -0.3250  0.2159  0.3756
    6MOL     C5 2015   6.681   0.027   7.896  0.3364 -0.0049  0.0515
    6MOL     O6 2016   6.549   0.017   7.852  0.1295 -0.3385 -0.2640
    6MOL     C7 2017   6.467   0.133   7.859 -0.7377 -0.6938 -0.1482
    6MOL     C8 2018   6.742   0.136   7.957  0.4272 -0.0977  0.6507
    6MOL     C9 2019   6.873   0.133   7.990 -0.3035  0.0992  0.5089
    6MOL    C10 2020   7.118   0.035   0.108  0.6702 -0.5670 -0.4951
    6MOL    H11 2021   7.160   0.089   7.937 -1.8086  0.9961 -0.9525
    6MOL    H12 2022   6.940   7.853   7.908 -0.1727 -0.1405 -1.7216
    6MOL    H13 2023   6.710   7.861   7.833  1.3190 -0.0743 -0.6280
    6MOL    H14 2024   6.371   0.110   7.813 -1.1663  0.2141  0.2830
    6MOL    H15 2025   6.463   0.173   7.960  2.0079  1.5204 -0.8396
    6MOL    H16 2026   6.517   0.207   7.796 -1.2472  1.8428  2.3241
    6MOL    H17 2027   6.689   0.228   7.977 -0.7290 -0.8837  1.2764
    6MOL    H18 2028   6.924   0.220   8.030 -1.6564  2.2554 -2.2649
    6MOL    H19 2029   7.114   0.143   0.120 -1.0975 -0.8918  2.5340
    6MOL    H20 2030   7.036   8.037   0.169  0.3666  0.4873 -0.2394
    6MOL    H21 2031   7.129   7.955   7.980  0.4376  0.3725 -0.6983
    6MOL    C22 2032   7.257   8.022   0.171 -0.5168 -0.3393 -0.3373
    6MOL    C23 2033   7.378   8.028   0.071 -0.8998 -0.1067 -0.4777
    6MOL    C24 2034   7.468   0.100   0.056  0.0029 -0.1194  0.0698
    6MOL    C25 2035   7.564   0.101   7.991 -0.3861 -0.7376 -0.1008
    6MOL    C26 2036   7.578   8.035   7.907  0.0505 -0.4232  0.3983
    6MOL    O27 2037   7.682   8.039   7.820  0.0112  0.5263  0.0316
    6MOL    C28 2038   7.689   7.949   7.707 -0.7695  0.2332  0.1870
    6MOL    C29 2039   7.487   7.932   7.910 -0.2172 -0.0157 -0.2302
    6MOL    C30 2040   7.393   7.925   8.016  0.0028 -0.5003 -0.2804
    6MOL    C31 2041   7.289   0.036   0.313 -0.1349 -0.7267  0.0235
    6MOL    H32 2042   7.247   7.914   0.177  1.4946 -0.4491  1.6913
    6MOL    H33 2043   7.474   0.185   0.122  0.0003 -0.8463  1.0227
    6MOL    H34 2044   7.639   0.179   7.993 -0.2168 -0.9035 -0.0565
    6MOL    H35 2045   7.696   7.845   7.739  0.6387  0.1482 -0.3516
    6MOL    H36 2046   7.781   7.969   7.651 -0.1987 -0.0143  1.0274
    6MOL    H37 2047   7.606   7.951   7.637 -0.0027  2.0769 -0.6917
    6MOL    H38 2048   7.498   7.849   7.842 -0.0047 -0.4089  0.2809
    6MOL    H39 2049   7.326   7.841   8.008 -0.0586 -0.3492 -1.3720
    6MOL    H40 2050   7.335   0.134   0.304 -2.7334  0.4494 -0.6873
    6MOL    H41 2051   7.191   0.065   0.352  0.3784  2.4716 -0.9571
    6MOL    C42 2052   7.379   7.978   0.399  0.2931 -0.6583 -0.3534
    6MOL    C43 2053   7.325   7.840   0.434  0.5632  0.0761  0.1492
    6MOL    C44 2054   7.189   7.811   0.457  0.3857 -0.1588 -0.3820
    6MOL    C45 2055   7.148   7.684   0.499 -0.1434 -0.4037  0.2673
    6MOL    C46 2056   7.231   7.572   0.476  0.3297 -0.1980 -0.1874
    6MOL    O47 2057   7.185   7.443   0.496 -0.1075 -0.4527  0.1212
    6MOL    C48 2058   7.280   7.333   0.506 -0.2901  0.5238 -0.0619
    6MOL    C49 2059   7.364   7.599   0.450  0.2726 -0.6245 -0.8712
    6MOL    C50 2060   7.413   7.727   0.430 -0.0393 -0.8288  0.1669
    6MOL    C51 2061   7.443   8.037   0.525 -0.0057  0.2656 -0.7546
    6MOL    H52 2062   7.454   7.945   0.326  1.0761  0.7753 -0.2153
    6MOL    H53 2063   7.129   7.899   0.473  1.2161  0.6305 -1.5091
    6MOL    H54 2064   7.051   7.674   0.546 -0.0756 -0.4719  0.3917
    6MOL    H55 2065   7.309   7.311   0.608 -0.0182 -0.1984 -0.2924
    6MOL    H56 2066   7.231   7.237   0.491 -1.4812  1.0705  0.2368
    6MOL    H57 2067   7.365   7.334   0.437 -1.7960  0.8410 -1.9735
    6MOL    H58 2068   7.441   7.523   0.443 -0.6317 -1.5875 -0.5448
    6MOL    H59 2069   7.517   7.746   0.406 -0.0934 -0.1271  0.4848
    6MOL    H60 2070   7.474   7.960   0.595  1.0417  1.1652 -0.2165
    6MOL    H61 2071   7.362   0.050   0.574  0.2321  0.9937 -1.1394
    6MOL    C62 2072   7.563   0.093   0.498  0.4862 -0.5327 -0.0868
    6MOL    C63 2073   7.677   0.022   0.423 -0.1096 -0.2016 -0.1819
    6MOL    C64 2074   7.753   7.955   0.477  0.3966  0.6503  0.3074
    6MOL    C65 2075   7.841   7.886   0.393  0.7026  0.4717  0.2907
    6MOL    C66 2076   7.857   7.914   0.258  0.2793  0.2518  0.4455
    6MOL    O67 2077   7.926   7.828   0.166 -0.3770  0.5509  0.7890
    6MOL    C68 2078   7.991   7.712   0.222  0.2502  0.0230  0.1923
    6MOL    C69 2079   7.787   8.027   0.205  0.8171 -0.0209  0.3254
    6MOL    C70 2080   7.696   0.055   0.286 -0.1273  0.1045 -0.3335
    6MOL    C71 2081   7.624   0.159   0.626 -0.3658 -0.2085 -1.2240
    6MOL    H72 2082   7.527   0.171   0.431 -2.0698 -2.2203 -0.7139
    6MOL    H73 2083   7.744   7.921   0.579 -1.7896  0.6267  0.1228
    6MOL    H74 2084   7.897   7.804   0.434  2.2184  0.2568 -2.1312
    6MOL    H75 2085   7.924   7.652   0.284  0.3964 -1.0433 -0.6598
    6MOL    H76 2086   0.036   7.750   0.277 -0.7166  0.1018  1.6591
    6MOL    H77 2087   8.018   7.657   0.132  1.4026  1.9515 -0.6636
    6MOL    H78 2088   7.799   0.010   0.100 -0.4951  2.6913  0.7171
    6MOL    H79 2089   7.639   0.135   0.241 -2.3343  0.2735  2.6511
    6MOL    H80 2090   7.549   0.194   0.697 -2.0419 -1.9232 -2.0969
    6MOL    H81 2091   7.684   0.091   0.686 -1.0006 -0.3319 -0.7117
    6MOL    C82 2092   7.720   0.276   0.589  0.6333  0.3462 -0.6218
    6MOL    C83 2093   7.670   0.387   0.505  0.6005 -0.3613  0.7949
    6MOL    C84 2094   7.546   0.447   0.518 -0.1769  0.0321  0.0274
    6MOL    C85 2095   7.518   0.566   0.451 -0.6328  0.2085  0.1116
    6MOL    C86 2096   7.621   0.638   0.377 -0.6739 -0.3591 -0.5110
    6MOL    O87 2097   7.577   0.750   0.317 -0.8916 -0.7836  0.5403
    6MOL    C88 2098   7.649   0.798   0.194  0.7689  0.3028  0.0816
    6MOL    C89 2099   7.748   0.576   0.370 -0.2951 -0.1644  0.0752
    6MOL    C90 2100   7.771   0.450   0.433 -0.1443  0.4733 -0.5524
    6MOL    C91 2101   7.791   0.326   0.715 -0.2651  0.1061  0.6109
    6MOL    H92 2102   7.797   0.242   0.521  1.4334  0.7113  0.0940
    6MOL    H93 2103   7.463   0.411   0.576 -0.3666 -0.4083 -0.5167
    6MOL    H94 2104   7.420   0.611   0.451 -0.1875  1.1909  0.5009
    6MOL    H95 2105   7.595   0.877   0.141 -1.6633 -0.3694  1.4801
    6MOL    H96 2106   7.670   0.711   0.133 -2.1295 -0.2038 -0.2807
    6MOL    H97 2107   7.742   0.833   0.239  0.5664 -0.1425  0.8626
    6MOL    H98 2108   7.837   0.627   0.336 -1.5951  1.4187 -1.0519
    6MOL    H99 2109   7.873   0.415   0.443 -1.0220 -1.8498  0.9182
    6MOL   H100 2110   7.822   0.429   0.698 -0.9190  0.3329  0.7808
    6MOL   H101 2111   7.714   0.337   0.791 -1.8332 -0.9513 -0.7615
    6MOL   C102 2112   7.925   0.246   0.744 -0.1908  0.0816 -0.3148
    6MOL   C103 2113   8.021   0.269   0.623 -0.0613  0.1434  0.3066
    6MOL   C104 2114   0.036   0.397   0.600  0.5491  0.4676  0.6580
    6MOL   C105 2115   0.132   0.416   0.496 -0.2960  0.7085 -0.7546
    6MOL   C106 2116   0.162   0.315   0.403  0.3093 -0.0773  0.1646
    6MOL   O107 2117   0.250   0.345   0.304  0.2632  0.5418  0.7717
    6MOL   C108 2118   0.294   0.244   0.221 -1.0815  0.3970  0.4976
    6MOL   C109 2119   0.097   0.189   0.425 -0.2310  0.6789  0.6932
    6MOL   C110 2120   0.014   0.166   0.533  0.1507 -0.4170 -0.2723
    6MOL   C111 2121   7.985   0.294   0.880 -0.0558 -0.3473 -0.2149
    6MOL   H112 2122   7.895   0.141   0.749 -1.6557  0.4358 -1.1276
    6MOL   H113 2123   0.011   0.479   0.665 -0.6426  2.4431 -2.1547
    6MOL   H114 2124   0.174   0.514   0.479 -2.2105  1.3890 -1.7238
    6MOL   H115 2125   0.347   0.164   0.273 -0.6106  0.4611  0.1141
    6MOL   H116 2126   0.213   0.189   0.174 -0.5877 -0.7790  1.0057
    6MOL   H117 2127   0.352   0.278   0.136 -0.7750  4.2611  2.1342
    6MOL   H118 2128   0.124   0.113   0.353 -1.6198 -1.0410  1.9524
    6MOL   H119 2129   8.003   0.071   0.534  1.0812 -0.9540 -2.0831
    6MOL   H120 2130   0.044   0.253   0.897  0.2776 -0.1281 -1.5986
    6MOL   H121 2131   8.011   0.400   0.884  0.4026 -0.4479 -0.5127
    6MOL   C122 2132   7.904   0.240   1.008 -0.1195  0.7934 -0.1616
    6MOL   C123 2133   7.761   0.286   1.020 -0.1192  0.1818 -0.1303
    6MOL   C124 2134   7.745   0.422   1.046 -0.2811  0.0150  0.4814
    6MOL   C125 2135   7.615   0.476   1.025 -0.4399  0.3297  0.3983
    6MOL   C126 2136   7.503   0.392   1.006  0.1721  0.7890 -0.2636
    6MOL   O127 2137   7.383   0.453   0.990  0.3551  0.1416  0.3038
    6MOL   C128 2138   7.266   0.372   0.996  0.4134  0.4367  0.0001
    6MOL   C129 2139   7.521   0.249   1.005 -0.0956  0.0187  0.3762
    6MOL   C130 2140   7.651   0.196   1.000  0.0415 -0.8561 -0.6072
    6MOL   C131 2141   7.977   0.258   1.145  0.2126  0.1576  0.9602
    6MOL   H132 2142   7.901   0.131   0.999  1.5379  0.8043 -0.9801
    6MOL   H133 2143   7.824   0.492   1.070 -0.8380  0.3801  1.3188
    6MOL   H134 2144   7.602   0.583   1.023 -0.4331  0.3587  1.6938
    6MOL   H135 2145   7.188   0.444   0.971 -0.2140 -0.5127 -0.8400
    6MOL   H136 2146   7.266   0.283   0.933 -2.5691  0.4322 -0.0857
    6MOL   H137 2147   7.252   0.334   1.097  0.0615  1.3211  0.2811
    6MOL   H138 2148   7.436   0.185   0.986  0.0616  0.5012 -2.1529
    6MOL   H139 2149   7.663   0.090   0.987  0.6806 -1.0431  1.3660
    6MOL   H140 2150   7.903   0.228   1.219  0.0904 -1.2359  0.3009
    6MOL   H141 2151   7.991   0.365   1.158  1.0470  0.1011  0.5752
    6MOL   C142 2152   0.074   0.191   1.176 -0.4369  0.0891  0.4979
    6MOL   C143 2153   0.112   0.227   1.316  0.0685  0.0731  0.2169
    6MOL   C144 2154   0.038   0.188   1.431 -0.6098 -0.0117  0.0952
    6MOL   C145 2155   0.079   0.223   1.560 -0.3992  0.5666  0.0742
    6MOL   C146 2156   0.202   0.286   1.578 -0.0306  0.7414  0.1134
    6MOL   O147 2157   0.245   0.307   1.710  0.8503 -0.0058 -0.4674
    6MOL   C148 2158   0.347   0.398   1.733  0.0531 -0.1303 -0.2041
    6MOL   C149 2159   0.278   0.323   1.465  0.8943  0.0914  0.5952
    6MOL   C150 2160   0.234   0.297   1.335  0.2191 -0.1085 -0.2847
    6MOL   C151 2161   0.062   0.029   1.158  1.1424 -0.2408  0.6077
    6MOL   H152 2162   0.143   0.234   1.102 -1.6736  0.6473 -0.3501
    6MOL   H153 2163   7.981   0.141   1.421 -0.6591  0.0162  0.4192
    6MOL   H154 2164   0.017   0.208   1.647  2.1325  1.7410  2.1194
    6MOL   H155 2165   0.350   0.429   1.838  1.4461 -0.7296 -0.0516
    6MOL   H156 2166   0.446   0.357   1.712  0.1259 -0.5050  0.8227
    6MOL   H157 2167   0.328   0.491   1.680 -0.5748 -0.3098 -0.2928
    6MOL   H158 2168   0.373   0.370   1.487 -0.3670  2.4922  1.1476
    6MOL   H159 2169   0.294   0.335   1.253 -0.4115 -0.4426 -0.9036
    6MOL   H160 2170   0.036   0.010   1.054 -0.7200  2.3701  0.5581
    6MOL   H161 2171   8.019   8.030   1.217  1.0307 -1.3501 -0.2520
    6MOL   C162 2172   0.190   7.993   1.180 -0.1992  0.0846  0.3522
    6MOL   C163 2173   0.308   0.017   1.103 -0.5648 -0.3094  0.1995
    6MOL   C164 2174   0.306   0.036   0.961  0.5680 -0.6467  0.2853
    6MOL   C165 2175   0.408   0.100   0.891  0.2281  0.1613  0.1845
    6MOL   C166 2176   0.521   0.151   0.961  0.9303  0.1042 -0.4445
    6MOL   O167 2177   0.626   0.188   0.886  0.3891 -0.4369 -0.4047
    6MOL   C168 2178   0.721   0.277   0.937  0.3643  0.0048 -0.0428
    6MOL   C169 2179   0.522   0.143   1.100  0.2873 -0.3095  0.0687
    6MOL   C170 2180   0.418   0.074   1.167 -0.0242 -0.2772 -1.1153
    6MOL   C171 2181   0.178   7.842   1.168 -0.9003  0.1257  0.8063
    6MOL   H172 2182   0.222   8.006   1.283  0.3148  0.1650  0.1803
    6MOL   H173 2183   0.226   8.036   0.900  0.0215 -0.7508  1.0620
    6MOL   H174 2184   0.408   0.095   0.783  1.3230  0.2470  0.1714
    6MOL   H175 2185   0.746   0.274   1.043 -1.7015 -1.9828  0.4334
    6MOL   H176 2186   0.705   0.375   0.893  0.5671  0.5871  1.1515
    6MOL   H177 2187   0.818   0.253   0.893  0.0664  0.2554 -0.8506
    6MOL   H178 2188   0.596   0.186   1.165  0.5259 -0.0774 -0.3533
    6MOL   H179 2189   0.417   0.084   1.274 -2.2594  1.3213 -1.2392
    6MOL   H180 2190   0.113   7.824   1.081  2.4180 -0.9827 -1.5215
    6MOL   H181 2191   0.128   7.796   1.253 -0.6822 -3.5595 -0.9480
    6MOL   C182 2192   0.310   7.767   1.139  0.4156  0.3015 -0.6122
    6MOL   C183 2193   0.279   7.622   1.105 -0.4507  0.9391 -0.3282
    6MOL   C184 2194   0.287   7.580   0.973 -0.0129 -0.4928 -0.7142
    6MOL   C185 2195   0.253   7.446   0.940 -0.2957 -0.1956  0.2694
    6MOL   C186 2196   0.194   7.360   1.031  1.0888  0.3300 -1.0101
    6MOL   O187 2197   0.163   7.229   1.000 -0.2809  0.3369 -0.0342
    6MOL   C188 2198   0.229   7.172   0.888 -0.6257  0.0475 -0.5024
    6MOL   C189 2199   0.177   7.403   1.165 -0.3711  0.0448 -0.7247
    6MOL   C190 2200   0.219   7.536   1.198  0.2857  0.4065  0.2593
    6MOL   C191 2201   0.413   7.774   1.257 -0.2355  0.0671  0.4738
    6MOL   H192 2202   0.355   7.815   1.052 -0.2605 -1.7013 -2.1155
    6MOL   H193 2203   0.329   7.644   0.897  0.1882 -1.1955 -1.1987
    6MOL   H194 2204   0.264   7.428   0.834 -1.2748  1.9494 -0.2234
    6MOL   H195 2205   0.217   7.235   0.800  0.4750 -0.9652 -1.4087
    6MOL   H196 2206   0.172   7.081   0.867 -1.0848 -0.2405  1.8291
    6MOL   H197 2207   0.335   7.155   0.910  0.0052  2.1995 -1.6940
    6MOL   H198 2208   0.133   7.343   1.243  0.7433 -0.5141 -0.5120
    6MOL   H199 2209   0.203   7.555   1.303  0.2711 -0.6956  0.4709
    6MOL   H200 2210   0.424   7.876   1.294  1.9978  0.4639 -1.2073
    6MOL   H201 2211   0.369   7.720   1.341 -3.5981 -1.2655 -2.0027
    6MOL   C202 2212   0.550   7.704   1.223  0.0278 -0.7014  0.3114
    6MOL   C203 2213   0.626   7.662   1.344 -0.2119  0.1419  0.0489
    6MOL   C204 2214   0.635   7.527   1.382 -0.2603  0.3983 -0.1471
    6MOL   C205 2215   0.711   7.490   1.495 -0.2254  0.4871  0.1749
    6MOL   C206 2216   0.784   7.590   1.570  0.5513 -0.3667 -0.0534
    6MOL   O207 2217   0.876   7.563   1.669 -0.1381 -0.0679 -0.3059
    6MOL   C208 2218   0.903   7.423   1.691 -0.5319  0.2907  0.0552
    6MOL   C209 2219   0.759   7.724   1.545 -0.1328  0.3057 -0.3286
    6MOL   C210 2220   0.677   7.762   1.434  0.1724 -0.0571 -0.5742
    6MOL   C211 2221   0.633   7.779   1.119  0.1625 -0.6454  0.1632
    6MOL   H212 2222   0.529   7.609   1.173 -0.8435  0.1372 -0.9576
    6MOL   H213 2223   0.573   7.459   1.325 -0.7982 -0.3116  1.2686
    6MOL   H214 2224   0.720   7.385   1.520 -2.3378  0.2355 -0.0361
    6MOL   H215 2225   0.901   7.365   1.598 -1.5671  3.3118 -1.9107
    6MOL   H216 2226   1.000   7.422   1.739  0.8254 -1.0932 -2.6001
    6MOL   H217 2227   0.830   7.374   1.756 -1.7715 -0.9575 -2.2001
    6MOL   H218 2228   0.821   7.793   1.600 -0.5716 -0.0903  0.6703
    6MOL   H219 2229   0.672   7.865   1.403 -1.8173  0.3535  0.9902
    6MOL   H220 2230   0.650   7.877   1.165 -0.1594 -0.7188  0.4467
    6MOL   H221 2231   0.573   7.795   1.030 -0.0915  0.1446  0.4718
    6MOL   C222 2232   0.777   7.715   1.081  0.3184  1.0043  0.3178
    6MOL   C223 2233   0.745   7.584   1.007  0.3418 -0.1530  0.1206
    6MOL   C224 2234   0.668   7.585   0.896  0.1590 -0.0920  0.5968
    6MOL   C225 2235   0.642   7.469   0.821 -0.1142  0.0006 -0.3398
    6MOL   C226 2236   0.702   7.345   0.856 -0.4268 -0.0946  0.5000
    6MOL   O227 2237   0.680   7.236   0.774 -0.2729 -0.3684 -0.9268
    6MOL   C228 2238   0.768   7.133   0.792 -0.2343  0.6543 -0.6376
    6MOL   C229 2239   0.779   7.341   0.978  0.0792 -0.3303  0.6406
    6MOL   C230 2240   0.799   7.460   1.053 -0.0850  0.0497  1.0794
    6MOL   C231 2241   0.871   7.801   0.994 -0.0954 -0.2800  0.7599
    6MOL   H232 2242   0.816   7.689   1.179 -0.1591  0.5886  0.4010
    6MOL   H233 2243   0.651   7.683   0.854  1.9639  0.4446  1.0690
    6MOL   H234 2244   0.601   7.479   0.722 -1.1619  0.9076  0.1726
    6MOL   H235 2245   0.870   7.165   0.768 -0.3770  0.4214 -1.5796
    6MOL   H236 2246   0.768   7.091   0.892 -0.6556  0.6899 -0.6195
    6MOL   H237 2247   0.733   7.056   0.723  0.8517 -2.1284  1.8077
    6MOL   H238 2248   0.818   7.250   1.020  2.5591  0.3339 -0.1218
    6MOL   H239 2249   0.862   7.456   1.141  0.7528 -0.0546  0.4780
    6MOL   H240 2250   0.822   7.806   0.897 -1.7294 -0.1304  1.5833
    6MOL   H241 2251   0.853   7.906   1.018  0.5179 -0.1177  0.5239
    6MOL   C242 2252   1.022   7.754   0.987  0.2329 -0.2495 -0.6069
    6MOL   C243 2253   1.108   7.832   0.892  0.8423  0.1822  0.5242
    6MOL   C244 2254   1.177   7.764   0.792  0.0145 -0.7860 -0.0114
    6MOL   C245 2255   1.253   7.834   0.695  0.2906  0.4479  0.0406
    6MOL   C246 2256   1.263   7.973   0.702 -0.1063  0.3502  1.1142
    6MOL   O247 2257   1.354   8.035   0.613 -0.2672 -0.3006  0.2747
    6MOL   C248 2258   1.355   0.136   0.601  0.1551  0.1226  0.1310
    6MOL   C249 2259   1.199   0.001   0.808 -0.3283 -0.5091 -0.1891
    6MOL   C250 2260   1.123   7.972   0.903  0.4532  0.1775 -0.4873
    6MOL   C251 2261   1.086   7.733   1.133 -0.6687 -0.6440  0.6244
    6MOL   H252 2262   1.029   7.650   0.958  0.2802  0.0752 -1.7780
    6MOL   H253 2263   1.175   7.656   0.786  1.6615 -0.7381 -2.4600
    6MOL   H254 2264   1.298   7.783   0.612 -0.3917 -2.2221  1.2343
    6MOL   H255 2265   1.400   0.187   0.686  0.7028  0.9304 -0.6447
    6MOL   H256 2266   1.411   0.167   0.513  0.5684 -1.2541 -0.0964
    6MOL   H257 2267   1.252   0.172   0.588  0.2646  0.4004  0.0319
    6MOL   H258 2268   1.213   0.108   0.813  2.1987 -0.7789 -0.8205
    6MOL   H259 2269   1.076   8.035   0.976  1.8517  0.5082  0.1438
    6MOL   H260 2270   1.177   7.676   1.113 -1.6622 -1.3854 -2.0480
    6MOL   H261 2271   1.037   7.666   1.203  0.0891 -0.7362  1.0750
    6MOL   C262 2272   1.132   7.855   1.213 -0.7934  0.6303  0.1831
    6MOL   C263 2273   1.246   7.832   1.316  0.3151 -0.3442 -0.0339
    6MOL   C264 2274   1.221   7.751   1.429 -0.0457  1.0565  0.2543
    6MOL   C265 2275   1.322   7.728   1.525  0.1976 -0.0009 -0.3756
    6MOL   C266 2276   1.452   7.789   1.518  0.2952  0.5651 -0.6185
    6MOL   O267 2277   1.561   7.770   1.599  0.1007  0.2833 -0.4552
    6MOL   C268 2278   1.558   7.665   1.692  0.1074 -0.7523 -0.0910
    6MOL   C269 2279   1.478   7.866   1.401  0.3350  0.0731 -0.2123
    6MOL   C270 2280   1.372   7.891   1.304  0.8106 -0.1798 -1.1223
    6MOL   C271 2281   1.011   7.922   1.288 -0.0785  0.0577 -0.0424
    6MOL   H272 2282   1.174   7.923   1.139  0.2781  0.1353  0.3243
    6MOL   H273 2283   1.129   7.695   1.437  0.5811 -0.0279  0.0407
    6MOL   H274 2284   1.296   7.653   1.598 -0.7854  0.5419 -0.1518
    6MOL   H275 2285   1.659   7.624   1.705  0.9382  1.3373  0.3273
    6MOL   H276 2286   1.504   7.582   1.648 -2.2801  0.4341  0.5606
    6MOL   H277 2287   1.517   7.701   1.786 -1.1068  0.9155 -1.2323
    6MOL   H278 2288   1.572   7.919   1.395 -0.1631  0.7055 -2.6275
    6MOL   H279 2289   1.391   7.959   1.222  1.1578  1.5885  0.3903
    6MOL   H280 2290   0.915   7.921   1.236 -0.5696 -1.8765  0.8551
    6MOL   H281 2291   0.989   7.864   1.378  2.0143  3.3069  2.6998
    6MOL   C282 2292   1.042   0.021   1.345  0.0264  0.2789  0.0455
    6MOL   C283 2293   0.923   0.056   1.432  0.2010  0.4478 -0.6061
    6MOL   C284 2294   0.804   0.099   1.382  0.2854 -0.5741 -0.0071
    6MOL   C285 2295   0.692   0.123   1.465 -0.0743 -0.3116 -0.2019
    6MOL   C286 2296   0.703   0.097   1.606 -1.0786 -0.2236 -0.6051
    6MOL   O287 2297   0.591   0.101   1.681 -0.3041 -0.3335 -0.0374
    6MOL   C288 2298   0.603   0.061   1.816 -0.5738 -0.2705 -0.6657
    6MOL   C289 2299   0.833   0.066   1.662  0.3781 -0.2701  0.2427
    6MOL   C290 2300   0.939   0.049   1.572 -0.5390  0.1827 -0.4730
    6MOL   C291 2301   1.088   0.131   1.250 -0.4876 -0.0008 -0.4296
    6MOL   H292 2302   1.122   0.006   1.418  0.2214 -0.0104 -0.2261
    6MOL   H293 2303   0.794   0.103   1.274 -1.9042  0.3802  0.1867
    6MOL   H294 2304   0.595   0.145   1.425 -1.2729 -2.4835  1.3874
    6MOL   H295 2305   0.626   7.994   1.825  1.6893  0.1949 -0.5429
    6MOL   H296 2306   0.668   0.116   1.884 -0.8633 -0.1146 -0.5131
    6MOL   H297 2307   0.501   0.081   1.850 -0.4136  1.3139 -1.0874
    6MOL   H298 2308   0.850   0.056   1.769  0.8829 -1.4937  0.0518
    6MOL   H299 2309   1.037   0.020   1.608 -1.1865 -2.0356 -0.4220
    6MOL   H300 2310   1.149   0.091   1.169  0.6378  0.7257  0.0368
    6MOL   H301 2311   1.011   0.171   1.185  0.8519 -0.1852 -2.1684
    6MOL   C302 2312   1.170   0.246   1.313 -0.2727  0.1186  0.4063
    6MOL   C303 2313   1.263   0.299   1.200  0.5391  0.2862  0.0591
    6MOL   C304 2314   1.213   0.386   1.102 -0.2865 -0.2511 -0.4780
    6MOL   C305 2315   1.294   0.457   1.012  1.0521 -0.0625  0.1965
    6MOL   C306 2316   1.429   0.414   1.008 -0.1094 -0.2494  0.3978
    6MOL   O307 2317   1.511   0.465   0.914  0.5558  0.0135  0.1215
    6MOL   C308 2318   1.637   0.512   0.967 -0.7592  0.1319  0.2617
    6MOL   C309 2319   1.482   0.316   1.100  0.0561 -0.9970  0.1984
    6MOL   C310 2320   1.400   0.264   1.204 -1.0006  1.2256  0.8973
    6MOL   C311 2321   1.080   0.356   1.376 -0.0182  0.5704  0.1325
    6MOL   H312 2322   1.224   0.200   1.395 -1.0991  0.6022  1.2257
    6MOL   H313 2323   1.106   0.400   1.106 -0.0036  2.1615 -0.7286
    6MOL   H314 2324   1.257   0.530   0.941  0.0288 -1.3704 -0.6359
    6MOL   H315 2325   1.709   0.430   0.964 -0.3483  0.4793  0.5002
    6MOL   H316 2326   1.647   0.558   1.065  2.0976 -0.9805  0.5376
    6MOL   H317 2327   1.668   0.581   0.888 -1.3091 -0.5031 -0.5281
    6MOL   H318 2328   1.584   0.282   1.102  0.5454  0.4698  0.8554
    6MOL   H319 2329   1.451   0.203   1.277  2.4822  1.5447 -1.1407
    6MOL   H320 2330   1.032   0.315   1.466  0.2329  2.9419  1.3934
    6MOL   H321 2331   1.002   0.383   1.304  0.7882 -2.3296 -1.9007
    6MOL   C322 2332   1.145   0.482   1.423  0.5784 -0.2028  0.3009
    6MOL   C323 2333   1.215   0.473   1.563 -0.2522 -0.3612  0.6466
    6MOL   C324 2334   1.138   0.470   1.678 -0.7932  0.0891 -0.3404
    6MOL   C325 2335   1.197   0.472   1.809  0.2420 -0.0903 -0.6520
    6MOL   C326 2336   1.332   0.469   1.822 -0.0028 -0.2791  0.2326
    6MOL   O327 2337   1.387   0.494   1.947  0.4530 -0.0460  0.0629
    6MOL   C328 2338   1.528   0.463   1.961 -0.0089  0.2225  0.3100
    6MOL   C329 2339   1.417   0.461   1.707 -0.3220 -0.1330 -0.0347
    6MOL   C330 2340   1.355   0.462   1.577  0.8448  0.1844 -0.4730
    6MOL   C331 2341   1.049   0.603   1.427 -0.4242 -0.6177  0.6313
    6MOL   H332 2342   1.215   0.516   1.348  1.4089 -0.0807  1.1192
    6MOL   H333 2343   1.031   0.456   1.675 -0.8665  0.3724  0.8988
    6MOL   H334 2344   1.139   0.467   1.900 -0.7038 -0.5447 -1.2706
    6MOL   H335 2345   1.558   0.487   2.063 -1.5012 -0.2763  0.8781
    6MOL   H336 2346   1.585   0.524   1.890 -1.3353 -0.1394 -1.0779
    6MOL   H337 2347   1.555   0.364   1.926 -3.0968 -0.3880 -0.4858
    6MOL   H338 2348   1.524   0.474   1.696 -0.3462  0.5198  0.4444
    6MOL   H339 2349   1.407   0.460   1.483 -0.7249  1.2269 -1.3713
    6MOL   H340 2350   0.946   0.568   1.430 -0.5096 -0.5138 -0.6303
    6MOL   H341 2351   1.059   0.662   1.518  0.2324  0.7350 -0.3011
    6MOL   C342 2352   1.066   0.704   1.307 -0.8542  0.1166 -0.4373
    6MOL   C343 2353   1.185   0.808   1.316 -0.1329  0.0125  0.0660
    6MOL   C344 2354   1.275   0.822   1.212  0.2683  0.1183  0.1113
    6MOL   C345 2355   1.384   0.907   1.226 -0.3369 -0.8487  0.1244
    6MOL   C346 2356   1.397   0.996   1.339 -0.2432  0.3458 -0.3302
    6MOL   O347 2357   1.500   1.090   1.350  0.1031  0.1138  0.0216
    6MOL   C348 2358   1.550   1.143   1.225 -0.9959 -0.0952  0.3692
    6MOL   C349 2359   1.300   0.989   1.444  0.7073 -0.4548  0.0879
    6MOL   C350 2360   1.197   0.894   1.433 -0.4525  0.5503  0.6837
    6MOL   C351 2361   0.929   0.775   1.284  0.1298  0.3107 -0.5316
    6MOL   H352 2362   1.086   0.651   1.214 -2.8915  1.7057 -1.8229
    6MOL   H353 2363   1.270   0.763   1.121 -0.6850  0.2552  0.0705
    6MOL   H354 2364   1.462   0.901   1.151 -0.9204 -0.1385 -0.5397
    6MOL   H355 2365   1.644   1.093   1.203 -0.3045  0.9128  1.0178
    6MOL   H356 2366   1.485   1.127   1.139 -0.1234  3.1789 -0.9663
    6MOL   H357 2367   1.565   1.249   1.240  0.1306  0.0954 -1.8897
    6MOL   H358 2368   1.301   1.052   1.531 -0.9643  1.1365 -1.0112
    6MOL   H359 2369   1.131   0.884   1.518 -0.7975 -0.8799  0.2467
    6MOL   H360 2370   0.874   0.785   1.378 -0.1284  0.9443 -0.7439
    6MOL   H361 2371   0.945   0.877   1.250  0.4605  0.0032 -1.2933
    6MOL   C362 2372   0.832   0.693   1.192 -0.5106  0.1869 -0.1595
    6MOL   C363 2373   0.900   0.678   1.053  0.5965  0.4071 -0.4630
    6MOL   C364 2374   0.912   0.792   0.976 -0.2423 -0.0049  0.0462
    6MOL   C365 2375   0.967   0.780   0.843 -0.0065 -0.0192  0.6016
    6MOL   C366 2376   0.996   0.655   0.780 -0.1264  0.9747  0.0254
    6MOL   O367 2377   1.041   0.641   0.652 -0.4090  0.9211 -0.3989
    6MOL   C368 2378   1.055   0.753   0.561  0.2495  0.1265 -0.0893
    6MOL   C369 2379   0.966   0.537   0.855 -0.7871 -0.3420  0.2425
    6MOL   C370 2380   0.915   0.552   0.988  0.2713  0.1088  0.2464
    6MOL   C371 2381   0.689   0.740   1.183 -0.4155  0.3053 -0.1752
    6MOL   H372 2382   0.834   0.592   1.232 -1.8026  0.2467  0.0639
    6MOL   H373 2383   0.889   0.891   1.012  1.0764 -0.2361  1.5656
    6MOL   H374 2384   0.980   0.871   0.787 -0.0010  0.0510  0.7160
    6MOL   H375 2385   0.977   0.829   0.569  1.0617  0.9920 -0.2422
    6MOL   H376 2386   1.147   0.804   0.592  0.1390  0.2430  0.0488
    6MOL   H377 2387   1.066   0.716   0.459  1.3562 -2.6187  0.9702
    6MOL   H378 2388   0.984   0.438   0.817  2.2810  0.2066  0.1505
    6MOL   H379 2389   0.900   0.462   1.047 -0.1497  0.3081  0.4407
    6MOL   H380 2390   0.674   0.838   1.229 -1.9221  0.0369 -0.0526
    6MOL   H381 2391   0.651   0.762   1.083 -3.8607 -1.4806  0.6614
    6MOL   C382 2392   0.582   0.650   1.241 -0.4110  0.2148 -0.4385
    6MOL   C383 2393   0.622   0.603   1.384 -0.3338  0.1299 -0.2414
    6MOL   C384 2394   0.589   0.684   1.490  0.2824  0.5382  0.2512
    6MOL   C385 2395   0.627   0.645   1.622  0.1771  0.3284 -0.2932
    6MOL   C386 2396   0.703   0.531   1.650  0.1250  0.6811 -0.0775
    6MOL   O387 2397   0.737   0.504   1.782 -0.1003  0.0585 -0.1524
    6MOL   C388 2398   0.778   0.376   1.823  0.4296 -0.4487  0.3425
    6MOL   C389 2399   0.724   0.443   1.542 -0.0588 -0.0940  0.6647
    6MOL   C390 2400   0.667   0.469   1.417  0.8524  0.1330 -0.6111
    6MOL   C391 2401   0.551   0.527   1.139  0.1323 -0.2075 -0.2528
    6MOL   H392 2402   0.493   0.712   1.251 -0.8242 -0.1701 -1.6548
    6MOL   H393 2403   0.543   0.781   1.477 -1.2596 -0.1551  0.3854
    6MOL   H394 2404   0.617   0.717   1.702 -0.2284  0.9711 -0.9128
    6MOL   H395 2405   0.775   0.371   1.932  1.1294  1.9212  0.5048
    6MOL   H396 2406   0.869   0.337   1.777 -0.6273 -0.8930 -1.4075
    6MOL   H397 2407   0.690   0.320   1.795 -0.2312  1.0070 -0.5764
    6MOL   H398 2408   0.791   0.359   1.555  1.2361  1.0974  1.9729
    6MOL   H399 2409   0.686   0.401   1.336  0.2079  0.9734 -1.4829
    6MOL   H400 2410   0.467   0.463   1.167 -1.1943  1.1771 -0.9811
    6MOL   H401 2411   0.638   0.462   1.133 -0.5465 -1.0180 -1.5503
    6MOL   H402 2412   0.539   0.553   1.033  2.5468 -0.5358 -0.6235
    7MOL     C1 2413   5.318   5.050   4.969 -0.1899  0.5015 -0.0496
    7MOL     C2 2414   5.467   5.076   4.949  0.2499 -0.2180 -0.1745
    7MOL     C3 2415   5.529   5.185   5.017 -0.0841 -0.0727  0.0169
    7MOL     C4 2416   5.662   5.216   5.004  0.1859 -0.1417  0.3648
    7MOL     C5 2417   5.736   5.140   4.906 -0.1685  0.2858 -0.1807
    7MOL     O6 2418   5.870   5.154   4.887 -0.7884  0.8621  0.1281
    7MOL     C7 2419   5.927   5.268   4.937  0.4203 -0.3145  0.2394
    7MOL     C8 2420   5.672   5.038   4.824 -0.0383  0.1227 -0.1596
    7MOL     C9 2421   5.539   4.998   4.854  0.9108 -0.4492  0.2469
    7MOL    C10 2422   5.291   4.942   5.073 -0.8947  0.0111  0.2993
    7MOL    H11 2423   5.274   5.018   4.874 -0.2010  0.6542 -0.0951
    7MOL    H12 2424   5.478   5.238   5.096 -1.9219 -1.8935  0.0775
    7MOL    H13 2425   5.704   5.294   5.065  1.1801  0.1337 -0.6421
    7MOL    H14 2426   5.913   5.273   5.045 -0.5063 -1.7185  0.2043
    7MOL    H15 2427   6.031   5.252   4.907 -0.2251 -3.5178 -0.5196
    7MOL    H16 2428   5.879   5.357   4.897 -0.4066 -0.6305  0.5127
    7MOL    H17 2429   5.732   4.997   4.743  0.2481 -1.0704  0.6467
    7MOL    H18 2430   5.498   4.916   4.795 -2.4536 -0.1343  2.0153
    7MOL    H19 2431   5.331   4.850   5.031  0.6864  1.6619 -1.9849
    7MOL    H20 2432   5.352   4.962   5.161  2.3272 -3.1781 -1.0475
    7MOL    H21 2433   5.277   5.139   5.017 -1.2208 -0.6200  1.1927
    7MOL    C22 2434   5.143   4.935   5.125  0.1865 -0.8129 -0.6209
    7MOL    C23 2435   5.038   4.895   5.027  0.1069  0.1718 -0.0802
    7MOL    C24 2436   5.067   4.804   4.922  0.9105  0.1204  0.5564
    7MOL    C25 2437   4.964   4.773   4.829  0.4217  0.2727  0.1301
    7MOL    C26 2438   4.826   4.827   4.846 -0.2809  0.4092 -0.4664
    7MOL    O27 2439   4.722   4.786   4.761  0.0905 -0.5056 -0.1210
    7MOL    C28 2440   4.581   4.819   4.776 -0.6673  0.0686 -0.0282
    7MOL    C29 2441   4.811   4.915   4.954 -0.0455 -0.3000  0.2428
    7MOL    C30 2442   4.908   4.954   5.042 -0.9047  0.9317 -0.0824
    7MOL    C31 2443   5.139   4.836   5.246 -0.2450 -0.2240  0.4481
    7MOL    H32 2444   5.121   5.034   5.163 -0.4920 -0.9961 -0.5207
    7MOL    H33 2445   5.167   4.763   4.910 -0.2760 -3.2379  1.5553
    7MOL    H34 2446   4.984   4.712   4.742  1.8320 -0.4597  0.9440
    7MOL    H35 2447   4.527   4.744   4.718 -0.7671  0.0263  0.1165
    7MOL    H36 2448   4.562   4.916   4.731 -2.0119 -0.5962 -0.9428
    7MOL    H37 2449   4.554   4.822   4.882  0.7285  0.9747  0.3046
    7MOL    H38 2450   4.710   4.949   4.976  0.3553  1.6655 -0.7876
    7MOL    H39 2451   4.888   5.025   5.121  1.3346  0.3262  1.0494
    7MOL    H40 2452   5.140   4.736   5.203 -0.2928  0.1458 -0.4255
    7MOL    H41 2453   5.232   4.836   5.303  1.0167  1.5465 -1.5600
    7MOL    C42 2454   5.007   4.845   5.331  0.6069  0.1766  0.7883
    7MOL    C43 2455   5.001   4.966   5.423 -0.1030  0.1775  0.3345
    7MOL    C44 2456   4.894   5.055   5.419  0.4488  0.0471 -0.1937
    7MOL    C45 2457   4.880   5.162   5.512 -0.0422  0.1382  0.3752
    7MOL    C46 2458   4.974   5.176   5.610  0.3418  0.2234  0.7563
    7MOL    O47 2459   4.954   5.276   5.705 -1.0691  0.0181 -0.1789
    7MOL    C48 2460   5.021   5.264   5.833 -0.7702 -0.0630  0.4278
    7MOL    C49 2461   5.088   5.091   5.611 -0.1847  0.1111  0.0111
    7MOL    C50 2462   5.095   4.978   5.525 -1.0031  0.0255  0.2283
    7MOL    C51 2463   4.994   4.720   5.418  0.6443 -0.2238 -0.5290
    7MOL    H52 2464   4.919   4.845   5.266  0.8629 -1.4030  0.4370
    7MOL    H53 2465   4.808   5.044   5.355  0.0203  4.3095 -0.4764
    7MOL    H54 2466   4.791   5.223   5.506  1.0909  1.8485  0.4730
    7MOL    H55 2467   5.129   5.276   5.834 -0.7020 -0.4419 -1.4043
    7MOL    H56 2468   4.995   5.339   5.908 -0.0186  0.1214  0.4975
    7MOL    H57 2469   4.993   5.166   5.871 -0.2158 -0.4822 -0.2394
    7MOL    H58 2470   5.168   5.122   5.677 -0.7796  2.3205 -0.2661
    7MOL    H59 2471   5.176   4.907   5.531 -1.3224 -0.2553  1.2469
    7MOL    H60 2472   4.914   4.735   5.490  0.5226  0.8245 -0.8848
    7MOL    H61 2473   5.081   4.713   5.484  1.0789  1.7053 -0.8651
    7MOL    C62 2474   4.953   4.589   5.351  0.2803 -0.5435 -0.5508
    7MOL    C63 2475   4.848   4.603   5.241 -0.1572  0.1068 -0.0653
    7MOL    C64 2476   4.861   4.532   5.126 -0.1737  0.0272  0.3774
    7MOL    C65 2477   4.756   4.517   5.033 -0.0385 -0.1826 -0.0980
    7MOL    C66 2478   4.631   4.579   5.066 -0.4587 -0.2110  0.3264
    7MOL    O67 2479   4.520   4.548   4.993 -0.1570 -0.7587  0.2706
    7MOL    C68 2480   4.530   4.469   4.875 -0.2290 -0.4252 -0.0501
    7MOL    C69 2481   4.618   4.668   5.171  0.2490 -0.0137  0.5955
    7MOL    C70 2482   4.725   4.672   5.262 -0.3111  0.0120  0.9089
    7MOL    C71 2483   4.898   4.497   5.466 -0.1170 -0.1313  0.3705
    7MOL    H72 2484   5.044   4.540   5.315  0.8713  0.3875 -0.3402
    7MOL    H73 2485   4.950   4.471   5.118  0.6462  1.1282  0.9854
    7MOL    H74 2486   4.769   4.454   4.946  0.2131  1.4699 -1.2828
    7MOL    H75 2487   4.593   4.515   4.799 -1.9240 -0.2716 -1.4145
    7MOL    H76 2488   4.429   4.471   4.833  0.1261  1.6440 -0.8485
    7MOL    H77 2489   4.560   4.365   4.890 -1.0134 -0.6359  0.1086
    7MOL    H78 2490   4.527   4.717   5.202 -0.8795 -2.1382  0.7430
    7MOL    H79 2491   4.716   4.731   5.353  1.9853  0.2623  1.0158
    7MOL    H80 2492   4.967   4.494   5.550 -0.7202 -1.9090  0.8194
    7MOL    H81 2493   4.804   4.537   5.504  0.7055  1.1864  1.0519
    7MOL    C82 2494   4.879   4.353   5.425 -0.0987 -0.4116  0.0375
    7MOL    C83 2495   5.006   4.281   5.385  0.7287 -0.6141 -0.0762
    7MOL    C84 2496   5.027   4.236   5.255 -0.5626 -0.1603  0.2532
    7MOL    C85 2497   5.154   4.186   5.221  0.0117  0.1247 -0.1621
    7MOL    C86 2498   5.254   4.160   5.313 -0.2379 -0.3164 -0.4096
    7MOL    O87 2499   5.379   4.101   5.300 -0.1890  0.2855  0.2133
    7MOL    C88 2500   5.397   4.037   5.177 -0.1999  0.3201 -1.0091
    7MOL    C89 2501   5.223   4.195   5.443  0.0789  0.7590 -0.8895
    7MOL    C90 2502   5.106   4.269   5.483  0.3326  0.9505  0.4495
    7MOL    C91 2503   4.801   4.267   5.532  0.2637 -0.2384 -0.2633
    7MOL    H92 2504   4.807   4.360   5.343 -2.2673  1.8483  2.0545
    7MOL    H93 2505   4.945   4.240   5.185 -0.9928  0.6812  0.7894
    7MOL    H94 2506   5.170   4.143   5.123 -2.7481 -0.5723 -0.3392
    7MOL    H95 2507   5.391   4.110   5.097  3.4017  2.5630  0.6214
    7MOL    H96 2508   5.320   3.965   5.152  0.4289 -0.6346 -0.2378
    7MOL    H97 2509   5.499   3.997   5.181 -0.0193  0.3996 -3.6782
    7MOL    H98 2510   5.302   4.161   5.508 -0.3937  1.4489  0.0546
    7MOL    H99 2511   5.090   4.306   5.583 -0.7890 -1.0555  1.0549
    7MOL   H100 2512   4.859   4.275   5.624 -0.6607 -1.4171  0.4340
    7MOL   H101 2513   4.713   4.318   5.571 -0.2409 -0.0048 -1.6644
    7MOL   C102 2514   4.781   4.117   5.497  0.4438 -0.6066 -0.1322
    7MOL   C103 2515   4.761   4.044   5.626  0.0138  0.0301  0.0873
    7MOL   C104 2516   4.864   3.966   5.683 -0.3198 -0.3245  0.7604
    7MOL   C105 2517   4.849   3.917   5.817  0.0790 -0.2222 -0.1113
    7MOL   C106 2518   4.731   3.949   5.895 -0.3840  0.5153 -0.1237
    7MOL   O107 2519   4.724   3.908   6.023  0.3691  0.4209  0.0584
    7MOL   C108 2520   4.833   3.839   6.084 -0.6682 -0.2781 -0.4727
    7MOL   C109 2521   4.636   4.037   5.838  0.4986 -0.0441  0.2541
    7MOL   C110 2522   4.646   4.077   5.704 -1.0296  0.6796 -0.0688
    7MOL   C111 2523   4.659   4.096   5.392 -0.4340  0.6788  0.1362
    7MOL   H112 2524   4.878   4.078   5.468  0.1351 -0.0598 -1.9981
    7MOL   H113 2525   4.955   3.940   5.630 -0.8697  0.3078 -0.5137
    7MOL   H114 2526   4.919   3.844   5.856 -1.2296 -2.9137 -2.5767
    7MOL   H115 2527   4.802   3.818   6.187 -0.8011  3.1489  0.2467
    7MOL   H116 2528   4.855   3.738   6.051  2.1777  0.9083 -2.3290
    7MOL   H117 2529   4.916   3.907   6.102  1.4133 -2.9979  0.5585
    7MOL   H118 2530   4.549   4.064   5.896 -0.1049 -1.8500  0.2000
    7MOL   H119 2531   4.565   4.139   5.668 -0.7939  1.2071  0.3101
    7MOL   H120 2532   4.559   4.127   5.419 -0.2551  0.2493  1.3098
    7MOL   H121 2533   4.687   4.162   5.309  2.5026 -2.7819 -1.8219
    7MOL   C122 2534   4.645   3.944   5.339 -0.1581 -0.4142  0.3831
    7MOL   C123 2535   4.774   3.869   5.320  0.8596 -0.0736 -0.1188
    7MOL   C124 2536   4.884   3.925   5.246  0.4834  0.0106  0.8645
    7MOL   C125 2537   5.007   3.865   5.241 -0.1544  0.6642 -0.1077
    7MOL   C126 2538   5.022   3.739   5.311  0.0637  0.7042  0.8325
    7MOL   O127 2539   5.144   3.679   5.295  0.7190 -0.1594 -0.3074
    7MOL   C128 2540   5.172   3.555   5.373 -0.1298  0.6811 -0.0634
    7MOL   C129 2541   4.916   3.683   5.383  0.0170  0.3952  0.2381
    7MOL   C130 2542   4.792   3.746   5.395 -0.6854  0.1522 -0.0926
    7MOL   C131 2543   4.559   3.922   5.212 -0.0432 -0.5144 -0.2326
    7MOL   H132 2544   4.591   3.890   5.417 -1.3630 -0.1080 -0.2202
    7MOL   H133 2545   4.875   4.026   5.209 -0.7971 -0.9683 -1.5491
    7MOL   H134 2546   5.087   3.919   5.192  1.1639  0.3897  1.6822
    7MOL   H135 2547   5.179   3.582   5.478 -0.8872  1.6180 -0.2510
    7MOL   H136 2548   5.100   3.475   5.360 -0.4752  0.7605  1.2897
    7MOL   H137 2549   5.267   3.518   5.332 -0.0303 -2.7019  3.0556
    7MOL   H138 2550   4.922   3.593   5.443  0.3697 -0.2027 -0.6749
    7MOL   H139 2551   4.717   3.699   5.457 -2.0800  1.5518 -0.6613
    7MOL   H140 2552   4.534   3.817   5.199  0.7350 -0.3930 -3.0679
    7MOL   H141 2553   4.615   3.953   5.124  1.3455 -0.7761  0.5404
    7MOL   C142 2554   4.433   4.012   5.201 -0.5711 -0.2873  0.0608
    7MOL   C143 2555   4.378   4.012   5.059 -0.8878  0.3796 -0.2025
    7MOL   C144 2556   4.366   4.133   4.987 -0.1098 -0.1981 -0.0930
    7MOL   C145 2557   4.310   4.125   4.858  1.1020  0.1197  0.8929
    7MOL   C146 2558   4.262   4.006   4.793 -0.1128  0.2526  0.0557
    7MOL   O147 2559   4.230   4.017   4.659  0.9933 -0.2708  0.6452
    7MOL   C148 2560   4.180   3.901   4.611 -0.0789 -0.5755 -0.9428
    7MOL   C149 2561   4.274   3.886   4.871 -0.3211  0.1145 -0.3209
    7MOL   C150 2562   4.327   3.890   5.004  0.5277  0.1927  0.8039
    7MOL   C151 2563   4.325   3.982   5.309 -0.0293  0.3540 -0.5515
    7MOL   H152 2564   4.465   4.113   5.225  2.3978 -1.1813  0.0891
    7MOL   H153 2565   4.399   4.230   5.022  1.5433 -1.2097  1.2196
    7MOL   H154 2566   4.291   4.217   4.806  0.0210 -0.4240  0.3144
    7MOL   H155 2567   4.252   3.823   4.587  0.2461 -0.2762 -0.9371
    7MOL   H156 2568   4.099   3.864   4.674 -0.2565  0.7824 -0.3578
    7MOL   H157 2569   4.129   3.929   4.518  1.0663  1.3258 -1.0369
    7MOL   H158 2570   4.242   3.789   4.836 -0.9310 -0.0281  0.6214
    7MOL   H159 2571   4.345   3.797   5.058  0.6127 -1.0028 -1.2387
    7MOL   H160 2572   4.369   3.972   5.408  1.1113  0.9033 -0.9917
    7MOL   H161 2573   4.271   3.890   5.286  0.1056  0.0139  0.4918
    7MOL   C162 2574   4.217   4.103   5.317  0.3986 -0.6351 -0.7650
    7MOL   C163 2575   4.284   4.223   5.375  0.6697 -0.8363 -0.1930
    7MOL   C164 2576   4.329   4.230   5.505  0.4314 -0.7148  0.2667
    7MOL   C165 2577   4.393   4.342   5.555  0.3160  0.4179 -0.0135
    7MOL   C166 2578   4.413   4.455   5.472  0.6599  0.2265 -0.4110
    7MOL   O167 2579   4.476   4.569   5.501  0.0011 -0.2101  0.0232
    7MOL   C168 2580   4.517   4.575   5.641  0.8403 -0.2119 -0.6049
    7MOL   C169 2581   4.373   4.447   5.335  0.1675  0.1791 -0.4576
    7MOL   C170 2582   4.308   4.337   5.288  0.3031 -0.4573 -0.7466
    7MOL   C171 2583   4.091   4.050   5.394  0.3083 -0.4716  0.6450
    7MOL   H172 2584   4.178   4.135   5.220 -2.4641 -1.7430 -0.0158
    7MOL   H173 2585   4.311   4.146   5.570  0.6765 -0.3752  0.7814
    7MOL   H174 2586   4.426   4.338   5.657 -1.3986  0.4950  0.5617
    7MOL   H175 2587   4.437   4.570   5.716  0.8109  0.9718 -0.5453
    7MOL   H176 2588   4.556   4.676   5.647 -0.8589  0.4671 -0.5461
    7MOL   H177 2589   4.596   4.502   5.659  0.6494 -0.1360  0.5967
    7MOL   H178 2590   4.387   4.535   5.275  1.1541 -0.8787 -1.8085
    7MOL   H179 2591   4.264   4.340   5.190 -2.4174 -2.1346  0.3722
    7MOL   H180 2592   4.126   3.987   5.476  3.6348  1.7801  1.0624
    7MOL   H181 2593   4.032   3.979   5.336  1.5472  0.6187 -2.0417
    7MOL   C182 2594   3.998   4.163   5.448  0.4147  0.2194  0.0486
    7MOL   C183 2595   3.893   4.095   5.542 -0.4975 -0.0954  0.3580
    7MOL   C184 2596   3.895   4.123   5.680  0.4410 -0.5409 -0.0525
    7MOL   C185 2597   3.789   4.076   5.755  0.1977  0.8105 -0.3825
    7MOL   C186 2598   3.691   3.994   5.702  0.3365  0.4325  0.0952
    7MOL   O187 2599   3.597   3.929   5.778 -0.4410  0.2710  0.2228
    7MOL   C188 2600   3.552   3.988   5.894  0.2820 -0.0582 -0.2007
    7MOL   C189 2601   3.700   3.961   5.564  0.5174 -0.4880 -0.0537
    7MOL   C190 2602   3.799   4.009   5.483  0.3980  0.6886  0.1147
    7MOL   C191 2603   3.939   4.253   5.337  0.7412  0.2895  0.1026
    7MOL   H192 2604   4.057   4.215   5.524  2.1371 -1.2611 -0.2435
    7MOL   H193 2605   3.969   4.176   5.739 -0.3393 -0.1148  0.5518
    7MOL   H194 2606   3.784   4.118   5.854 -1.9084  1.0424 -0.5712
    7MOL   H195 2607   3.629   3.997   5.970  0.2090  3.2710 -0.4415
    7MOL   H196 2608   3.483   3.921   5.946 -1.6265 -0.1802 -2.7397
    7MOL   H197 2609   3.503   4.083   5.871  1.7166  0.3168 -1.7761
    7MOL   H198 2610   3.630   3.893   5.518 -1.5849  0.7566  1.2025
    7MOL   H199 2611   3.787   3.994   5.376 -2.5008 -2.1122  0.7489
    7MOL   H200 2612   4.010   4.273   5.257  1.1106  1.4391  0.7066
    7MOL   H201 2613   3.857   4.198   5.291  0.0298  2.8022 -1.7423
    7MOL   C202 2614   3.878   4.380   5.394 -0.0687 -0.7507 -0.2306
    7MOL   C203 2615   3.783   4.439   5.291  0.0414  1.0396 -0.0564
    7MOL   C204 2616   3.834   4.490   5.171  0.6253  0.7795 -0.0114
    7MOL   C205 2617   3.751   4.561   5.076  0.6919  0.0901  0.7707
    7MOL   C206 2618   3.614   4.578   5.111  0.2483 -0.1766  0.4705
    7MOL   O207 2619   3.542   4.647   5.017 -0.0456  0.1496 -0.2094
    7MOL   C208 2620   3.432   4.719   5.064  0.2837  0.1561  0.1473
    7MOL   C209 2621   3.566   4.523   5.237  0.8961 -0.8622 -0.4136
    7MOL   C210 2622   3.653   4.460   5.328  0.1080 -0.1151  0.8034
    7MOL   C211 2623   3.990   4.476   5.455  0.1624 -0.0221 -0.0957
    7MOL   H212 2624   3.823   4.349   5.483 -2.0158 -0.4097 -1.3032
    7MOL   H213 2625   3.934   4.464   5.138  0.2380  0.3375 -0.8648
    7MOL   H214 2626   3.785   4.590   4.977 -0.4366  1.6479  0.8368
    7MOL   H215 2627   3.464   4.770   5.155  1.3040  1.1460 -0.7437
    7MOL   H216 2628   3.406   4.795   4.990 -0.3904  2.6434  2.8351
    7MOL   H217 2629   3.348   4.652   5.082  3.3906 -4.0093 -0.0170
    7MOL   H218 2630   3.462   4.533   5.267  1.2376  0.2145  0.4399
    7MOL   H219 2631   3.613   4.431   5.424 -0.5367  0.1767  0.6282
    7MOL   H220 2632   4.043   4.519   5.370  0.8245  0.8233  0.7379
    7MOL   H221 2633   4.074   4.420   5.496  0.3917  0.1500 -0.3333
    7MOL   C222 2634   3.934   4.592   5.548  0.0959  0.0611 -0.6456
    7MOL   C223 2635   3.920   4.541   5.687  0.5456 -0.0026 -0.0661
    7MOL   C224 2636   3.800   4.514   5.752  0.2929  0.3133 -0.1569
    7MOL   C225 2637   3.790   4.466   5.883  0.4571  0.0631 -0.1411
    7MOL   C226 2638   3.909   4.446   5.956  0.6490  0.0713 -0.0062
    7MOL   O227 2639   3.885   4.414   6.090  0.8002  0.0678 -0.3654
    7MOL   C228 2640   3.989   4.374   6.174 -0.1241  0.2125 -0.0656
    7MOL   C229 2641   4.036   4.478   5.896  0.3535 -0.5364 -0.1788
    7MOL   C230 2642   4.038   4.524   5.765 -0.0983 -0.1095 -0.7293
    7MOL   C231 2643   4.002   4.725   5.553 -0.3647 -0.3129  0.0611
    7MOL   H232 2644   3.835   4.608   5.507  0.5894 -1.3921 -2.5164
    7MOL   H233 2645   3.711   4.526   5.691  0.2921  1.7402  0.0902
    7MOL   H234 2646   3.692   4.445   5.922  0.7725 -1.8152 -0.3248
    7MOL   H235 2647   3.958   4.356   6.277 -1.3597 -0.2807 -0.5153
    7MOL   H236 2648   4.037   4.285   6.132 -2.9074 -2.3086  1.8067
    7MOL   H237 2649   4.058   4.458   6.175  0.3805 -0.1936  1.6602
    7MOL   H238 2650   4.131   4.450   5.941  0.4798 -0.7904 -0.5986
    7MOL   H239 2651   4.129   4.531   5.707  0.1584 -0.3061 -0.3560
    7MOL   H240 2652   3.938   4.783   5.619  0.4278 -0.8659  1.3381
    7MOL   H241 2653   4.103   4.724   5.595 -0.7711  0.0364  1.0474
    7MOL   C242 2654   4.003   4.796   5.422 -0.8658  0.0145 -0.0222
    7MOL   C243 2655   3.919   4.925   5.438  0.0482  0.7335  0.0549
    7MOL   C244 2656   3.955   5.029   5.526  0.2811 -0.6730 -0.6035
    7MOL   C245 2657   3.887   5.150   5.536 -0.2490  0.3249  0.1439
    7MOL   C246 2658   3.780   5.174   5.447 -0.2088  0.4239  0.5877
    7MOL   O247 2659   3.710   5.296   5.443  0.9768 -0.0392 -0.1981
    7MOL   C248 2660   3.767   5.396   5.516  0.4665 -0.6486  0.1959
    7MOL   C249 2661   3.743   5.063   5.360 -0.0654  0.1712  0.3694
    7MOL   C250 2662   3.805   4.940   5.359 -0.0377  0.2432 -0.1824
    7MOL   C251 2663   4.143   4.842   5.379  0.1926 -0.4365  0.2006
    7MOL   H252 2664   3.958   4.750   5.333 -3.3867  0.3584  1.0269
    7MOL   H253 2665   4.028   5.012   5.604 -2.8637  0.2775  2.7249
    7MOL   H254 2666   3.925   5.211   5.616 -0.5825  1.6509 -0.6948
    7MOL   H255 2667   3.673   5.447   5.537 -0.3487 -2.2409  0.4962
    7MOL   H256 2668   3.811   5.374   5.613  2.5949  0.8202 -0.3963
    7MOL   H257 2669   3.831   5.467   5.464  3.1229 -3.1833 -0.1236
    7MOL   H258 2670   3.659   5.059   5.292 -0.9243 -1.7377  1.4885
    7MOL   H259 2671   3.789   4.867   5.281  1.3688  0.6188 -0.8417
    7MOL   H260 2672   4.213   4.758   5.378  0.3066 -0.3976  2.1319
    7MOL   H261 2673   4.179   4.905   5.461  3.7465 -1.2859 -0.6199
    7MOL   C262 2674   4.156   4.932   5.258  0.4446  0.2758 -0.4567
    7MOL   C263 2675   4.087   4.877   5.131  0.1584 -0.4460 -0.2008
    7MOL   C264 2676   4.127   4.751   5.080  0.0265 -0.2769  0.7368
    7MOL   C265 2677   4.068   4.709   4.958 -0.7437 -0.2591  0.5117
    7MOL   C266 2678   3.963   4.781   4.893  0.8175 -0.2540 -0.2795
    7MOL   O267 2679   3.911   4.723   4.780 -0.2543 -0.0938  0.0122
    7MOL   C268 2680   3.788   4.769   4.725 -0.1872 -0.6622  0.0927
    7MOL   C269 2681   3.927   4.908   4.950  0.9058 -0.0804  0.3086
    7MOL   C270 2682   3.992   4.953   5.063  0.0270  0.1809  0.8394
    7MOL   C271 2683   4.296   4.974   5.213  0.1757  0.0776 -0.8331
    7MOL   H272 2684   4.100   5.022   5.284 -0.1098 -0.5599  1.3759
    7MOL   H273 2685   4.194   4.682   5.129  0.3481  0.5811  1.5137
    7MOL   H274 2686   4.091   4.615   4.909  0.6881  0.9759 -1.2526
    7MOL   H275 2687   3.760   4.703   4.643 -0.9407  0.2333 -0.3783
    7MOL   H276 2688   3.800   4.872   4.690  0.8872 -1.4049 -1.7676
    7MOL   H277 2689   3.711   4.771   4.803 -1.9210 -1.8508 -1.5495
    7MOL   H278 2690   3.853   4.976   4.911 -0.7061 -2.0054 -0.0892
    7MOL   H279 2691   3.961   5.050   5.101 -0.6130 -0.5033  2.1053
    7MOL   H280 2692   4.348   4.894   5.160  0.3603  0.3602 -1.0814
    7MOL   H281 2693   4.288   5.053   5.139 -0.4334  1.4795  0.7003
    7MOL   C282 2694   4.398   5.017   5.318 -0.5377  0.2496  0.0996
    7MOL   C283 2695   4.342   5.097   5.433 -0.2814  0.4115  0.3707
    7MOL   C284 2696   4.363   5.052   5.569  0.4793 -0.0539 -0.2783
    7MOL   C285 2697   4.293   5.108   5.676  0.2325 -0.0797 -0.3632
    7MOL   C286 2698   4.215   5.227   5.653 -0.6617 -0.1082  0.1727
    7MOL   O287 2699   4.162   5.293   5.756  0.5695 -0.1451  0.3553
    7MOL   C288 2700   4.165   5.441   5.752  0.3191  0.0283  0.0612
    7MOL   C289 2701   4.196   5.270   5.523 -0.1923 -0.1893  0.0164
    7MOL   C290 2702   4.260   5.209   5.417 -0.1764  0.0850  0.4510
    7MOL   C291 2703   4.534   5.079   5.262 -0.3220 -0.0689  0.4013
    7MOL   H292 2704   4.421   4.918   5.358 -1.9163 -0.1470 -0.0432
    7MOL   H293 2705   4.423   4.968   5.599  1.9938  0.7492 -0.9791
    7MOL   H294 2706   4.295   5.062   5.774 -2.4518  1.8889  0.7121
    7MOL   H295 2707   4.243   5.483   5.688  0.4734 -1.5580 -0.8412
    7MOL   H296 2708   4.065   5.471   5.721  0.5519 -0.6878 -1.4321
    7MOL   H297 2709   4.180   5.473   5.855  0.2026 -2.0933  0.7616
    7MOL   H298 2710   4.132   5.355   5.505  1.7381  1.4256  0.5775
    7MOL   H299 2711   4.219   5.228   5.318  0.0873 -1.0425  0.1181
    7MOL   H300 2712   4.608   5.077   5.341  0.9720  0.5352 -0.7643
    7MOL   H301 2713   4.580   5.020   5.183 -1.3731  0.1367 -0.3861
    7MOL   C302 2714   4.535   5.220   5.195  0.3029 -0.3144  0.3255
    7MOL   C303 2715   4.641   5.302   5.260  0.7850  0.0666 -0.8710
    7MOL   C304 2716   4.607   5.356   5.385 -0.1670  0.4292  0.3571
    7MOL   C305 2717   4.688   5.452   5.440 -0.2592 -0.2260 -0.4013
    7MOL   C306 2718   4.814   5.477   5.382 -0.3801 -0.3350  0.0992
    7MOL   O307 2719   4.884   5.574   5.455 -0.1983  0.1061  0.3056
    7MOL   C308 2720   5.011   5.616   5.406 -0.8341 -0.4758  0.9998
    7MOL   C309 2721   4.850   5.424   5.256 -0.5329 -0.5146 -0.6840
    7MOL   C310 2722   4.763   5.337   5.189  0.0004 -0.1231 -0.1349
    7MOL   C311 2723   4.543   5.214   5.034 -0.1558  1.0128  0.0460
    7MOL   H312 2724   4.438   5.270   5.208  0.2212  0.6498 -3.1849
    7MOL   H313 2725   4.513   5.337   5.435 -1.1995  1.0393 -1.2918
    7MOL   H314 2726   4.674   5.499   5.536  0.5288  0.1906 -0.4826
    7MOL   H315 2727   5.052   5.695   5.469 -0.1780  0.5982 -0.7167
    7MOL   H316 2728   5.018   5.666   5.309  0.6536 -0.2625  1.1963
    7MOL   H317 2729   5.079   5.531   5.398 -0.4342  0.0055 -1.0553
    7MOL   H318 2730   4.941   5.459   5.209 -0.5893 -0.5766 -0.8396
    7MOL   H319 2731   4.797   5.302   5.092  0.8489 -1.1650  0.5306
    7MOL   H320 2732   4.469   5.146   4.992 -0.0766  1.2696 -0.5225
    7MOL   H321 2733   4.632   5.165   4.995 -0.6304  0.3824 -0.2577
    7MOL   C322 2734   4.523   5.347   4.955 -0.0574  0.0015  0.1770
    7MOL   C323 2735   4.404   5.426   5.012  0.0639 -0.0938 -0.3015
    7MOL   C324 2736   4.267   5.382   5.008 -0.6186  0.1161 -0.8122
    7MOL   C325 2737   4.168   5.449   5.076  0.0875  0.1417  0.0920
    7MOL   C326 2738   4.195   5.571   5.146 -0.6754 -0.2570  0.2852
    7MOL   O327 2739   4.106   5.654   5.214  0.3876  0.7517  0.7196
    7MOL   C328 2740   3.971   5.601   5.227 -0.5000 -0.5904 -0.1904
    7MOL   C329 2741   4.331   5.610   5.155 -0.0561  0.2083 -0.3005
    7MOL   C330 2742   4.434   5.538   5.090 -0.6119  0.3551 -0.0578
    7MOL   C331 2743   4.515   5.326   4.799  0.3199 -0.5335 -1.2379
    7MOL   H332 2744   4.612   5.409   4.973 -0.5623  0.8877 -0.3304
    7MOL   H333 2745   4.251   5.288   4.957 -0.3590 -0.9062  0.9431
    7MOL   H334 2746   4.065   5.416   5.084  1.1010 -2.6050  3.0922
    7MOL   H335 2747   3.916   5.584   5.135 -1.5447  0.8620  0.1536
    7MOL   H336 2748   3.917   5.676   5.285  0.0069 -0.2085 -0.2028
    7MOL   H337 2749   3.974   5.508   5.282  3.4961 -1.2741 -1.3317
    7MOL   H338 2750   4.359   5.695   5.216  2.7600  0.8719 -2.4086
    7MOL   H339 2751   4.535   5.575   5.101 -0.1511 -1.5775  2.4861
    7MOL   H340 2752   4.427   5.272   4.764 -1.8309  2.3786 -0.5103
    7MOL   H341 2753   4.493   5.423   4.753  0.9146  0.4349  0.4946
    7MOL   C342 2754   4.637   5.265   4.730 -0.0649  0.3688  0.2415
    7MOL   C343 2755   4.772   5.332   4.761 -0.4777  0.6113 -0.4882
    7MOL   C344 2756   4.799   5.467   4.733  0.1076  0.0496 -0.3076
    7MOL   C345 2757   4.923   5.525   4.763 -0.0117  0.1936  0.2240
    7MOL   C346 2758   5.023   5.449   4.826 -0.5074  0.0087 -0.7157
    7MOL   O347 2759   5.143   5.510   4.857  0.0191  0.0936  0.2101
    7MOL   C348 2760   5.247   5.422   4.904  0.1631  0.3690  0.1234
    7MOL   C349 2761   4.996   5.315   4.865 -0.2990  0.2388  0.7771
    7MOL   C350 2762   4.871   5.255   4.830 -0.8572 -0.5762  0.0313
    7MOL   C351 2763   4.616   5.239   4.574 -0.4377 -0.0914  0.5224
    7MOL   H352 2764   4.645   5.165   4.773  1.9850  0.3558 -0.1421
    7MOL   H353 2765   4.724   5.522   4.677  0.7963  1.2273 -0.0777
    7MOL   H354 2766   4.944   5.625   4.730  1.6545 -0.6679 -1.4557
    7MOL   H355 2767   5.272   5.354   4.823 -1.3546  0.7709 -0.6941
    7MOL   H356 2768   5.338   5.476   4.928  1.2122 -1.7744  1.1159
    7MOL   H357 2769   5.228   5.378   5.002 -0.1594  1.6631  0.6542
    7MOL   H358 2770   5.063   5.257   4.927  1.0615  0.4740 -0.4621
    7MOL   H359 2771   4.853   5.157   4.871  0.6165 -0.9321 -0.1241
    7MOL   H360 2772   4.510   5.222   4.559 -0.6888  1.8982 -0.1552
    7MOL   H361 2773   4.633   5.337   4.528 -0.2479 -0.3968 -0.0596
    7MOL   C362 2774   4.711   5.127   4.511 -0.2852 -0.4266 -0.2995
    7MOL   C363 2775   4.864   5.140   4.530  0.1869 -0.4407  0.1215
    7MOL   C364 2776   4.927   5.256   4.492 -1.6441 -0.1397  0.4745
    7MOL   C365 2777   5.068   5.269   4.504 -0.0794  1.0229  0.0346
    7MOL   C366 2778   5.144   5.162   4.545 -0.1483 -0.0070 -0.1902
    7MOL   O367 2779   5.277   5.180   4.543 -0.4834  0.2918 -0.1216
    7MOL   C368 2780   5.363   5.060   4.550 -0.1624  0.0428 -0.1228
    7MOL   C369 2781   5.077   5.048   4.588  0.3565  0.0716  0.4117
    7MOL   C370 2782   4.937   5.031   4.577  0.1110  0.7619  0.4244
    7MOL   C371 2783   4.689   5.082   4.366 -0.4761 -0.2635  0.2478
    7MOL   H372 2784   4.689   5.038   4.569 -1.0037  0.9195  1.5666
    7MOL   H373 2785   4.873   5.329   4.435 -1.2026 -0.1963 -0.0184
    7MOL   H374 2786   5.116   5.356   4.463  1.1065  1.3158  1.9820
    7MOL   H375 2787   5.316   4.997   4.475  0.5620  0.0571 -0.5938
    7MOL   H376 2788   5.467   5.071   4.520  0.4422 -2.5744  0.8975
    7MOL   H377 2789   5.353   4.999   4.640  0.1020  1.0350  0.5903
    7MOL   H378 2790   5.126   4.962   4.631 -1.1663 -1.2516 -0.4258
    7MOL   H379 2791   4.881   4.945   4.611 -1.9511  2.2120  0.7970
    7MOL   H380 2792   4.727   5.152   4.291 -0.1244 -2.8476 -2.0382
    7MOL   H381 2793   4.760   5.003   4.342  0.5556 -0.4813  3.6645
    7MOL   C382 2794   4.546   5.040   4.328 -0.3699 -0.6418  0.4858
    7MOL   C383 2795   4.499   4.920   4.401  0.5878 -0.8073 -0.6864
    7MOL   C384 2796   4.371   4.915   4.456  0.3257  0.3250  0.6824
    7MOL   C385 2797   4.316   4.800   4.518  0.2798  1.0996 -0.0325
    7MOL   C386 2798   4.385   4.674   4.520  0.9822 -0.3996  0.6459
    7MOL   O387 2799   4.332   4.553   4.562 -0.5787 -0.7677 -0.1074
    7MOL   C388 2800   4.195   4.538   4.579  0.4235 -0.2272  0.4827
    7MOL   C389 2801   4.516   4.677   4.477 -0.3931 -0.0696 -0.0961
    7MOL   C390 2802   4.574   4.799   4.420 -0.1631  0.1796  0.4791
    7MOL   C391 2803   4.532   5.003   4.177  0.3652  0.3088 -0.5102
    7MOL   H392 2804   4.474   5.118   4.355 -0.4231 -1.0613  1.5927
    7MOL   H393 2805   4.313   5.006   4.453  0.6458  0.4888 -1.2754
    7MOL   H394 2806   4.211   4.813   4.540  0.3503  1.8204 -0.0914
    7MOL   H395 2807   4.165   4.600   4.664  0.1232  0.3943 -0.0699
    7MOL   H396 2808   4.174   4.436   4.612 -2.4858 -0.4328 -1.7625
    7MOL   H397 2809   4.147   4.559   4.483  0.9800 -1.6852 -0.1289
    7MOL   H398 2810   4.585   4.594   4.474  3.2384  2.7872  0.4735
    7MOL   H399 2811   4.673   4.789   4.378  0.4336 -1.1101  2.1088
    7MOL   H400 2812   4.543   5.088   4.110 -2.0885  0.1478 -1.1372
    7MOL   H401 2813   4.432   4.966   4.157  0.2911  0.3126 -0.1476
    7MOL   H402 2814   4.594   4.916   4.154  0.5750  0.2349  0.3025
    8MOL     C1 2815   6.877   6.737   4.230  0.6022  0.3834  0.0539
    8MOL     C2 2816   6.731   6.761   4.256  0.9291 -0.3028  0.8181
    8MOL     C3 2817   6.667   6.712   4.368  0.2026  0.6208  0.0502
    8MOL     C4 2818   6.535   6.745   4.395  0.3005 -0.1212 -0.2073
    8MOL     C5 2819   6.459   6.822   4.303 -0.8487 -0.2181  0.4066
    8MOL     O6 2820   6.333   6.852   4.344  0.4478 -0.0779  0.9922
    8MOL     C7 2821   6.252   6.743   4.395 -0.0552 -0.1655  0.4071
    8MOL     C8 2822   6.529   6.874   4.190 -0.0651  0.1791  0.8678
    8MOL     C9 2823   6.663   6.840   4.166 -1.0200 -0.2460  0.3624
    8MOL    C10 2824   6.899   6.601   4.158 -0.1769 -0.7444  0.1213
    8MOL    H11 2825   6.942   6.746   4.317  0.7736  0.9783 -0.1269
    8MOL    H12 2826   6.725   6.651   4.435  0.8058  2.1845  0.9963
    8MOL    H13 2827   6.499   6.705   4.489  2.3866 -0.5286  0.4521
    8MOL    H14 2828   6.147   6.762   4.375  0.5352  2.3532 -0.4905
    8MOL    H15 2829   6.258   6.647   4.343  0.7519 -0.3532  0.8322
    8MOL    H16 2830   6.245   6.734   4.503 -1.5027 -0.9416  0.2596
    8MOL    H17 2831   6.488   6.940   4.114 -1.0729 -0.3187  0.9598
    8MOL    H18 2832   6.710   6.874   4.075 -2.6162  1.6376  0.2018
    8MOL    H19 2833   6.859   6.532   4.232  0.7459  1.6422  2.9500
    8MOL    H20 2834   6.846   6.589   4.064 -1.4340  1.1239  0.5624
    8MOL    H21 2835   6.910   6.818   4.165 -0.6313  0.0614 -0.9902
    8MOL    C22 2836   7.041   6.560   4.129 -0.1899  0.1459 -0.1238
    8MOL    C23 2837   7.039   6.413   4.079  0.8057  0.0264 -0.3877
    8MOL    C24 2838   7.062   6.305   4.166 -0.2964  0.6357  0.3331
    8MOL    C25 2839   7.052   6.166   4.133 -0.6556 -0.6290  0.6206
    8MOL    C26 2840   7.017   6.135   3.998 -0.1321 -0.6607  0.3604
    8MOL    O27 2841   7.011   6.008   3.955 -0.0944  0.1771 -0.3469
    8MOL    C28 2842   6.956   5.986   3.824  0.2843  0.1083  0.3618
    8MOL    C29 2843   6.989   6.244   3.914  0.4844  0.4552 -0.2553
    8MOL    C30 2844   6.995   6.376   3.952 -0.1139  0.2655  0.5121
    8MOL    C31 2845   7.125   6.658   4.038 -0.6487 -0.0311  0.5003
    8MOL    H32 2846   7.100   6.555   4.220 -1.3821  2.0128  0.7749
    8MOL    H33 2847   7.070   6.329   4.272  0.4694 -0.1762  0.4613
    8MOL    H34 2848   7.064   6.094   4.213 -0.4249 -1.3465 -0.0563
    8MOL    H35 2849   6.957   5.881   3.794 -0.9964  0.6958 -1.8555
    8MOL    H36 2850   7.010   6.040   3.746 -1.0714  0.7609 -0.1322
    8MOL    H37 2851   6.851   6.013   3.813  0.1253 -0.8946 -0.7913
    8MOL    H38 2852   6.972   6.229   3.809 -1.3824 -2.1349  0.3703
    8MOL    H39 2853   6.980   6.463   3.889  2.0376  1.6315  1.8124
    8MOL    H40 2854   7.063   6.672   3.949  2.5411  1.5128 -1.5757
    8MOL    H41 2855   7.129   6.754   4.088  1.9533 -0.2696  0.8122
    8MOL    C42 2856   7.267   6.604   3.998  0.0600 -0.3192 -0.3317
    8MOL    C43 2857   7.364   6.597   4.118  0.5054  0.4746 -0.0987
    8MOL    C44 2858   7.374   6.477   4.192 -0.1068  0.0643  1.0938
    8MOL    C45 2859   7.467   6.463   4.292 -0.2509  0.2980 -0.5538
    8MOL    C46 2860   7.551   6.571   4.331  0.3997 -0.5379 -0.0045
    8MOL    O47 2861   7.650   6.551   4.421 -0.3286  0.4363  0.2349
    8MOL    C48 2862   7.748   6.654   4.446  0.1799 -0.4958  0.0700
    8MOL    C49 2863   7.534   6.696   4.264 -0.5066  0.0318 -0.2551
    8MOL    C50 2864   7.434   6.711   4.164 -0.3959 -1.1136 -0.4670
    8MOL    C51 2865   7.327   6.690   3.888 -0.0925 -0.2309  0.2962
    8MOL    H52 2866   7.261   6.501   3.964  0.3103 -0.9381  1.4671
    8MOL    H53 2867   7.317   6.390   4.162 -0.1512  0.7558 -0.9005
    8MOL    H54 2868   7.474   6.367   4.340  0.4440  0.6467  0.0527
    8MOL    H55 2869   7.824   6.650   4.368  0.5713  0.2617  0.4103
    8MOL    H56 2870   7.707   6.755   4.456  0.0556 -0.6577  1.3259
    8MOL    H57 2871   7.805   6.635   4.536 -1.2933 -0.0607  1.1164
    8MOL    H58 2872   7.596   6.784   4.278 -1.5422  1.0876 -2.1217
    8MOL    H59 2873   7.421   6.807   4.115 -1.3793 -1.6496 -1.2592
    8MOL    H60 2874   7.427   6.651   3.870 -0.4135 -0.9918  0.1584
    8MOL    H61 2875   7.338   6.795   3.916  1.2453 -0.5969  1.1674
    8MOL    C62 2876   7.253   6.696   3.754  0.1782  0.4498  0.0268
    8MOL    C63 2877   7.200   6.559   3.699 -0.2353  0.9597 -0.3968
    8MOL    C64 2878   7.063   6.546   3.661 -0.4632 -0.4266 -0.0556
    8MOL    C65 2879   7.014   6.424   3.613  0.3403  0.0260  0.7501
    8MOL    C66 2880   7.102   6.315   3.590 -0.3369 -0.3559  0.0740
    8MOL    O67 2881   7.067   6.198   3.542  0.2621  0.1166 -0.1113
    8MOL    C68 2882   6.929   6.166   3.514 -0.1975  0.5368  0.7053
    8MOL    C69 2883   7.235   6.325   3.638 -0.3316  0.4159  0.1859
    8MOL    C70 2884   7.283   6.443   3.694  0.5171 -0.4994  0.0738
    8MOL    C71 2885   7.341   6.775   3.649  0.4807 -0.8677  0.4187
    8MOL    H72 2886   7.157   6.746   3.770 -0.1566  0.1214 -0.8928
    8MOL    H73 2887   7.002   6.634   3.676  0.8114  0.3767  0.6201
    8MOL    H74 2888   6.912   6.425   3.577  0.7701  1.3743 -0.4774
    8MOL    H75 2889   6.892   6.208   3.420  1.2199  1.1270  0.3936
    8MOL    H76 2890   6.852   6.204   3.580 -1.3027  1.5994 -1.1363
    8MOL    H77 2891   6.921   6.059   3.499  0.3119  0.7530 -1.3573
    8MOL    H78 2892   7.290   6.232   3.637 -2.9116 -1.1494 -0.9065
    8MOL    H79 2893   7.382   6.440   3.738  0.1349  2.1522  1.1691
    8MOL    H80 2894   7.378   6.867   3.695  0.7747  0.2838 -2.0264
    8MOL    H81 2895   7.434   6.723   3.625 -0.6911 -1.8637 -2.1551
    8MOL    C82 2896   7.269   6.806   3.517 -1.0264 -0.0048 -0.2746
    8MOL    C83 2897   7.190   6.935   3.523  0.3738 -0.1653 -0.4772
    8MOL    C84 2898   7.246   7.065   3.508 -0.0392 -0.3655 -0.3250
    8MOL    C85 2899   7.162   7.176   3.506  0.2140  0.8487  0.6160
    8MOL    C86 2900   7.019   7.160   3.511 -0.1322 -0.9388 -0.3454
    8MOL    O87 2901   6.942   7.271   3.500  0.0814  0.2908 -0.4514
    8MOL    C88 2902   6.799   7.256   3.500 -1.0021  0.2006 -0.1753
    8MOL    C89 2903   6.963   7.031   3.522  0.0065 -0.2004 -0.3921
    8MOL    C90 2904   7.048   6.921   3.530  0.5748  0.2612 -0.0251
    8MOL    C91 2905   7.360   6.804   3.390 -0.1946  0.4144 -0.3527
    8MOL    H92 2906   7.198   6.727   3.494 -1.0096  0.0264 -0.4337
    8MOL    H93 2907   7.351   7.086   3.496 -0.0902  1.2542  1.6040
    8MOL    H94 2908   7.207   7.273   3.490 -0.7806  0.7818 -2.9514
    8MOL    H95 2909   6.752   7.352   3.476 -1.5137  0.3102  1.2088
    8MOL    H96 2910   6.755   7.208   3.587  0.7202  0.1106  0.6620
    8MOL    H97 2911   6.764   7.202   3.412  0.7098  0.5891 -1.1107
    8MOL    H98 2912   6.857   7.010   3.525 -0.3208  1.4697  0.5926
    8MOL    H99 2913   6.998   6.826   3.544  1.4585 -0.2493 -0.2644
    8MOL   H100 2914   7.315   6.859   3.307  0.7800  1.7481  0.0029
    8MOL   H101 2915   7.451   6.857   3.413  0.1315 -0.7261  1.0299
    8MOL   C102 2916   7.394   6.658   3.349 -0.6878  0.8072 -0.0094
    8MOL   C103 2917   7.295   6.591   3.261  0.0379  0.0067  0.5312
    8MOL   C104 2918   7.242   6.470   3.312 -0.0842 -0.1903  0.2124
    8MOL   C105 2919   7.143   6.407   3.237 -0.2943  0.2764  0.0104
    8MOL   C106 2920   7.086   6.459   3.119 -0.0525  0.5469 -0.4236
    8MOL   O107 2921   6.984   6.402   3.045 -0.0162 -0.1031  0.0781
    8MOL   C108 2922   6.915   6.294   3.112 -0.1971  0.4219 -0.2828
    8MOL   C109 2923   7.138   6.575   3.068 -0.6433 -0.1075 -0.4838
    8MOL   C110 2924   7.244   6.642   3.141 -0.8570  0.2828 -0.6028
    8MOL   C111 2925   7.537   6.649   3.295 -0.6980  0.0272 -0.3115
    8MOL   H112 2926   7.379   6.611   3.446  0.2971  1.4799  0.4760
    8MOL   H113 2927   7.288   6.434   3.404  1.4058 -0.2612 -0.5490
    8MOL   H114 2928   7.100   6.312   3.269 -0.2127  0.1435 -0.2734
    8MOL   H115 2929   6.974   6.210   3.149  0.8360  1.4909  0.5430
    8MOL   H116 2930   6.873   6.340   3.201  1.4281 -0.1698  0.8151
    8MOL   H117 2931   6.834   6.247   3.057  0.6088  2.4891 -3.4031
    8MOL   H118 2932   7.100   6.613   2.974  0.3565  0.3294 -0.7188
    8MOL   H119 2933   7.289   6.730   3.097  0.6050 -0.2401 -0.1787
    8MOL   H120 2934   7.542   6.697   3.197  0.6945  0.1700 -0.1844
    8MOL   H121 2935   7.598   6.708   3.364  1.6335 -0.2593 -2.0662
    8MOL   C122 2936   7.576   6.493   3.277 -0.2342 -0.5297  0.0753
    8MOL   C123 2937   7.563   6.415   3.413  0.6232  0.1218  0.1390
    8MOL   C124 2938   7.529   6.281   3.392  0.8553 -0.2693 -0.3923
    8MOL   C125 2939   7.549   6.197   3.496  0.8593  0.1489 -0.5019
    8MOL   C126 2940   7.582   6.241   3.627 -0.4565 -0.6349  1.2940
    8MOL   O127 2941   7.590   6.143   3.728  0.1861 -0.5255 -0.0796
    8MOL   C128 2942   7.625   6.188   3.854 -0.2224  0.2480 -0.2852
    8MOL   C129 2943   7.617   6.377   3.638  0.5595 -0.1284  0.7330
    8MOL   C130 2944   7.612   6.463   3.533  0.0072  0.2174 -0.1592
    8MOL   C131 2945   7.713   6.486   3.206 -0.0922 -0.8707  0.3125
    8MOL   H132 2946   7.500   6.453   3.210  0.0308 -1.4902  0.3497
    8MOL   H133 2947   7.500   6.244   3.295  0.0276  1.7564 -0.9465
    8MOL   H134 2948   7.540   6.092   3.474 -2.2063  0.4588 -0.9129
    8MOL   H135 2949   7.569   6.279   3.878 -1.3166 -0.3534 -0.5114
    8MOL   H136 2950   7.587   6.113   3.925  1.5188 -1.8256 -1.4908
    8MOL   H137 2951   7.733   6.198   3.862 -0.3322  2.1092 -0.9479
    8MOL   H138 2952   7.668   6.417   3.725  1.9855 -1.4799  0.5443
    8MOL   H139 2953   7.650   6.563   3.548 -3.2077  1.2886  1.3403
    8MOL   H140 2954   7.746   6.384   3.219 -1.6964 -1.4612 -0.1290
    8MOL   H141 2955   7.780   6.554   3.258  0.7613 -0.5641 -1.1636
    8MOL   C142 2956   7.729   6.532   3.060  0.9283 -0.4864 -0.1292
    8MOL   C143 2957   7.871   6.518   3.014 -0.2979 -0.4109 -0.5580
    8MOL   C144 2958   7.916   6.393   2.966  0.0580 -0.6091 -0.1827
    8MOL   C145 2959   0.008   6.368   2.916 -0.5051  0.4588  0.6175
    8MOL   C146 2960   0.096   6.472   2.917  0.6070 -0.5218  0.0939
    8MOL   O147 2961   0.230   6.461   2.870 -0.2736 -0.3217 -0.5254
    8MOL   C148 2962   0.294   6.333   2.852  0.2689 -0.0359  0.0671
    8MOL   C149 2963   0.060   6.600   2.958  1.3698 -0.3851 -0.4241
    8MOL   C150 2964   7.970   6.619   3.011 -0.4337 -0.3359 -0.4180
    8MOL   C151 2965   7.623   6.475   2.961 -0.0284  0.1869 -0.8084
    8MOL   H152 2966   7.725   6.641   3.066  1.1880 -0.5330  1.0012
    8MOL   H153 2967   7.843   6.314   2.969 -1.1562  0.4751 -0.3588
    8MOL   H154 2968   0.034   6.271   2.877 -0.7866  1.1930 -1.4716
    8MOL   H155 2969   0.280   6.278   2.945 -3.7640  0.0573 -0.4008
    8MOL   H156 2970   0.241   6.279   2.774  0.0891 -0.5583  0.5525
    8MOL   H157 2971   0.401   6.331   2.836  0.3047 -0.2347  0.3296
    8MOL   H158 2972   0.135   6.677   2.975 -0.5237  1.0169  1.8111
    8MOL   H159 2973   7.948   6.723   3.034 -0.4640 -0.0992 -1.5038
    8MOL   H160 2974   7.528   6.502   3.006  1.3052  0.1466  2.1668
    8MOL   H161 2975   7.620   6.366   2.958  0.0585  0.1710 -0.2519
    8MOL   C162 2976   7.633   6.520   2.814 -0.2291 -0.1345 -0.2723
    8MOL   C163 2977   7.676   6.661   2.794  0.2223 -0.5556  0.1537
    8MOL   C164 2978   7.597   6.774   2.828 -0.0528 -0.8534  0.1790
    8MOL   C165 2979   7.652   6.909   2.819 -0.2515 -0.2770 -0.6776
    8MOL   C166 2980   7.782   6.929   2.775 -0.3941 -0.3187  0.2040
    8MOL   O167 2981   7.821   7.058   2.763 -0.7971 -0.3432  0.0931
    8MOL   C168 2982   7.813   7.135   2.885 -0.5483 -0.0288  0.1106
    8MOL   C169 2983   7.856   6.819   2.723  0.4759  0.4111  0.3726
    8MOL   C170 2984   7.802   6.683   2.738 -0.0959 -0.4401  0.8546
    8MOL   C171 2985   7.512   6.479   2.728  0.1574 -0.1096  0.3511
    8MOL   H172 2986   7.707   6.454   2.771  1.3837  0.4938  1.4539
    8MOL   H173 2987   7.502   6.765   2.879 -0.7694 -0.2341 -1.0296
    8MOL   H174 2988   7.593   6.995   2.847  0.1113 -0.6840  1.4211
    8MOL   H175 2989   7.801   7.082   2.979  0.7856  3.3562  2.2932
    8MOL   H176 2990   7.745   7.221   2.883 -1.8343 -1.0274  0.4643
    8MOL   H177 2991   7.914   7.161   2.915 -0.0629 -2.7561  0.9377
    8MOL   H178 2992   7.957   6.836   2.688 -0.2787 -1.0408 -2.6169
    8MOL   H179 2993   7.858   6.602   2.694 -0.2033  0.6919 -1.4429
    8MOL   H180 2994   7.544   6.513   2.629 -0.5738 -0.7502 -0.1140
    8MOL   H181 2995   7.424   6.541   2.748  0.4517 -0.8055  4.2340
    8MOL   C182 2996   7.487   6.327   2.727 -0.2480 -0.0333 -0.4487
    8MOL   C183 2997   7.611   6.253   2.694 -0.2232 -0.2170  0.2700
    8MOL   C184 2998   7.685   6.289   2.580  0.4558 -0.2531 -0.1889
    8MOL   C185 2999   7.815   6.239   2.561 -0.3432 -0.4921 -0.2993
    8MOL   C186 3000   7.872   6.148   2.656  0.4052  0.0660 -0.1952
    8MOL   O187 3001   8.008   6.118   2.658 -0.3095  0.0455 -0.2497
    8MOL   C188 3002   0.046   6.183   2.563  0.5740 -0.7063 -1.1370
    8MOL   C189 3003   7.793   6.103   2.762  1.4044 -0.2090  0.6265
    8MOL   C190 3004   7.669   6.162   2.784  0.2866  0.3393 -0.5178
    8MOL   C191 3005   7.380   6.282   2.633  0.4729 -0.3135 -0.4891
    8MOL   H192 3006   7.465   6.294   2.828 -0.5078  1.0459 -0.1524
    8MOL   H193 3007   7.653   6.363   2.508 -0.5547  0.7290  1.2459
    8MOL   H194 3008   7.869   6.294   2.485  1.4319  0.8516  1.8750
    8MOL   H195 3009   0.142   6.131   2.560 -0.0721 -1.9011 -1.5740
    8MOL   H196 3010   0.064   6.288   2.587  0.5384 -0.9504  0.0110
    8MOL   H197 3011   0.006   6.172   2.462 -1.7539  0.4206 -0.3846
    8MOL   H198 3012   7.838   6.037   2.835  1.2211 -0.5797  0.4042
    8MOL   H199 3013   7.620   6.128   2.874  0.9598 -1.1311 -0.6836
    8MOL   H200 3014   7.394   6.346   2.546  0.9921 -0.4750 -0.5295
    8MOL   H201 3015   7.408   6.183   2.596 -0.5902 -0.6339 -0.4671
    8MOL   C202 3016   7.235   6.283   2.685 -0.4314 -0.1026 -0.0208
    8MOL   C203 3017   7.223   6.154   2.772 -0.8061  0.3484  1.0277
    8MOL   C204 3018   7.237   6.025   2.720  0.4748 -0.3392  0.0336
    8MOL   C205 3019   7.229   5.913   2.809  0.6067 -0.7653  0.1459
    8MOL   C206 3020   7.206   5.932   2.945 -0.6374  0.1216  0.2182
    8MOL   O207 3021   7.199   5.822   3.022  0.1223  0.0005 -0.2864
    8MOL   C208 3022   7.234   5.831   3.162 -0.2658 -0.2483  0.3485
    8MOL   C209 3023   7.187   6.057   3.005 -0.1209  0.0138  0.6944
    8MOL   C210 3024   7.206   6.167   2.912  0.4479  0.6590  0.3227
    8MOL   C211 3025   7.123   6.294   2.577 -0.1159 -0.1949  0.3990
    8MOL   H212 3026   7.227   6.378   2.738  0.8043 -1.0290  1.8792
    8MOL   H213 3027   7.271   6.011   2.619  3.2145 -0.6041  0.9611
    8MOL   H214 3028   7.239   5.814   2.768  0.5552 -0.7515  0.0993
    8MOL   H215 3029   7.246   5.727   3.192 -0.4441 -0.5951 -0.7309
    8MOL   H216 3030   7.322   5.889   3.188  0.2362  0.1014 -1.9908
    8MOL   H217 3031   7.147   5.866   3.217  0.9951  2.5814  0.6131
    8MOL   H218 3032   7.177   6.082   3.109 -0.2771  2.0084  0.2153
    8MOL   H219 3033   7.201   6.270   2.946 -0.1086  1.2473 -1.5057
    8MOL   H220 3034   7.034   6.260   2.630 -0.3883 -0.0560  0.0304
    8MOL   H221 3035   7.130   6.217   2.500 -0.0586  0.3537 -0.1401
    8MOL   C222 3036   7.089   6.419   2.496  0.2795 -0.6953  0.5219
    8MOL   C223 3037   7.076   6.541   2.588 -0.2580  0.3669  0.0165
    8MOL   C224 3038   7.193   6.613   2.622 -0.2873 -0.3296 -0.3414
    8MOL   C225 3039   7.192   6.731   2.697 -0.5918 -0.2398 -0.5219
    8MOL   C226 3040   7.068   6.786   2.732  0.3168  0.1698  0.6554
    8MOL   O227 3041   7.073   6.896   2.804 -0.8448 -0.1008 -0.0052
    8MOL   C228 3042   6.956   6.980   2.818  0.1909  0.3970  0.4668
    8MOL   C229 3043   6.952   6.723   2.687  0.0005  0.2143 -0.9839
    8MOL   C230 3044   6.955   6.603   2.615  0.6026  0.1795  0.5999
    8MOL   C231 3045   7.155   6.438   2.361 -0.3149 -0.1536  1.0325
    8MOL   H232 3046   6.988   6.403   2.460  0.9390 -0.1184 -1.6339
    8MOL   H233 3047   7.286   6.566   2.594 -0.3484  0.3207 -1.6607
    8MOL   H234 3048   7.290   6.769   2.722 -0.2281  0.6251 -3.1423
    8MOL   H235 3049   6.971   7.072   2.873  0.6574 -0.6811  2.1742
    8MOL   H236 3050   6.930   7.015   2.718  0.9893  1.4451  0.6298
    8MOL   H237 3051   6.871   6.927   2.863  0.2989 -0.9272 -0.8275
    8MOL   H238 3052   6.855   6.762   2.713 -0.7767 -1.5340 -1.1136
    8MOL   H239 3053   6.863   6.551   2.590  1.7071 -1.1608 -0.8046
    8MOL   H240 3054   7.257   6.460   2.393  0.0809 -0.4152 -0.0099
    8MOL   H241 3055   7.171   6.344   2.308 -1.9427 -1.0853  2.1402
    8MOL   C242 3056   7.107   6.542   2.254 -0.2882 -0.4541 -0.2074
    8MOL   C243 3057   6.963   6.524   2.198  0.0108 -0.3253 -0.4610
    8MOL   C244 3058   6.850   6.565   2.272 -0.1609  0.5511  0.0699
    8MOL   C245 3059   6.724   6.554   2.213 -0.9165 -0.1895 -0.7008
    8MOL   C246 3060   6.706   6.500   2.084 -0.1753 -0.0995  0.6662
    8MOL   O247 3061   6.577   6.500   2.027  0.4240 -0.5844  0.0013
    8MOL   C248 3062   6.570   6.496   1.885  0.4521 -0.0363 -0.1391
    8MOL   C249 3063   6.819   6.449   2.015 -0.1790 -0.0474 -0.0958
    8MOL   C250 3064   6.945   6.467   2.069  0.5090  0.1555  0.5265
    8MOL   C251 3065   7.138   6.685   2.289 -0.4349 -0.1028 -0.1036
    8MOL   H252 3066   7.167   6.522   2.165 -2.8282  0.7966 -2.2978
    8MOL   H253 3067   6.866   6.606   2.371 -0.0360  0.2496  0.1753
    8MOL   H254 3068   6.637   6.589   2.267  0.1803 -1.2292  1.8272
    8MOL   H255 3069   6.486   6.541   1.833 -0.3962 -1.5437 -0.0804
    8MOL   H256 3070   6.661   6.546   1.850  0.3364  1.3559  1.4685
    8MOL   H257 3071   6.572   6.390   1.861  2.9948 -0.4230  1.5327
    8MOL   H258 3072   6.815   6.407   1.916  2.3548  1.5139 -0.8933
    8MOL   H259 3073   7.039   6.439   2.023  0.1781  2.3424 -1.5733
    8MOL   H260 3074   7.244   6.683   2.314 -0.0179 -0.1393 -1.7886
    8MOL   H261 3075   7.093   6.724   2.380  0.8093 -0.2927  0.6071
    8MOL   C262 3076   7.123   6.796   2.177  0.0144  0.3067  0.4675
    8MOL   C263 3077   7.144   6.750   2.031  0.7402  0.0217 -0.1593
    8MOL   C264 3078   7.279   6.712   2.003  0.8979 -0.3687  0.5923
    8MOL   C265 3079   7.314   6.665   1.873 -0.4644  0.2749 -0.4582
    8MOL   C266 3080   7.217   6.651   1.774 -0.1511 -0.3756 -0.2926
    8MOL   O267 3081   7.267   6.608   1.657 -0.2825 -0.1160  0.2410
    8MOL   C268 3082   7.180   6.580   1.550  0.0435  0.0338 -0.4365
    8MOL   C269 3083   7.079   6.699   1.800  0.0043  0.4576 -0.2079
    8MOL   C270 3084   7.052   6.752   1.928  0.3586  0.7081  0.4014
    8MOL   C271 3085   7.199   6.921   2.226 -0.2925  0.0569  0.0010
    8MOL   H272 3086   7.018   6.826   2.179  0.1123  0.8125 -1.2874
    8MOL   H273 3087   7.352   6.715   2.083 -0.3616  0.1194  1.7472
    8MOL   H274 3088   7.409   6.618   1.853 -0.2570  0.1998  0.6552
    8MOL   H275 3089   7.125   6.671   1.528 -3.3797 -1.0021  3.2972
    8MOL   H276 3090   7.110   6.507   1.591 -0.9535  0.6260 -1.0557
    8MOL   H277 3091   7.223   6.552   1.454 -2.2960 -0.4362 -1.3882
    8MOL   H278 3092   7.007   6.695   1.720 -1.5495 -1.3695  1.2209
    8MOL   H279 3093   6.949   6.783   1.941 -0.3029 -1.7316  1.1616
    8MOL   H280 3094   7.189   6.951   2.330  2.7713  0.5171  0.1864
    8MOL   H281 3095   7.304   6.891   2.228 -0.0789  0.8795  1.3763
    8MOL   C282 3096   7.163   7.044   2.138  0.3766 -0.2370 -0.1833
    8MOL   C283 3097   7.291   7.119   2.088  0.4230 -1.0261 -0.5174
    8MOL   C284 3098   7.385   7.179   2.175  0.2213  1.0367  0.1224
    8MOL   C285 3099   7.504   7.232   2.123 -0.0876  0.6314 -0.0691
    8MOL   C286 3100   7.533   7.225   1.984  0.4397  0.0390  0.4815
    8MOL   O287 3101   7.646   7.281   1.931  0.2873  0.0825  0.4235
    8MOL   C288 3102   7.701   7.395   1.997 -0.0207  0.8356 -0.2997
    8MOL   C289 3103   7.446   7.161   1.902 -0.2294  0.3540 -0.4184
    8MOL   C290 3104   7.324   7.112   1.951  0.3529 -0.4713  0.5037
    8MOL   C291 3105   7.062   7.133   2.211 -0.2671  0.1067  0.5295
    8MOL   H292 3106   7.113   7.008   2.049  2.8570 -1.4730 -1.1096
    8MOL   H293 3107   7.374   7.192   2.282 -2.7519  1.4851 -0.1988
    8MOL   H294 3108   7.571   7.276   2.195  0.3440  0.9384 -0.6522
    8MOL   H295 3109   7.631   7.478   2.010  2.6847  3.3645 -1.2720
    8MOL   H296 3110   7.736   7.381   2.099  0.4125  0.4660 -0.5006
    8MOL   H297 3111   7.786   7.436   1.944  0.3753  0.6685  0.2048
    8MOL   H298 3112   7.476   7.145   1.799 -1.3094  1.8037 -0.9763
    8MOL   H299 3113   7.256   7.078   1.875 -0.7784  0.9065  0.8809
    8MOL   H300 3114   6.995   7.078   2.277 -1.1017  0.1582 -0.2756
    8MOL   H301 3115   7.112   7.196   2.285 -1.7845  1.0273  0.8013
    8MOL   C302 3116   6.990   7.233   2.125 -0.1133 -0.9710  0.0772
    8MOL   C303 3117   6.916   7.161   2.014 -0.6375 -0.3389  0.5717
    8MOL   C304 3118   6.959   7.180   1.879  0.0870  0.5976 -0.7209
    8MOL   C305 3119   6.895   7.123   1.774 -0.4295  0.3965  0.4920
    8MOL   C306 3120   6.797   7.026   1.805  0.3337 -0.1515  0.6658
    8MOL   O307 3121   6.745   6.954   1.704 -0.9130 -0.1514  0.2098
    8MOL   C308 3122   6.671   6.839   1.731 -0.0036  0.4771  0.4406
    8MOL   C309 3123   6.758   7.005   1.942  0.2646 -0.3619  0.2208
    8MOL   C310 3124   6.812   7.072   2.045  0.2170 -0.3118  0.0006
    8MOL   C311 3125   6.896   7.325   2.212 -0.0169 -0.8762  0.1363
    8MOL   H312 3126   7.060   7.302   2.078 -1.6957 -0.0474 -0.9633
    8MOL   H313 3127   7.046   7.241   1.857 -0.0453  1.3080  0.6676
    8MOL   H314 3128   6.917   7.148   1.672 -0.5307 -1.6000 -0.0463
    8MOL   H315 3129   6.709   6.780   1.814 -3.0284  0.7554  2.1026
    8MOL   H316 3130   6.645   6.768   1.653  0.6758 -0.7655  1.3272
    8MOL   H317 3131   6.570   6.865   1.764  0.3631  1.1269  1.0824
    8MOL   H318 3132   6.673   6.941   1.957 -1.2906  1.8281  1.0418
    8MOL   H319 3133   6.785   7.062   2.148 -0.5507  2.6760  0.1474
    8MOL   H320 3134   6.959   7.380   2.282 -0.8035 -0.9004  0.8791
    8MOL   H321 3135   6.820   7.273   2.271 -1.1820 -0.8784 -1.3410
    8MOL   C322 3136   6.815   7.432   2.139 -0.0754  0.5845 -0.7319
    8MOL   C323 3137   6.886   7.509   2.025  0.2812 -0.9413  0.4350
    8MOL   C324 3138   6.849   7.502   1.884 -0.4448  0.4233 -0.1547
    8MOL   C325 3139   6.913   7.587   1.793  0.1113 -0.4100  0.0959
    8MOL   C326 3140   7.010   7.681   1.837  0.1040  0.3006 -0.3713
    8MOL   O327 3141   7.087   7.764   1.753  0.6275  0.2581  0.4074
    8MOL   C328 3142   7.050   7.776   1.616  0.1447 -0.2632  0.2778
    8MOL   C329 3143   7.033   7.701   1.974  0.1936 -0.1853 -0.0609
    8MOL   C330 3144   6.972   7.612   2.068 -0.2273  0.0541  0.7370
    8MOL   C331 3145   6.739   7.528   2.240 -0.7845 -0.2384  0.1790
    8MOL   H332 3146   6.727   7.380   2.100 -1.5463  1.5428  1.2291
    8MOL   H333 3147   6.774   7.435   1.846  0.8128 -1.9793  1.4564
    8MOL   H334 3148   6.897   7.572   1.688 -0.5781 -1.8722  0.3932
    8MOL   H335 3149   7.056   7.882   1.591 -0.7500 -0.5011 -0.9896
    8MOL   H336 3150   6.947   7.755   1.590 -0.7932  3.1297  0.9982
    8MOL   H337 3151   7.117   7.720   1.549 -0.2415 -1.5967  0.9988
    8MOL   H338 3152   7.101   7.779   2.005 -1.6028  0.1384  3.2108
    8MOL   H339 3153   6.989   7.629   2.173 -1.1853  2.0488  0.5886
    8MOL   H340 3154   6.681   7.485   2.321  2.0826 -1.9152  1.4448
    8MOL   H341 3155   6.818   7.577   2.297 -1.2377  0.0603  0.5454
    8MOL   C342 3156   6.647   7.642   2.180  0.0717 -0.2800  0.6786
    8MOL   C343 3157   6.593   7.759   2.280  0.4228 -0.1224  0.6278
    8MOL   C344 3158   6.555   7.884   2.217  0.6702 -0.2777  0.8256
    8MOL   C345 3159   6.514   7.997   2.298  0.7117 -0.3631 -0.1686
    8MOL   C346 3160   6.498   7.986   2.436 -0.1761  0.8598 -0.0046
    8MOL   O347 3161   6.465   0.044   2.525 -0.3167 -0.6861  0.0738
    8MOL   C348 3162   6.465   0.187   2.481 -0.0807  0.6988 -0.1213
    8MOL   C349 3163   6.520   7.857   2.494  0.1204 -0.4763  0.0919
    8MOL   C350 3164   6.572   7.747   2.421  0.0238 -0.5631 -0.5189
    8MOL   C351 3165   6.539   7.589   2.079  0.3149 -0.5339 -0.7453
    8MOL   H352 3166   6.716   7.691   2.111  1.6496 -1.8780  1.0815
    8MOL   H353 3167   6.564   7.900   2.111 -1.0155 -1.8170  0.4240
    8MOL   H354 3168   6.499   0.051   2.248  0.2536 -0.4065 -0.1161
    8MOL   H355 3169   6.561   0.215   2.437 -0.5430 -0.0650 -1.6415
    8MOL   H356 3170   6.383   0.219   2.417  0.1434 -1.5396 -1.6002
    8MOL   H357 3171   6.454   0.246   2.571 -0.2190 -0.6681  0.7704
    8MOL   H358 3172   6.502   7.837   2.598 -0.2507  2.1226  0.5735
    8MOL   H359 3173   6.591   7.651   2.467 -0.5463 -0.7021 -0.5700
    8MOL   H360 3174   6.517   7.672   2.011  0.9582 -0.3229 -0.7068
    8MOL   H361 3175   6.594   7.519   2.017 -0.7741 -2.7059  0.7032
    8MOL   C362 3176   6.420   7.522   2.151 -0.4752  0.0832 -0.0158
    8MOL   C363 3177   6.436   7.371   2.135 -0.0662  0.3184 -0.1685
    8MOL   C364 3178   6.477   7.293   2.244 -0.1496  0.7324  0.9518
    8MOL   C365 3179   6.502   7.156   2.233 -0.0795 -0.1559  0.1504
    8MOL   C366 3180   6.466   7.091   2.113  0.1717  0.6845 -0.4885
    8MOL   O367 3181   6.472   6.960   2.084  0.5225  0.2795 -0.5543
    8MOL   C368 3182   6.524   6.871   2.179 -0.3790  0.5141  0.0988
    8MOL   C369 3183   6.427   7.166   2.005  0.7374 -0.0188  0.2307
    8MOL   C370 3184   6.415   7.307   2.014  0.3395  0.1775 -0.1047
    8MOL   C371 3185   6.275   7.565   2.108  0.2483  0.5137  0.6974
    8MOL   H372 3186   6.429   7.543   2.258 -0.6114 -0.4348  0.1016
    8MOL   H373 3187   6.497   7.354   2.331  1.9981 -0.7257  1.5241
    8MOL   H374 3188   6.537   7.088   2.309  2.0389 -1.1221 -1.6249
    8MOL   H375 3189   6.475   6.852   2.275 -0.0441 -2.4728 -0.2883
    8MOL   H376 3190   6.517   6.771   2.137  0.8294  0.1245  0.7843
    8MOL   H377 3191   6.630   6.891   2.195 -0.5377  1.9587 -0.5788
    8MOL   H378 3192   6.404   7.115   1.913  0.7156 -2.0435  1.3146
    8MOL   H379 3193   6.401   7.368   1.926 -1.6509 -1.0615 -0.6749
    8MOL   H380 3194   6.271   7.674   2.105  2.0293  0.5782 -0.5400
    8MOL   H381 3195   6.248   7.545   2.004 -0.7633  0.5974  0.9396
    8MOL   C382 3196   6.165   7.511   2.200  0.3857 -0.4849  0.4170
    8MOL   C383 3197   6.044   7.460   2.120 -0.6997  0.1552 -0.3888
    8MOL   C384 3198   5.940   7.550   2.078 -0.0917  0.3814 -0.2205
    8MOL   C385 3199   5.842   7.504   1.994 -0.6659 -0.2747 -0.7636
    8MOL   C386 3200   5.833   7.373   1.949 -0.8945 -0.1724 -0.2612
    8MOL   O387 3201   5.715   7.343   1.889  0.0359 -0.5379 -0.0253
    8MOL   C388 3202   5.696   7.209   1.853  0.2176 -0.2059 -0.4764
    8MOL   C389 3203   5.934   7.278   1.995  0.1266  0.3912  0.1913
    8MOL   C390 3204   6.030   7.322   2.087  1.0468  0.0618 -0.4042
    8MOL   C391 3205   6.121   7.599   2.321 -0.1730 -0.3187 -0.0605
    8MOL   H392 3206   6.201   7.420   2.248  0.5351  0.1310  1.4953
    8MOL   H393 3207   5.938   7.654   2.107  0.5048  1.1348 -2.7697
    8MOL   H394 3208   5.770   7.577   1.959 -0.1290  1.0389  0.7951
    8MOL   H395 3209   5.602   7.212   1.798  0.6981 -1.2652 -1.3710
    8MOL   H396 3210   5.684   7.144   1.940  1.4974 -1.8532 -1.4917
    8MOL   H397 3211   5.777   7.165   1.795 -1.5841 -1.4896 -2.0922
    8MOL   H398 3212   5.927   7.172   1.977  2.7693 -0.1710  2.1933
    8MOL   H399 3213   6.088   7.241   2.126  1.9855  0.8903 -0.0592
    8MOL   H400 3214   6.048   7.551   2.387 -0.8945  0.5205 -0.2456
    8MOL   H401 3215   6.082   7.695   2.288 -0.9043 -0.3238  0.7752
    8MOL   H402 3216   6.208   7.612   2.386 -0.7439 -1.2836  0.9148
    9MOL     C1 3217   7.841   1.000   5.668  0.1553  0.3140  0.1867
    9MOL     C2 3218   7.854   1.073   5.796 -0.1436  0.4912  0.3736
    9MOL     C3 3219   7.748   1.162   5.831  0.5295  0.4263  0.0733
    9MOL     C4 3220   7.770   1.242   5.942 -0.3927  0.4509  0.2866
    9MOL     C5 3221   7.879   1.217   6.029 -0.2728  0.1712  0.1483
    9MOL     O6 3222   7.883   1.286   6.154 -0.4237 -0.0058  0.5335
    9MOL     C7 3223   7.774   1.351   6.209 -0.0562 -0.0026  0.0673
    9MOL     C8 3224   7.984   1.133   5.990  0.0322 -0.7013 -0.5096
    9MOL     C9 3225   7.975   1.070   5.862  0.6111  0.2240  0.0384
    9MOL    C10 3226   7.781   0.856   5.687 -0.0638  0.3849  0.2612
    9MOL    H11 3227   7.936   0.994   5.614 -0.4870 -0.5430 -0.8779
    9MOL    H12 3228   7.659   1.184   5.774  1.4216 -0.9023 -1.8526
    9MOL    H13 3229   7.678   1.288   5.974 -0.7064 -1.3361  2.0790
    9MOL    H14 3230   7.675   1.308   6.191 -1.3044  2.0953  1.7490
    9MOL    H15 3231   7.789   1.348   6.317  1.3127 -0.0984 -0.1155
    9MOL    H16 3232   7.770   1.451   6.167  1.2575 -0.8323 -2.1885
    9MOL    H17 3233   0.021   1.112   6.063  1.6155 -0.1102 -1.9892
    9MOL    H18 3234   0.022   1.017   5.826 -1.2951 -1.8272 -1.7197
    9MOL    H19 3235   7.860   0.798   5.734  1.1056  2.3920  0.8341
    9MOL    H20 3236   7.707   0.859   5.767 -1.7537 -1.7305 -1.1615
    9MOL    H21 3237   7.774   1.054   5.601 -1.2855  0.7499  1.9253
    9MOL    C22 3238   7.733   0.798   5.561 -0.2566  0.8250  0.2514
    9MOL    C23 3239   7.753   0.645   5.563  0.2058 -0.6054 -0.1398
    9MOL    C24 3240   7.692   0.566   5.662  0.5368  0.1580  0.2668
    9MOL    C25 3241   7.716   0.427   5.669 -0.3566  0.1228 -0.5516
    9MOL    C26 3242   7.789   0.365   5.562  0.6984 -0.7675  0.2274
    9MOL    O27 3243   7.813   0.235   5.542 -0.3533  0.0566  0.0061
    9MOL    C28 3244   7.780   0.143   5.649  0.1679  0.0674 -0.4900
    9MOL    C29 3245   7.843   0.443   5.456  0.1408  0.3444 -0.1248
    9MOL    C30 3246   7.830   0.583   5.456  0.5523  0.3763 -0.5475
    9MOL    C31 3247   7.585   0.838   5.522  0.3818 -0.8695  0.4281
    9MOL    H32 3248   7.797   0.830   5.479  1.0166 -1.1313  0.4531
    9MOL    H33 3249   7.634   0.609   5.742 -2.1058 -2.5116 -0.1382
    9MOL    H34 3250   7.678   0.365   5.749 -0.6653  1.6587  0.5142
    9MOL    H35 3251   7.857   0.151   5.726  0.0544  1.8439 -0.5304
    9MOL    H36 3252   7.769   0.041   5.612 -3.2161  0.8464 -1.8266
    9MOL    H37 3253   7.681   0.164   5.688  0.2265 -1.3561  0.4381
    9MOL    H38 3254   7.902   0.387   5.384  1.1249  0.8505  0.2805
    9MOL    H39 3255   7.870   0.652   5.383  0.3556  0.4901 -0.5495
    9MOL    H40 3256   7.516   0.791   5.593 -0.3578  1.8361  1.5778
    9MOL    H41 3257   7.567   0.941   5.552 -1.4046 -1.3197  1.0367
    9MOL    C42 3258   7.533   0.807   5.384  0.5063 -0.3636  0.4387
    9MOL    C43 3259   7.622   0.874   5.279  0.5439  0.2936 -0.3091
    9MOL    C44 3260   7.698   0.800   5.192 -1.2698  0.1483  0.2056
    9MOL    C45 3261   7.791   0.866   5.113 -0.2989 -0.7128 -0.0708
    9MOL    C46 3262   7.807   1.008   5.117 -0.3708 -0.3547 -0.6578
    9MOL    O47 3263   7.898   1.085   5.051  0.1060 -0.1745 -0.3861
    9MOL    C48 3264   7.983   1.018   4.961 -0.2338 -0.4511 -0.0253
    9MOL    C49 3265   7.722   1.081   5.201 -0.5734  0.4496  0.2732
    9MOL    C50 3266   7.636   1.013   5.287  0.0691 -0.2593 -0.1572
    9MOL    C51 3267   7.379   0.849   5.373 -0.5113 -0.4505 -0.4019
    9MOL    H52 3268   7.529   0.699   5.371 -0.7189 -0.3480  0.6128
    9MOL    H53 3269   7.697   0.692   5.181 -1.2253 -0.1344  2.8309
    9MOL    H54 3270   7.856   0.808   5.050 -1.0962 -3.5983  1.6416
    9MOL    H55 3271   8.034   0.936   5.012 -2.4353 -2.4646 -0.9273
    9MOL    H56 3272   7.920   0.978   4.881 -0.9117  1.1382 -0.2865
    9MOL    H57 3273   0.017   1.088   4.923 -0.7359 -0.2957 -0.7264
    9MOL    H58 3274   7.744   1.185   5.215  2.3408 -0.2900  1.6015
    9MOL    H59 3275   7.573   1.071   5.352 -0.6380 -0.8389 -0.3294
    9MOL    H60 3276   7.364   0.954   5.399  0.9804  0.1763 -1.9841
    9MOL    H61 3277   7.316   0.796   5.444  0.8220 -1.1995  0.2413
    9MOL    C62 3278   7.318   0.837   5.236 -0.0059  0.2558 -0.9063
    9MOL    C63 3279   7.203   0.935   5.216 -0.3158  0.1595  0.0830
    9MOL    C64 3280   7.069   0.921   5.260  0.4470  0.5957  0.2404
    9MOL    C65 3281   6.974   1.024   5.246 -0.1104 -0.3261 -0.2667
    9MOL    C66 3282   7.018   1.148   5.195  0.6317  0.3600  0.2119
    9MOL    O67 3283   6.931   1.253   5.186  0.2658 -0.1747  0.1421
    9MOL    C68 3284   6.789   1.236   5.199 -0.3275  0.1050  0.2983
    9MOL    C69 3285   7.148   1.166   5.141  0.0039 -0.6176 -0.6559
    9MOL    C70 3286   7.238   1.061   5.162 -0.0970  0.2467 -0.9322
    9MOL    C71 3287   7.274   0.689   5.213 -0.0884  0.8493 -0.3723
    9MOL    H72 3288   7.394   0.852   5.159  1.1230 -3.3703 -0.5819
    9MOL    H73 3289   7.048   0.829   5.312  1.6329 -1.1303 -2.2146
    9MOL    H74 3290   6.873   1.019   5.284 -0.4993  1.2639 -1.0292
    9MOL    H75 3291   6.738   1.178   5.121  2.2411  0.3434 -1.6418
    9MOL    H76 3292   6.746   1.336   5.199  0.6715  0.5528  0.8004
    9MOL    H77 3293   6.762   1.204   5.299 -0.9095  1.1270  0.4699
    9MOL    H78 3294   7.172   1.254   5.082 -0.9977 -0.1037 -0.3034
    9MOL    H79 3295   7.339   1.067   5.125 -0.6383  0.7488 -2.3652
    9MOL    H80 3296   7.236   0.633   5.299 -0.4206  2.3065  0.4377
    9MOL    H81 3297   7.187   0.695   5.147 -0.4876 -0.6300 -0.0010
    9MOL    C82 3298   7.372   0.593   5.151  1.0374  0.3822 -1.2115
    9MOL    C83 3299   7.351   0.456   5.223 -0.6563 -0.8262 -0.4380
    9MOL    C84 3300   7.226   0.385   5.216 -1.2281  0.5761 -0.3808
    9MOL    C85 3301   7.213   0.260   5.284 -0.0746  0.3648  0.1362
    9MOL    C86 3302   7.320   0.207   5.351  0.3154 -0.8713  0.0227
    9MOL    O87 3303   7.308   0.092   5.420  0.5765 -0.4639 -0.4106
    9MOL    C88 3304   7.425   0.016   5.454 -0.5654 -0.6700  0.4921
    9MOL    C89 3305   7.444   0.276   5.353 -0.6329 -0.3913 -0.5604
    9MOL    C90 3306   7.460   0.400   5.287  0.3443 -0.2637 -0.1665
    9MOL    C91 3307   7.370   0.590   4.997  0.7911 -0.0748 -0.2588
    9MOL    H92 3308   7.473   0.624   5.176  0.6257  0.2620  0.7171
    9MOL    H93 3309   7.148   0.423   5.153 -2.8419 -0.6358  0.8497
    9MOL    H94 3310   7.121   0.205   5.275  1.9854 -3.5310  1.7874
    9MOL    H95 3311   7.512   0.024   5.389 -1.1297 -1.6706 -0.4092
    9MOL    H96 3312   7.386   7.955   5.439 -0.1166 -0.6020 -1.2122
    9MOL    H97 3313   7.447   0.035   5.559 -0.6821 -1.5220  0.6663
    9MOL    H98 3314   7.523   0.234   5.414 -1.6329 -2.2865 -0.5266
    9MOL    H99 3315   7.552   0.456   5.290 -0.0225  0.5224 -2.4719
    9MOL   H100 3316   7.268   0.575   4.961  1.8339 -1.1567 -2.9525
    9MOL   H101 3317   7.393   0.687   4.953  2.3711  0.5351  1.7925
    9MOL   C102 3318   7.456   0.489   4.935 -0.8463  0.5354 -0.2332
    9MOL   C103 3319   7.435   0.477   4.788 -0.1311  0.8492  0.2314
    9MOL   C104 3320   7.462   0.586   4.701  1.0913  0.2365  0.5512
    9MOL   C105 3321   7.443   0.577   4.559 -0.0501 -0.1053  0.3979
    9MOL   C106 3322   7.381   0.461   4.503  0.5210 -0.0966  0.3138
    9MOL   O107 3323   7.357   0.465   4.369  0.1808 -0.1615 -0.2782
    9MOL   C108 3324   7.290   0.365   4.295 -0.5445 -0.7650 -0.2449
    9MOL   C109 3325   7.350   0.351   4.588  0.1312  0.1047  0.2848
    9MOL   C110 3326   7.381   0.359   4.727 -0.2216  0.2567 -1.0167
    9MOL   C111 3327   7.610   0.511   4.956  0.3870 -0.3256  0.4670
    9MOL   H112 3328   7.431   0.391   4.976 -2.6516  1.0960  0.0467
    9MOL   H113 3329   7.501   0.678   4.743  0.6231  0.9270 -0.5095
    9MOL   H114 3330   7.468   0.657   4.491 -1.8152 -0.7893 -1.0978
    9MOL   H115 3331   7.231   0.292   4.350  0.7858  0.3433  2.7374
    9MOL   H116 3332   7.239   0.391   4.202  1.1621  0.5620 -0.8488
    9MOL   H117 3333   7.372   0.304   4.255 -0.3844 -0.3563 -0.5438
    9MOL   H118 3334   7.307   0.260   4.551 -1.0536  1.0853 -0.7646
    9MOL   H119 3335   7.346   0.269   4.775 -0.0684  1.1223  0.7307
    9MOL   H120 3336   7.648   0.600   4.904  0.2736 -1.6736 -2.0022
    9MOL   H121 3337   7.632   0.522   5.062  0.8431 -1.5388  0.4993
    9MOL   C122 3338   7.698   0.399   4.899 -0.3823 -0.1809  0.1039
    9MOL   C123 3339   7.709   0.276   4.991  0.0541  0.3079  0.5106
    9MOL   C124 3340   7.653   0.154   4.952  0.2117 -0.2170 -0.4222
    9MOL   C125 3341   7.662   0.036   5.027 -0.1218  0.1211 -0.4425
    9MOL   C126 3342   7.732   0.044   5.152  0.8519 -0.3213 -0.2807
    9MOL   O127 3343   7.749   7.980   5.238 -0.4508  0.4943 -0.4189
    9MOL   C128 3344   7.677   7.864   5.215 -0.3616  0.7248 -0.3373
    9MOL   C129 3345   7.785   0.165   5.193  0.6637 -0.2424  0.0259
    9MOL   C130 3346   7.777   0.277   5.114 -0.1600 -0.6302  0.1429
    9MOL   C131 3347   7.843   0.450   4.856 -0.1940 -0.0766  0.6598
    9MOL   H132 3348   7.655   0.358   4.808 -1.5315 -0.6715  0.8489
    9MOL   H133 3349   7.609   0.153   4.854 -0.5212  2.3774 -0.1745
    9MOL   H134 3350   7.611   7.984   5.004  0.7852 -0.5767  0.2921
    9MOL   H135 3351   7.688   7.790   5.294  0.9811  0.7543 -0.4774
    9MOL   H136 3352   7.569   7.878   5.206 -0.5806 -1.1377 -0.9541
    9MOL   H137 3353   7.718   7.816   5.126 -0.1743 -0.7714  0.5343
    9MOL   H138 3354   7.834   0.180   5.288 -1.6925  0.2685  1.2000
    9MOL   H139 3355   7.805   0.371   5.159  0.5924 -0.5027 -0.5744
    9MOL   H140 3356   7.901   0.477   4.944 -1.8994  0.0258  1.7678
    9MOL   H141 3357   7.837   0.548   4.808  0.5485 -1.4633 -2.3912
    9MOL   C142 3358   7.917   0.353   4.760  0.7528 -0.0529 -0.2976
    9MOL   C143 3359   7.843   0.356   4.626 -0.3290  0.0120 -0.4139
    9MOL   C144 3360   7.848   0.470   4.542  0.2181  0.6108  0.4655
    9MOL   C145 3361   7.790   0.464   4.410 -0.4206  0.0956 -0.4673
    9MOL   C146 3362   7.712   0.349   4.369 -0.1947  0.4363  0.5354
    9MOL   O147 3363   7.646   0.342   4.250  0.2379 -0.2306  0.5308
    9MOL   C148 3364   7.619   0.460   4.171  0.7911 -0.5402 -0.1106
    9MOL   C149 3365   7.702   0.244   4.463 -0.1822  0.4319 -0.0110
    9MOL   C150 3366   7.776   0.240   4.583  0.4273  0.3273  0.1581
    9MOL   C151 3367   0.023   0.389   4.735 -0.3974 -0.3748  0.3923
    9MOL   H152 3368   7.907   0.253   4.802  0.2448 -0.6400 -1.8159
    9MOL   H153 3369   7.890   0.567   4.564 -0.6141  1.5008 -1.7559
    9MOL   H154 3370   7.788   0.552   4.348 -0.3859  1.4714  1.4492
    9MOL   H155 3371   7.549   0.428   4.094 -0.3876 -2.1153  1.5645
    9MOL   H156 3372   7.576   0.535   4.237  1.9807  0.4490 -0.4375
    9MOL   H157 3373   7.712   0.496   4.127 -0.1114 -1.6933 -3.0648
    9MOL   H158 3374   7.638   0.163   4.432  2.3883 -2.2601  1.5177
    9MOL   H159 3375   7.776   0.161   4.657  1.7491  0.1218 -0.0572
    9MOL   H160 3376   0.024   0.498   4.723 -0.1952 -0.2496  1.4624
    9MOL   H161 3377   0.075   0.342   4.651  0.2625 -0.7073  0.9770
    9MOL   C162 3378   0.104   0.355   4.867 -0.4017 -0.0965  0.7099
    9MOL   C163 3379   0.144   0.476   4.952  0.0840 -0.7012 -0.0372
    9MOL   C164 3380   0.203   0.588   4.892  0.7191 -0.0029  0.3405
    9MOL   C165 3381   0.246   0.699   4.967 -0.2641 -0.1484  0.3839
    9MOL   C166 3382   0.215   0.707   5.105  0.3899 -0.1124 -0.8134
    9MOL   O167 3383   0.266   0.799   5.196 -0.1533 -0.0510 -0.1829
    9MOL   C168 3384   0.348   0.898   5.146 -0.3297  0.3135  0.0677
    9MOL   C169 3385   0.149   0.599   5.167  0.9127  0.0503 -0.2621
    9MOL   C170 3386   0.112   0.487   5.094 -0.3363 -0.5097  0.0440
    9MOL   C171 3387   0.229   0.269   4.834  0.2727 -1.0714 -0.1010
    9MOL   H172 3388   0.043   0.292   4.932 -1.3579 -1.0707 -1.0728
    9MOL   H173 3389   0.242   0.585   4.792  3.7475 -1.2372  1.4810
    9MOL   H174 3390   0.306   0.773   4.916  0.8555 -0.8207  0.7125
    9MOL   H175 3391   0.388   0.969   5.218 -0.5618  1.0250 -0.5033
    9MOL   H176 3392   0.286   0.965   5.086  0.6931  1.9772  0.8447
    9MOL   H177 3393   0.428   0.859   5.083 -0.5073  1.6851 -1.0328
    9MOL   H178 3394   0.141   0.616   5.274 -0.4418  0.3279 -0.3907
    9MOL   H179 3395   0.055   0.416   5.150  0.9402 -2.4055 -0.9832
    9MOL   H180 3396   0.296   0.252   4.919  1.2890  0.1955 -0.6205
    9MOL   H181 3397   0.301   0.332   4.781 -0.3620 -1.3709 -1.3308
    9MOL   C182 3398   0.213   0.138   4.751 -0.5250 -0.1345 -0.6442
    9MOL   C183 3399   0.142   0.035   4.836  0.0088  0.5673 -0.5372
    9MOL   C184 3400   0.207   8.014   4.946 -0.1530  0.0365  0.4466
    9MOL   C185 3401   0.136   7.916   5.017 -0.4976 -0.3459 -0.2254
    9MOL   C186 3402   0.013   7.864   4.965 -1.2277  0.0093  0.1788
    9MOL   O187 3403   7.984   7.750   5.007  0.8061  0.7193 -0.2062
    9MOL   C188 3404   8.032   7.689   5.127 -0.1015 -0.0899  0.0625
    9MOL   C189 3405   8.000   7.915   4.845  0.2784 -0.4277 -0.2101
    9MOL   C190 3406   0.016   8.026   4.786  0.1537 -0.2469 -0.4663
    9MOL   C191 3407   0.347   0.086   4.690  0.3295  0.0928 -0.4453
    9MOL   H192 3408   0.136   0.171   4.682 -0.3977  0.1806 -0.6390
    9MOL   H193 3409   0.305   0.006   4.979 -0.1287 -0.8765  1.2743
    9MOL   H194 3410   0.175   7.872   5.108  0.8757 -0.8423 -1.0376
    9MOL   H195 3411   0.084   7.633   5.112  0.1984  0.0262  1.4448
    9MOL   H196 3412   7.968   7.612   5.170 -1.5575 -1.0672 -3.6345
    9MOL   H197 3413   0.010   7.771   5.196  2.6449  0.6774 -1.5073
    9MOL   H198 3414   7.915   7.867   4.799  2.2763 -3.4792 -0.8396
    9MOL   H199 3415   8.003   0.027   4.702  0.9541 -0.1834 -0.9464
    9MOL   H200 3416   0.421   0.166   4.688 -2.2211  2.5330 -2.2387
    9MOL   H201 3417   0.393   0.023   4.765 -0.3195  0.6752  0.4548
    9MOL   C202 3418   0.345   0.012   4.554  0.2889 -0.1293  0.7603
    9MOL   C203 3419   0.275   0.106   4.450  0.5673 -0.3123 -0.5280
    9MOL   C204 3420   0.356   0.199   4.378  0.4526  0.4745 -0.0789
    9MOL   C205 3421   0.295   0.285   4.285 -0.0356 -0.3872  0.2159
    9MOL   C206 3422   0.160   0.285   4.262 -0.4982  0.2631 -0.1105
    9MOL   O207 3423   0.105   0.367   4.166  0.0285  0.2080  0.4352
    9MOL   C208 3424   8.026   0.325   4.105  0.1385  0.1372  0.3992
    9MOL   C209 3425   0.076   0.209   4.352  0.1033 -0.6238  0.1252
    9MOL   C210 3426   0.130   0.107   4.438 -0.6349 -0.0467 -0.2822
    9MOL   C211 3427   0.295   7.905   4.552  0.8092  0.5056  0.4372
    9MOL   H212 3428   0.444   0.001   4.510 -0.7304 -1.2916 -1.3291
    9MOL   H213 3429   0.462   0.199   4.398 -0.0333  1.4497  2.8195
    9MOL   H214 3430   0.346   0.366   4.235  0.4968 -0.6663  0.3082
    9MOL   H215 3431   8.017   0.377   4.010 -0.6578  1.3973  1.1449
    9MOL   H216 3432   8.025   0.218   4.083  0.3685 -0.4353  2.9643
    9MOL   H217 3433   7.938   0.357   4.161 -0.0293  0.1327  0.1370
    9MOL   H218 3434   8.009   0.227   4.349 -0.1369 -2.1359 -0.9089
    9MOL   H219 3435   0.071   0.036   4.494 -0.1151  2.0508  3.0656
    9MOL   H220 3436   0.195   7.904   4.594 -0.2863 -1.9734 -2.0440
    9MOL   H221 3437   0.358   7.847   4.620  0.6054  0.0786  0.2616
    9MOL   C222 3438   0.306   7.839   4.415  0.3732 -0.7805 -0.4873
    9MOL   C223 3439   0.447   7.835   4.365 -0.0629  0.7223  0.5335
    9MOL   C224 3440   0.541   7.753   4.424 -0.4008  0.5107 -0.2953
    9MOL   C225 3441   0.668   7.750   4.369 -0.2625  0.4481 -0.3263
    9MOL   C226 3442   0.709   7.835   4.267  0.4244 -0.1736  0.1056
    9MOL   O227 3443   0.843   7.845   4.243  0.3727 -0.4176 -0.1475
    9MOL   C228 3444   0.881   7.899   4.116  0.1045 -0.4257 -0.1816
    9MOL   C229 3445   0.610   7.916   4.203  0.8753 -0.6535 -0.6235
    9MOL   C230 3446   0.476   7.916   4.251  0.4889  0.2543  0.2128
    9MOL   C231 3447   0.246   7.698   4.412  0.6988 -0.0516  0.1508
    9MOL   H232 3448   0.246   7.894   4.343  0.6751  0.0265 -0.1203
    9MOL   H233 3449   0.521   7.689   4.509 -0.8942 -1.7617 -2.0876
    9MOL   H234 3450   0.738   7.690   4.426 -1.1830  0.0786  0.4367
    9MOL   H235 3451   0.986   7.869   4.107  0.1622 -0.2918  0.0292
    9MOL   H236 3452   0.823   7.854   4.036 -0.8277 -1.0800  0.8385
    9MOL   H237 3453   0.871   8.006   4.099 -3.9164 -0.8996 -1.1235
    9MOL   H238 3454   0.632   7.977   4.116  1.9265  0.3802  0.3540
    9MOL   H239 3455   0.403   7.979   4.204 -2.2199 -3.4084 -0.7691
    9MOL   H240 3456   0.292   7.634   4.336 -0.0978  0.4276 -0.7355
    9MOL   H241 3457   0.267   7.638   4.501  1.0660 -0.3787 -0.1517
    9MOL   C242 3458   0.098   7.692   4.376  0.4120 -0.2032 -0.3937
    9MOL   C243 3459   0.068   7.749   4.230  0.4296 -0.0170  0.4015
    9MOL   C244 3460   0.122   7.689   4.121  0.2677 -0.1051 -0.1562
    9MOL   C245 3461   0.095   7.735   3.989  0.1050 -0.1306 -0.6616
    9MOL   C246 3462   0.001   7.836   3.966 -0.2589 -0.4758 -0.1894
    9MOL   O247 3463   8.031   7.886   3.841  0.5579  0.1357  0.3527
    9MOL   C248 3464   7.979   8.018   3.822 -0.8227  0.8001  0.3083
    9MOL   C249 3465   7.970   7.889   4.076  0.2919  0.5174 -0.6083
    9MOL   C250 3466   8.009   7.852   4.205  0.2907  0.7339 -0.1889
    9MOL   C251 3467   0.038   7.552   4.408  0.2012 -0.4344 -0.1963
    9MOL   H252 3468   0.042   7.759   4.441  1.8948 -0.4834  1.1965
    9MOL   H253 3469   0.187   7.605   4.134  0.1719 -0.0640  0.6141
    9MOL   H254 3470   0.143   7.676   3.913  1.4758 -0.6014  0.5326
    9MOL   H255 3471   8.021   0.046   3.895 -0.1583 -0.4652  1.1191
    9MOL   H256 3472   7.997   0.002   3.717 -0.9115 -3.3662 -0.7770
    9MOL   H257 3473   7.873   8.018   3.847 -0.8786  1.3787  0.0817
    9MOL   H258 3474   7.898   7.970   4.065 -0.1920  0.0054 -1.2601
    9MOL   H259 3475   7.964   7.893   4.294  2.8812  1.3806  0.8826
    9MOL   H260 3476   0.119   7.481   4.391  1.4663  1.0540 -0.4940
    9MOL   H261 3477   8.009   7.543   4.325 -1.0827 -0.5735  0.8617
    9MOL   C262 3478   8.015   7.533   4.552  0.5343 -0.5098  0.2034
    9MOL   C263 3479   0.089   7.500   4.650  0.5124  0.9116 -0.3606
    9MOL   C264 3480   0.145   7.371   4.655 -0.7535 -0.0751 -0.2632
    9MOL   C265 3481   0.259   7.347   4.734 -0.4883  0.4515 -0.1502
    9MOL   C266 3482   0.313   7.439   4.820 -0.3850  0.4644  0.1817
    9MOL   O267 3483   0.413   7.398   4.907  0.1376 -0.3153 -0.2646
    9MOL   C268 3484   0.430   7.476   5.025  0.1001 -0.6445 -0.1522
    9MOL   C269 3485   0.249   7.565   4.827 -0.2808  0.0310 -0.4451
    9MOL   C270 3486   0.137   7.594   4.742  0.4297  0.1885 -0.1829
    9MOL   C271 3487   7.909   7.426   4.561  0.2951  0.1248  0.3653
    9MOL   H272 3488   7.969   7.629   4.579 -3.4570 -2.5610  0.9826
    9MOL   H273 3489   0.113   7.293   4.587  0.1175 -1.1765  0.5700
    9MOL   H274 3490   0.311   7.253   4.722 -0.2571  0.5154  0.3499
    9MOL   H275 3491   0.471   7.389   5.078  1.1458 -0.1586 -0.1394
    9MOL   H276 3492   0.331   7.498   5.063 -0.7288 -2.7759 -0.9892
    9MOL   H277 3493   0.500   7.559   5.014  0.6376 -1.0655  0.0350
    9MOL   H278 3494   0.293   7.647   4.881 -0.4804 -0.5494  0.6372
    9MOL   H279 3495   0.101   7.695   4.728 -1.8900 -0.3562  1.5080
    9MOL   H280 3496   7.952   7.334   4.521  2.0862  1.2704 -0.3933
    9MOL   H281 3497   7.882   7.412   4.666  0.9887  1.5624  0.7457
    9MOL   C282 3498   7.778   7.469   4.485 -0.1012  0.6366 -0.7628
    9MOL   C283 3499   7.716   7.598   4.545  0.0160  0.0189  0.0660
    9MOL   C284 3500   7.704   7.720   4.465  0.2111  0.0945 -0.5757
    9MOL   C285 3501   7.649   7.832   4.524  0.1620 -0.2917 -0.4090
    9MOL   C286 3502   7.610   7.829   4.659  0.2834 -0.0652 -0.6877
    9MOL   O287 3503   7.546   7.938   4.720  0.0175  0.1354 -0.9350
    9MOL   C288 3504   7.445   8.006   4.658  0.5224  0.3957  0.4080
    9MOL   C289 3505   7.623   7.717   4.736 -1.4678  0.4032 -0.6870
    9MOL   C290 3506   7.680   7.602   4.679  0.0984 -0.0862 -0.6394
    9MOL   C291 3507   7.684   7.346   4.495  0.3438 -0.8409 -0.5745
    9MOL   H292 3508   7.807   7.477   4.380  2.5274 -0.7478 -0.1828
    9MOL   H293 3509   7.733   7.715   4.361 -1.6227  2.2872 -1.2394
    9MOL   H294 3510   7.630   7.925   4.472 -0.9378  0.3628  1.1326
    9MOL   H295 3511   7.482   0.032   4.580  1.2486  1.3163  1.5320
    9MOL   H296 3512   7.371   7.941   4.610  0.3952  2.4271 -2.2469
    9MOL   H297 3513   7.399   0.035   4.729  0.6344 -0.5535  1.4153
    9MOL   H298 3514   7.595   7.717   4.841  1.3612 -0.3640  0.1043
    9MOL   H299 3515   7.681   7.519   4.749  1.7827 -0.3253 -0.9335
    9MOL   H300 3516   7.695   7.302   4.595  0.5913  1.3232  0.3668
    9MOL   H301 3517   7.582   7.383   4.488 -0.1149 -2.1980 -1.3734
    9MOL   C302 3518   7.703   7.232   4.387  0.3158  0.4936 -0.8601
    9MOL   C303 3519   7.632   7.115   4.442  0.4764 -0.1306 -0.1971
    9MOL   C304 3520   7.688   7.042   4.550 -0.7668 -0.1434  0.6393
    9MOL   C305 3521   7.619   6.953   4.629  0.5815 -0.5661  0.3272
    9MOL   C306 3522   7.490   6.913   4.585  0.7477  0.2137  0.0693
    9MOL   O307 3523   7.410   6.810   4.643  0.1165  0.0456 -0.5176
    9MOL   C308 3524   7.479   6.730   4.745 -0.4852 -0.4345  0.0942
    9MOL   C309 3525   7.442   6.965   4.461  0.3442  0.1402 -0.3190
    9MOL   C310 3526   7.506   7.072   4.401  1.2598 -0.1645 -0.7413
    9MOL   C311 3527   7.675   7.267   4.236 -0.4684  0.2582 -0.0731
    9MOL   H312 3528   7.805   7.193   4.393 -0.0618 -0.7150 -1.9509
    9MOL   H313 3529   7.787   7.064   4.589  0.7776 -1.9370 -2.0632
    9MOL   H314 3530   7.661   6.922   4.723  0.1752  0.9917  1.0339
    9MOL   H315 3531   7.566   6.682   4.700  0.8242  0.4321  1.6514
    9MOL   H316 3532   7.402   6.663   4.783 -1.5235  0.7775  0.1627
    9MOL   H317 3533   7.510   6.797   4.825  1.1631  0.2342 -1.0704
    9MOL   H318 3534   7.353   6.916   4.423  0.7353 -0.0585 -0.9708
    9MOL   H319 3535   7.467   7.106   4.306  1.4479  1.4863 -0.2400
    9MOL   H320 3536   7.721   7.366   4.229  0.9544 -0.5429 -2.8517
    9MOL   H321 3537   7.570   7.274   4.208 -0.6014  0.4763  0.4735
    9MOL   C322 3538   7.758   7.184   4.130  0.0143 -0.0127  0.1851
    9MOL   C323 3539   7.909   7.190   4.150  0.4895  0.0279 -0.8280
    9MOL   C324 3540   7.981   7.316   4.151 -0.2290  0.6086 -0.7159
    9MOL   C325 3541   0.082   7.312   4.164 -0.1164  0.1780  0.0906
    9MOL   C326 3542   0.153   7.186   4.174 -0.0332  0.1498 -0.4148
    9MOL   O327 3543   0.290   7.175   4.174 -0.3494 -0.6618 -0.0869
    9MOL   C328 3544   0.369   7.295   4.153  0.0096  0.9623 -1.0637
    9MOL   C329 3545   0.081   7.066   4.174  0.3607 -0.1131  0.0419
    9MOL   C330 3546   7.979   7.068   4.165 -0.2345 -0.1997 -0.5085
    9MOL   C331 3547   7.717   7.221   3.988  0.3472 -0.1188  0.9551
    9MOL   H332 3548   7.727   7.080   4.141 -0.7352  0.2803  1.0246
    9MOL   H333 3549   7.931   7.411   4.148 -3.6242 -1.1155 -0.9067
    9MOL   H334 3550   0.133   7.406   4.178 -1.8177  0.9090  1.6183
    9MOL   H335 3551   0.344   7.350   4.062  0.6108  1.3362 -1.0080
    9MOL   H336 3552   0.470   7.256   4.148 -1.5300 -3.5701  0.6674
    9MOL   H337 3553   0.382   7.357   4.242 -0.1753 -1.4107  0.6718
    9MOL   H338 3554   0.130   6.970   4.181  0.0076 -0.1149  2.9275
    9MOL   H339 3555   7.928   6.973   4.179  0.1977 -0.4003 -0.3008
    9MOL   H340 3556   7.694   7.327   3.984  0.8920 -0.0323 -0.2742
    9MOL   H341 3557   7.808   7.226   3.927 -0.6574  1.0774 -0.4695
    9MOL   C342 3558   7.608   7.143   3.912  0.4981  0.7979 -0.2582
    9MOL   C343 3559   7.671   7.032   3.830  0.5953  0.0761 -0.1590
    9MOL   C344 3560   7.634   6.896   3.862 -0.0174  0.0551  0.0448
    9MOL   C345 3561   7.683   6.782   3.796 -0.0356  0.3411  0.4215
    9MOL   C346 3562   7.771   6.806   3.690 -0.4347 -0.1516  0.3152
    9MOL   O347 3563   7.832   6.695   3.630 -0.9533 -0.2357 -0.4065
    9MOL   C348 3564   7.901   6.700   3.506 -0.0466 -0.2917 -0.3820
    9MOL   C349 3565   7.804   6.940   3.649 -0.7544  0.2920 -0.2144
    9MOL   C350 3566   7.760   7.054   3.722  0.1583  0.6026 -0.7078
    9MOL   C351 3567   7.529   7.238   3.826  0.1252  0.7719  0.3204
    9MOL   H352 3568   7.539   7.096   3.982 -0.2105 -0.4603 -1.7665
    9MOL   H353 3569   7.572   6.875   3.948 -0.8301 -2.5114 -1.1190
    9MOL   H354 3570   7.655   6.681   3.821 -0.2838  0.3527  0.1931
    9MOL   H355 3571   8.006   6.727   3.515  0.1097 -1.1636  0.5594
    9MOL   H356 3572   7.903   6.603   3.456 -0.1021 -0.4131 -0.1471
    9MOL   H357 3573   7.841   6.759   3.437  3.5429  2.7017 -1.0472
    9MOL   H358 3574   7.869   6.961   3.566 -0.6582  1.5768  0.1715
    9MOL   H359 3575   7.785   7.152   3.686  0.5375  1.3323  1.4698
    9MOL   H360 3576   7.596   7.311   3.782  1.1831  1.1303  2.4360
    9MOL   H361 3577   7.475   7.185   3.748 -1.2427 -0.0273  1.7638
    9MOL   C362 3578   7.419   7.325   3.910 -0.5365  0.3190  0.4545
    9MOL   C363 3579   7.339   7.247   4.010  0.0527 -0.9723  0.1718
    9MOL   C364 3580   7.281   7.122   3.981 -0.0082 -0.1112  0.2117
    9MOL   C365 3581   7.187   7.068   4.068 -0.0603 -0.5417  0.2878
    9MOL   C366 3582   7.149   7.126   4.188 -0.3678 -0.1120 -0.2050
    9MOL   O367 3583   7.047   7.064   4.263  0.1862  0.4913  0.6332
    9MOL   C368 3584   6.988   7.150   4.354 -0.2243  0.3989 -0.2932
    9MOL   C369 3585   7.218   7.243   4.220 -0.3172  0.1290 -0.5124
    9MOL   C370 3586   7.308   7.310   4.129 -0.5788 -0.0886  0.5492
    9MOL   C371 3587   7.314   7.394   3.819  0.6736 -1.1594  0.3653
    9MOL   H372 3588   7.472   7.401   3.967 -0.6427  0.6597  0.0997
    9MOL   H373 3589   7.299   7.074   3.886  2.0655  1.8951 -0.4569
    9MOL   H374 3590   7.135   6.976   4.045  1.6605 -1.2916 -0.6391
    9MOL   H375 3591   6.972   7.252   4.320 -1.7567  0.2617 -0.0305
    9MOL   H376 3592   6.888   7.112   4.379 -0.5400  1.0531 -0.5432
    9MOL   H377 3593   7.048   7.166   4.444  0.2686  0.6867 -0.6784
    9MOL   H378 3594   7.193   7.289   4.314  2.7790  2.4827 -0.7622
    9MOL   H379 3595   7.359   7.401   4.156 -1.3533  0.7855 -0.8924
    9MOL   H380 3596   7.258   7.323   3.758 -1.4894 -0.0021  0.9708
    9MOL   H381 3597   7.232   7.431   3.880 -0.6499  0.8980 -2.5609
    9MOL   C382 3598   7.366   7.520   3.748 -0.3729  0.0238 -0.1125
    9MOL   C383 3599   7.439   7.626   3.828 -0.6351 -0.2159 -0.9504
    9MOL   C384 3600   7.571   7.680   3.801  0.1990 -0.5866  0.4387
    9MOL   C385 3601   7.624   7.788   3.873  0.4605  0.1149 -0.7010
    9MOL   C386 3602   7.556   7.842   3.984  0.1752 -0.1554  0.2388
    9MOL   O387 3603   7.611   7.945   4.053  0.3090 -0.1017 -0.3886
    9MOL   C388 3604   7.562   7.985   4.187 -0.0424  0.1552  0.3374
    9MOL   C389 3605   7.431   7.787   4.017 -0.1082 -0.0153  0.2986
    9MOL   C390 3606   7.374   7.683   3.942 -0.6111 -0.7802 -0.4285
    9MOL   C391 3607   7.278   7.582   3.646  0.1961  0.2818 -0.2194
    9MOL   H392 3608   7.446   7.482   3.684 -0.3011 -1.0887  0.6192
    9MOL   H393 3609   7.630   7.634   3.723  0.0303 -0.5398  0.2825
    9MOL   H394 3610   7.721   7.826   3.846  0.0049  0.0510 -2.5207
    9MOL   H395 3611   7.631   0.018   4.229  1.9792 -1.6047  0.1986
    9MOL   H396 3612   7.560   7.899   4.255  2.2206 -0.9416 -0.9362
    9MOL   H397 3613   7.463   8.028   4.172  0.6213  1.8034  0.6506
    9MOL   H398 3614   7.375   7.827   4.100  1.3515  1.3772  0.6527
    9MOL   H399 3615   7.275   7.657   3.976 -1.3722 -0.6405 -2.4649
    9MOL   H400 3616   7.199   7.649   3.679 -0.4235  0.0583 -1.2196
    9MOL   H401 3617   7.237   7.520   3.566 -2.1859  0.7183  0.6139
    9MOL   H402 3618   7.340   7.653   3.592  0.8404 -0.3496 -0.3134
   10MOL     C1 3619   3.604   4.838   7.450  0.6406 -0.0266 -0.4731
   10MOL     C2 3620   3.676   4.890   7.327 -0.5860  0.1488  0.4550
   10MOL     C3 3621   3.762   4.806   7.251 -0.2545  0.9213  0.4493
   10MOL     C4 3622   3.819   4.850   7.130  0.5293  0.5279 -1.3091
   10MOL     C5 3623   3.814   4.985   7.096  0.2725  0.0719  0.0128
   10MOL     O6 3624   3.866   5.030   6.982  0.4704  0.0326 -0.1260
   10MOL     C7 3625   3.963   4.950   6.915  0.7997 -0.6990 -0.2386
   10MOL     C8 3626   3.732   5.067   7.174  0.7110  0.5598 -0.8576
   10MOL     C9 3627   3.656   5.021   7.281 -0.0420  0.4118  0.2182
   10MOL    C10 3628   3.455   4.805   7.426  0.0768  0.0509 -1.0567
   10MOL    H11 3629   3.609   4.912   7.530 -1.2789 -0.8460  0.4335
   10MOL    H12 3630   3.770   4.703   7.283 -0.6337  0.3405 -1.2770
   10MOL    H13 3631   3.883   4.778   7.081 -0.3148 -1.5801  0.6072
   10MOL    H14 3632   3.918   4.868   6.860 -0.0333 -2.3100  2.7291
   10MOL    H15 3633   4.003   5.007   6.831 -0.8733  0.0151 -0.5825
   10MOL    H16 3634   4.041   4.915   6.982  0.8617  1.4256  0.8585
   10MOL    H17 3635   3.727   5.173   7.151 -0.6281  0.3146 -1.7869
   10MOL    H18 3636   3.591   5.089   7.334  0.2852  1.1432 -0.3097
   10MOL    H19 3637   3.407   4.801   7.524  1.6836  1.3942 -0.2028
   10MOL    H20 3638   3.400   4.890   7.387  0.1060  0.8244  0.5324
   10MOL    H21 3639   3.656   4.749   7.485 -1.0090  0.1918  2.7008
   10MOL    C22 3640   3.422   4.658   7.370 -0.0350 -0.6412 -0.4037
   10MOL    C23 3641   3.290   4.609   7.423  0.1605 -0.2549 -0.1789
   10MOL    C24 3642   3.279   4.489   7.499 -0.7062  0.2904  0.0184
   10MOL    C25 3643   3.159   4.446   7.553 -0.1368 -0.1586  0.3569
   10MOL    C26 3644   3.043   4.524   7.528 -0.0867  0.3964 -0.1559
   10MOL    O27 3645   2.919   4.488   7.572 -0.3665  0.1998 -0.2523
   10MOL    C28 3646   2.909   4.406   7.685 -0.5529  0.5318 -0.5657
   10MOL    C29 3647   3.051   4.639   7.455 -0.6525  0.6751 -0.7869
   10MOL    C30 3648   3.169   4.686   7.399  0.3325  0.3108 -0.3215
   10MOL    C31 3649   3.423   4.666   7.217  0.4188  0.8494 -0.1101
   10MOL    H32 3650   3.502   4.592   7.403  2.2347  0.5540 -3.3092
   10MOL    H33 3651   3.370   4.434   7.517  0.2784  1.5175 -1.1103
   10MOL    H34 3652   3.153   4.348   7.598  0.1608 -0.9303 -1.2427
   10MOL    H35 3653   2.970   4.318   7.667 -0.7859  0.3755 -0.5963
   10MOL    H36 3654   2.805   4.374   7.686 -0.5330  0.3623  2.2343
   10MOL    H37 3655   2.929   4.459   7.778 -2.6986  1.8318 -0.8067
   10MOL    H38 3656   2.968   4.707   7.444 -0.5042  0.7023 -1.8300
   10MOL    H39 3657   3.174   4.768   7.329  0.7885 -0.6004 -1.3672
   10MOL    H40 3658   3.355   4.742   7.180  0.0440  0.1037 -0.9576
   10MOL    H41 3659   3.523   4.686   7.178  0.0241 -1.5775 -2.5894
   10MOL    C42 3660   3.379   4.530   7.160 -0.0611 -0.0040 -0.3181
   10MOL    C43 3661   3.492   4.466   7.077 -0.5363  0.3859 -0.3362
   10MOL    C44 3662   3.542   4.337   7.111  0.6756 -0.5324 -0.1592
   10MOL    C45 3663   3.641   4.279   7.029  0.1945 -0.0573  0.4185
   10MOL    C46 3664   3.684   4.338   6.907  0.0453  0.3290 -0.4791
   10MOL    O47 3665   3.777   4.271   6.835  0.2021 -0.3345  0.9019
   10MOL    C48 3666   3.834   4.334   6.720 -0.0990  0.1064  0.3984
   10MOL    C49 3667   3.633   4.466   6.878  0.1810  0.1653 -0.3968
   10MOL    C50 3668   3.538   4.532   6.959 -0.2636 -0.3906 -0.0009
   10MOL    C51 3669   3.236   4.548   7.084  0.7159  0.3173  0.4174
   10MOL    H52 3670   3.365   4.451   7.234  0.1262 -1.6940 -2.0362
   10MOL    H53 3671   3.507   4.288   7.201 -0.6361  1.9306  0.7118
   10MOL    H54 3672   3.684   4.188   7.069 -1.1711 -0.7851  0.2593
   10MOL    H55 3673   3.763   4.343   6.637 -0.0013 -1.5685  0.1189
   10MOL    H56 3674   3.878   4.431   6.745  1.4018 -0.7069  0.9266
   10MOL    H57 3675   3.909   4.262   6.689 -0.5521  0.1479 -0.8305
   10MOL    H58 3676   3.669   4.511   6.786  0.3904 -1.9283 -1.3486
   10MOL    H59 3677   3.496   4.627   6.929  1.9748  0.4329 -0.6106
   10MOL    H60 3678   3.261   4.603   6.994  1.4734 -2.6229 -1.2131
   10MOL    H61 3679   3.161   4.610   7.134 -0.7359  0.5338 -1.9330
   10MOL    C62 3680   3.173   4.413   7.061 -0.1161  0.7145  0.1003
   10MOL    C63 3681   3.117   4.407   6.920  0.6701  0.5439  0.3785
   10MOL    C64 3682   2.998   4.473   6.888  0.2545 -0.7011  0.8094
   10MOL    C65 3683   2.939   4.460   6.764  0.1493 -0.4608 -0.2270
   10MOL    C66 3684   2.991   4.364   6.667  0.4070 -0.4649 -0.1070
   10MOL    O67 3685   2.938   4.342   6.540  0.5590  0.4278  0.3672
   10MOL    C68 3686   2.808   4.399   6.523  0.0124  0.3172 -0.3472
   10MOL    C69 3687   3.112   4.299   6.703  0.4392  0.2536  0.5327
   10MOL    C70 3688   3.171   4.317   6.827  0.5251 -0.0636 -0.3744
   10MOL    C71 3689   3.063   4.379   7.169  0.2551 -0.1964  0.2735
   10MOL    H72 3690   3.249   4.335   7.068  1.1006  1.8696 -0.1015
   10MOL    H73 3691   2.961   4.543   6.960 -2.2096 -1.9006  0.7832
   10MOL    H74 3692   2.851   4.520   6.745  0.7058  1.4082  2.7256
   10MOL    H75 3693   2.744   4.381   6.609 -0.3822 -0.9221 -0.8797
   10MOL    H76 3694   2.767   4.358   6.430 -0.2996 -1.5352  0.5770
   10MOL    H77 3695   2.808   4.506   6.503 -0.9247  0.4063  0.1270
   10MOL    H78 3696   3.160   4.236   6.630 -2.7519 -0.3975 -1.0953
   10MOL    H79 3697   3.260   4.261   6.852 -0.9550 -1.4198  1.9192
   10MOL    H80 3698   3.107   4.408   7.265 -0.0633 -1.5059  0.8335
   10MOL    H81 3699   2.976   4.442   7.153 -0.3180 -1.2301 -0.7339
   10MOL    C82 3700   3.034   4.226   7.188 -0.1882 -0.7279  0.2429
   10MOL    C83 3701   2.941   4.188   7.302 -0.3871  0.6185  0.2941
   10MOL    C84 3702   2.827   4.270   7.332  0.5353  0.5444 -0.5441
   10MOL    C85 3703   2.750   4.232   7.448 -0.3126  0.0914  0.0965
   10MOL    C86 3704   2.773   4.122   7.527  0.4009  0.8358  0.2594
   10MOL    O87 3705   2.690   4.084   7.628 -0.3401 -0.6778 -0.7053
   10MOL    C88 3706   2.569   4.150   7.648 -0.2831 -0.2982 -0.0560
   10MOL    C89 3707   2.877   4.040   7.496 -0.3504 -0.2438 -0.6946
   10MOL    C90 3708   2.961   4.074   7.386 -0.5300 -0.4735 -0.0421
   10MOL    C91 3709   2.959   4.177   7.059  0.1359  0.0202  0.3316
   10MOL    H92 3710   3.131   4.179   7.207 -0.1881 -1.1756 -0.8680
   10MOL    H93 3711   2.792   4.354   7.274  0.1444 -0.2337 -1.4393
   10MOL    H94 3712   2.662   4.291   7.466  0.0858  0.5257  0.6439
   10MOL    H95 3713   2.586   4.250   7.688 -3.2309  0.2226 -0.0316
   10MOL    H96 3714   2.505   4.092   7.715 -1.0803  0.5661 -0.0601
   10MOL    H97 3715   2.503   4.164   7.563 -0.3305  2.1154  0.3352
   10MOL    H98 3716   2.900   3.957   7.561  1.3070  0.6228 -0.1575
   10MOL    H99 3717   3.050   4.018   7.363 -0.2433  0.2308 -0.6859
   10MOL   H100 3718   2.863   4.227   7.046  0.8465  1.1837 -0.5265
   10MOL   H101 3719   3.018   4.188   6.968 -0.5563 -1.7302 -0.3351
   10MOL   C102 3720   2.921   4.026   7.059  0.1066 -0.3160 -0.4888
   10MOL   C103 3721   2.810   4.001   6.957  0.0972 -0.3835 -0.4653
   10MOL   C104 3722   2.815   4.052   6.825 -0.2400  0.2280  0.4808
   10MOL   C105 3723   2.711   4.021   6.734 -0.4424 -0.5762 -0.2235
   10MOL   C106 3724   2.599   3.953   6.779 -0.2396 -0.1998  0.0262
   10MOL   O107 3725   2.496   3.928   6.688 -0.3188  0.3258 -0.3014
   10MOL   C108 3726   2.382   3.871   6.736  0.1294  0.5663  0.9180
   10MOL   C109 3727   2.592   3.905   6.910  0.0545  0.1883  0.1810
   10MOL   C110 3728   2.695   3.939   7.006 -0.6228  0.1561 -0.1795
   10MOL   C111 3729   3.043   3.925   7.036 -0.5052 -0.2283 -0.4309
   10MOL   H112 3730   2.875   3.999   7.154 -0.3320 -0.0972 -0.6418
   10MOL   H113 3731   2.898   4.113   6.794  0.2048 -0.2382  0.7514
   10MOL   H114 3732   2.720   4.052   6.631  0.4465 -0.7262 -0.2021
   10MOL   H115 3733   2.321   3.945   6.788 -1.7669  1.2187 -2.0901
   10MOL   H116 3734   2.324   3.835   6.651 -1.0384  0.7159  1.6405
   10MOL   H117 3735   2.388   3.782   6.799  2.3504  0.6239  0.8112
   10MOL   H118 3736   2.509   3.845   6.944  2.0370 -1.6991  1.8323
   10MOL   H119 3737   2.694   3.915   7.111  1.3698 -0.0731 -0.1936
   10MOL   H120 3738   3.076   3.939   6.933 -0.6483  1.2153 -0.3014
   10MOL   H121 3739   3.126   3.958   7.099  0.1913 -2.4333 -0.1682
   10MOL   C122 3740   3.020   3.774   7.061 -0.0219  0.0334 -0.0936
   10MOL   C123 3741   3.037   3.739   7.208 -0.2730  0.0138  0.1738
   10MOL   C124 3742   2.929   3.684   7.281  0.1989 -0.5770  0.1016
   10MOL   C125 3743   2.942   3.671   7.421  0.3974 -0.1771 -0.2926
   10MOL   C126 3744   3.068   3.690   7.479  0.6115  0.2093 -0.1823
   10MOL   O127 3745   3.088   3.656   7.613  0.2027 -0.1818  0.5255
   10MOL   C128 3746   3.198   3.569   7.642 -0.3812  0.1068 -0.3377
   10MOL   C129 3747   3.182   3.730   7.402  0.5766  0.4194 -0.6872
   10MOL   C130 3748   3.167   3.748   7.263 -0.3354  0.9556 -0.4252
   10MOL   C131 3749   3.109   3.688   6.963 -0.0056  0.1886 -0.4103
   10MOL   H132 3750   2.914   3.754   7.048  0.1851 -2.0021  1.2294
   10MOL   H133 3751   2.839   3.664   7.225  0.5684 -1.3463 -0.2203
   10MOL   H134 3752   2.858   3.644   7.483 -1.5394  3.4184 -1.1902
   10MOL   H135 3753   3.163   3.499   7.718  0.4339 -0.1618 -0.2096
   10MOL   H136 3754   3.233   3.525   7.549  1.3902 -1.0475  0.8497
   10MOL   H137 3755   3.284   3.612   7.694 -0.4590  1.2734 -1.1510
   10MOL   H138 3756   3.285   3.727   7.436  0.2748  2.3292  0.4564
   10MOL   H139 3757   3.250   3.777   7.199  1.1185 -1.4226  0.3021
   10MOL   H140 3758   3.213   3.718   6.974  0.7096 -1.9550 -1.1783
   10MOL   H141 3759   3.073   3.712   6.863 -1.1893 -1.8562 -0.5085
   10MOL   C142 3760   3.102   3.532   6.968  0.5696  0.5173 -0.1885
   10MOL   C143 3761   2.949   3.497   6.949 -0.4078  0.2271  0.2711
   10MOL   C144 3762   2.873   3.453   7.055 -0.2075 -0.2641 -0.4098
   10MOL   C145 3763   2.736   3.443   7.041 -0.7921 -0.1037  0.0297
   10MOL   C146 3764   2.674   3.466   6.918 -0.1728  0.0037 -0.3057
   10MOL   O147 3765   2.536   3.450   6.925  0.3068 -0.1975  0.8350
   10MOL   C148 3766   2.459   3.468   6.804 -0.3443  0.3054 -0.3062
   10MOL   C149 3767   2.747   3.509   6.805  0.2503  0.3883 -0.2964
   10MOL   C150 3768   2.886   3.524   6.819 -0.4716 -0.6998 -0.8238
   10MOL   C151 3769   3.196   3.460   6.883 -0.4024  0.3819 -0.5646
   10MOL   H152 3770   3.128   3.500   7.069  0.1024  0.3936 -0.1042
   10MOL   H153 3771   2.896   3.446   7.160 -0.7719 -0.4841 -0.2952
   10MOL   H154 3772   2.682   3.409   7.128 -0.9297  1.2915  0.5114
   10MOL   H155 3773   2.353   3.443   6.801 -0.1551 -0.7459  1.3879
   10MOL   H156 3774   2.472   3.572   6.775  0.2571  0.4592  0.5011
   10MOL   H157 3775   2.499   3.397   6.732  0.3983  1.9144 -1.5003
   10MOL   H158 3776   2.707   3.545   6.711  1.9657  1.0907 -0.7670
   10MOL   H159 3777   2.939   3.570   6.736 -1.0380 -1.0670 -1.3921
   10MOL   H160 3778   3.164   3.476   6.780  2.3395  0.0358 -1.5170
   10MOL   H161 3779   3.185   3.354   6.906 -0.0218 -0.1651 -2.7715
   10MOL   C162 3780   3.350   3.484   6.900  0.3694 -0.1304 -0.1462
   10MOL   C163 3781   3.429   3.398   6.806  0.2994 -0.5187 -0.1498
   10MOL   C164 3782   3.468   3.264   6.832  0.5215 -0.0327 -0.2703
   10MOL   C165 3783   3.551   3.190   6.743  0.8074  0.3477  0.2405
   10MOL   C166 3784   3.596   3.255   6.623  0.3850 -0.2796  0.0994
   10MOL   O167 3785   3.675   3.199   6.529 -0.2109  0.1366 -0.5834
   10MOL   C168 3786   3.728   3.069   6.546  0.3642  0.0972  0.1949
   10MOL   C169 3787   3.554   3.389   6.596  0.2550  0.4211  0.6470
   10MOL   C170 3788   3.476   3.460   6.687 -0.5087  0.1549 -0.5649
   10MOL   C171 3789   3.403   3.467   7.051 -0.0891  0.4145  0.5553
   10MOL   H172 3790   3.362   3.589   6.873 -4.0162 -0.3304 -3.3417
   10MOL   H173 3791   3.428   3.228   6.926  0.6738 -0.2417 -0.2861
   10MOL   H174 3792   3.593   3.093   6.770  0.8405 -0.0548 -1.2429
   10MOL   H175 3793   3.657   2.998   6.591 -0.3637  1.1676  0.7629
   10MOL   H176 3794   3.813   3.067   6.614 -0.3522 -0.7918  1.0874
   10MOL   H177 3795   3.773   3.029   6.455 -2.6379 -0.4683 -1.1027
   10MOL   H178 3796   3.578   3.436   6.501  0.9971  0.0360  0.6369
   10MOL   H179 3797   3.452   3.563   6.667  0.4253  0.5598  0.3368
   10MOL   H180 3798   3.379   3.366   7.087  0.5737 -0.7848 -2.2244
   10MOL   H181 3799   3.339   3.538   7.103  0.0069 -0.3238  1.7095
   10MOL   C182 3800   3.552   3.488   7.084  0.3931  0.3350  0.4876
   10MOL   C183 3801   3.566   3.471   7.239  0.0717  0.0885 -0.2346
   10MOL   C184 3802   3.634   3.358   7.291 -0.6169 -0.2316 -0.0952
   10MOL   C185 3803   3.646   3.339   7.426  0.3958 -0.0138  0.0841
   10MOL   C186 3804   3.583   3.431   7.515 -0.1388 -0.5007  0.1908
   10MOL   O187 3805   3.579   3.413   7.650 -0.2901  0.5663 -0.0915
   10MOL   C188 3806   3.579   3.269   7.688 -0.0051 -0.2672 -0.8138
   10MOL   C189 3807   3.512   3.547   7.466  0.4763  0.2427 -0.8538
   10MOL   C190 3808   3.507   3.562   7.326  0.4705 -0.5004 -0.8364
   10MOL   C191 3809   3.599   3.631   7.041  0.9560 -0.2149 -0.1738
   10MOL   H192 3810   3.611   3.414   7.030 -1.1503 -0.9391  0.5304
   10MOL   H193 3811   3.674   3.277   7.233  1.5256 -1.8313  3.4453
   10MOL   H194 3812   3.689   3.244   7.455  1.2209  0.2587 -0.2556
   10MOL   H195 3813   3.681   3.229   7.687  0.8753  1.8928 -0.0474
   10MOL   H196 3814   3.514   3.209   7.624  0.4066  0.7523 -2.2002
   10MOL   H197 3815   3.543   3.284   7.790  0.0300  0.5226 -0.9160
   10MOL   H198 3816   3.470   3.624   7.529 -1.3517 -1.5191  0.1474
   10MOL   H199 3817   3.457   3.644   7.278  1.2971  0.0938 -0.6861
   10MOL   H200 3818   3.505   3.683   7.021  0.8052 -0.9945 -1.5591
   10MOL   H201 3819   3.636   3.700   7.117 -0.1725  1.1501 -0.8530
   10MOL   C202 3820   3.707   3.639   6.925 -0.0524  0.0213 -0.0189
   10MOL   C203 3821   3.855   3.613   6.977 -0.6950  0.6914  0.4583
   10MOL   C204 3822   3.928   3.521   6.903  0.2318  0.1138 -0.1293
   10MOL   C205 3823   4.065   3.503   6.937  0.0223  0.1445  0.0340
   10MOL   C206 3824   4.125   3.574   7.046 -0.1406 -0.2678  0.5566
   10MOL   O207 3825   4.254   3.548   7.087 -0.0043 -0.0211  0.0822
   10MOL   C208 3826   4.329   3.445   7.029 -0.5847 -0.0582  0.2730
   10MOL   C209 3827   4.048   3.665   7.116  0.1313  0.5902 -0.7428
   10MOL   C210 3828   3.911   3.678   7.082  0.8723  0.2637 -0.9902
   10MOL   C211 3829   3.689   3.773   6.853  0.0403  0.3974 -0.2538
   10MOL   H212 3830   3.688   3.561   6.851  1.0255 -0.0818 -0.2042
   10MOL   H213 3831   3.882   3.475   6.817 -0.0285  1.2623 -0.6249
   10MOL   H214 3832   4.122   3.430   6.882 -1.4683 -1.1515  0.1813
   10MOL   H215 3833   4.425   3.449   7.080 -0.6189  1.5625  0.2521
   10MOL   H216 3834   4.279   3.351   7.053  0.4404 -0.5726  0.3899
   10MOL   H217 3835   4.363   3.451   6.926 -1.6267  1.5080  0.0017
   10MOL   H218 3836   4.099   3.719   7.194 -2.5108 -2.1115  3.0808
   10MOL   H219 3837   3.865   3.761   7.133  1.4841 -0.1899  0.3084
   10MOL   H220 3838   3.676   3.858   6.921 -0.3359 -0.3934  0.6800
   10MOL   H221 3839   3.593   3.774   6.801 -1.0221 -0.9755  1.5777
   10MOL   C222 3840   3.795   3.828   6.750  0.1488 -0.5718  0.0897
   10MOL   C223 3841   3.866   3.732   6.655  0.3266 -0.1442 -0.6145
   10MOL   C224 3842   3.784   3.642   6.579 -0.4379 -0.6436 -0.1573
   10MOL   C225 3843   3.842   3.556   6.486 -0.0748 -0.0327  0.2154
   10MOL   C226 3844   3.981   3.562   6.460  0.1082 -0.7351  0.2599
   10MOL   O227 3845   4.052   3.489   6.367 -0.1484 -0.0692  0.2058
   10MOL   C228 3846   3.987   3.442   6.251 -0.1154  0.1570  0.1463
   10MOL   C229 3847   4.058   3.654   6.535 -0.6104  0.3597 -0.0583
   10MOL   C230 3848   4.007   3.741   6.628  0.5829 -0.7297  0.0803
   10MOL   C231 3849   3.769   3.963   6.680  0.2804  0.6712 -0.4674
   10MOL   H232 3850   3.873   3.855   6.820 -0.1936 -0.3869  0.4063
   10MOL   H233 3851   3.677   3.640   6.593 -0.3838  0.0587  0.3773
   10MOL   H234 3852   3.781   3.483   6.436 -1.7241  0.9281  0.7714
   10MOL   H235 3853   3.896   3.384   6.266 -1.2496  0.8395 -3.5628
   10MOL   H236 3854   3.951   3.530   6.196 -0.5612 -0.2250 -0.1800
   10MOL   H237 3855   4.051   3.389   6.181 -0.9764  0.0854 -0.6017
   10MOL   H238 3856   4.165   3.648   6.516 -0.6352  1.0733 -0.4076
   10MOL   H239 3857   4.072   3.810   6.679  1.1337  0.0005 -1.5962
   10MOL   H240 3858   3.762   4.052   6.743 -2.1956  0.9233 -1.0701
   10MOL   H241 3859   3.861   3.974   6.623  1.5092 -4.9925  0.0561
   10MOL   C242 3860   3.672   3.968   6.564 -0.2440  0.0027 -0.5221
   10MOL   C243 3861   3.531   3.935   6.592 -0.3879  0.3615  0.1392
   10MOL   C244 3862   3.463   3.834   6.518 -0.0072  0.0476  0.2682
   10MOL   C245 3863   3.327   3.805   6.548  0.0247 -0.6677 -0.0348
   10MOL   C246 3864   3.255   3.885   6.635  0.5732 -0.0301 -0.0895
   10MOL   O247 3865   3.120   3.874   6.660  0.3428 -0.0472 -0.1673
   10MOL   C248 3866   3.045   3.781   6.588  0.0728  0.1907 -0.1658
   10MOL   C249 3867   3.326   3.972   6.725 -0.2347  0.1669  0.3979
   10MOL   C250 3868   3.462   3.999   6.696  0.3740 -0.2864  0.3919
   10MOL   C251 3869   3.683   4.091   6.476  0.8774 -0.3207 -0.2378
   10MOL   H252 3870   3.695   3.882   6.501 -1.5062 -0.8209  0.1186
   10MOL   H253 3871   3.507   3.771   6.442 -2.2612 -3.6793  1.9264
   10MOL   H254 3872   3.293   3.728   6.480 -1.0600  0.3923 -0.7070
   10MOL   H255 3873   3.078   3.679   6.609 -0.4337 -0.2111 -1.3199
   10MOL   H256 3874   2.941   3.783   6.621  0.2865 -3.8157  1.0737
   10MOL   H257 3875   3.057   3.811   6.484  2.6725  1.2069  0.3812
   10MOL   H258 3876   3.282   4.025   6.808 -0.4798 -2.1267  1.7778
   10MOL   H259 3877   3.505   4.079   6.754  2.3227 -1.4866  0.6563
   10MOL   H260 3878   3.790   4.113   6.468  0.7071 -0.5711 -3.8916
   10MOL   H261 3879   3.646   4.178   6.530 -1.1840 -0.5648 -1.2230
   10MOL   C262 3880   3.625   4.081   6.335 -0.0539 -0.2423  0.4004
   10MOL   C263 3881   3.694   3.974   6.253 -0.1335 -0.5801  0.9837
   10MOL   C264 3882   3.832   3.990   6.218  0.2138 -0.5798 -0.4809
   10MOL   C265 3883   3.897   3.893   6.139  0.1560 -0.2759 -0.4129
   10MOL   C266 3884   3.829   3.779   6.105 -0.7118  0.0767  0.1748
   10MOL   O267 3885   3.885   3.685   6.017 -0.0692  0.4773 -0.1182
   10MOL   C268 3886   4.024   3.697   5.982  0.2136  0.3153 -1.1329
   10MOL   C269 3887   3.692   3.764   6.141 -0.2217 -0.0900  0.8687
   10MOL   C270 3888   3.625   3.863   6.208 -0.7045  0.0054 -0.1932
   10MOL   C271 3889   3.635   4.221   6.259 -0.0860  0.0518  0.3054
   10MOL   H272 3890   3.526   4.040   6.355  0.6090 -1.6861  0.8162
   10MOL   H273 3891   3.883   4.074   6.262 -1.0372 -0.7558  1.3364
   10MOL   H274 3892   4.001   3.906   6.111  0.3693  1.9305  1.2460
   10MOL   H275 3893   4.077   3.706   6.076 -0.0008  1.4876 -1.1217
   10MOL   H276 3894   4.038   3.786   5.921 -0.7925 -0.0006 -1.8381
   10MOL   H277 3895   4.056   3.605   5.933  2.2726  0.9984 -1.1523
   10MOL   H278 3896   3.635   3.682   6.099  0.9638 -1.6161  2.1695
   10MOL   H279 3897   3.521   3.856   6.237 -1.0099  0.4835 -1.1638
   10MOL   H280 3898   3.739   4.252   6.266 -0.0193 -0.6801  3.6297
   10MOL   H281 3899   3.622   4.208   6.152  1.2768 -2.0116  0.3605
   10MOL   C282 3900   3.536   4.318   6.302  0.4812 -0.5974  0.4602
   10MOL   C283 3901   3.404   4.261   6.264 -0.5174  0.4970 -0.7385
   10MOL   C284 3902   3.348   4.254   6.131  0.6051 -0.0710 -0.0861
   10MOL   C285 3903   3.213   4.212   6.106  0.9631 -0.2943 -1.0096
   10MOL   C286 3904   3.137   4.158   6.215  0.4963 -0.1285 -0.9366
   10MOL   O287 3905   3.012   4.113   6.180 -0.4982 -0.2627 -0.8357
   10MOL   C288 3906   2.946   4.029   6.270 -0.5252  0.6970  0.3699
   10MOL   C289 3907   3.197   4.150   6.347 -0.2251  0.1959 -0.6791
   10MOL   C290 3908   3.326   4.199   6.371 -0.2278  0.2666  1.1455
   10MOL   C291 3909   3.562   4.461   6.234 -0.4803  0.7711 -0.1137
   10MOL   H292 3910   3.529   4.346   6.407 -0.2482  1.5844 -0.1527
   10MOL   H293 3911   3.396   4.295   6.044  0.6344 -0.5773 -0.3078
   10MOL   H294 3912   3.175   4.212   6.005  0.5486 -4.4332 -0.9328
   10MOL   H295 3913   3.004   3.937   6.278 -0.1090  0.9533  0.2845
   10MOL   H296 3914   2.948   4.068   6.372  3.0575 -0.0173  0.6201
   10MOL   H297 3915   2.845   4.010   6.233 -0.6309  0.5030  0.7485
   10MOL   H298 3916   3.155   4.106   6.436 -0.5099  0.1730 -0.8224
   10MOL   H299 3917   3.359   4.181   6.472  0.2015 -0.0264  0.9539
   10MOL   H300 3918   3.656   4.502   6.270  0.4971 -0.2318 -1.4936
   10MOL   H301 3919   3.583   4.451   6.128 -2.2397 -0.9884 -0.3167
   10MOL   C302 3920   3.446   4.560   6.255  0.1927 -1.2784 -0.0674
   10MOL   C303 3921   3.425   4.608   6.400 -0.5346 -0.2343  0.0638
   10MOL   C304 3922   3.515   4.691   6.480  0.0625 -0.2137  0.3198
   10MOL   C305 3923   3.479   4.729   6.608  0.0479 -0.2378  0.4820
   10MOL   C306 3924   3.356   4.692   6.665 -1.0029 -1.0434 -0.4477
   10MOL   O307 3925   3.300   4.739   6.780 -0.5012  0.5432  0.3592
   10MOL   C308 3926   3.331   4.878   6.818  0.9625 -0.2984  0.4131
   10MOL   C309 3927   3.273   4.605   6.595  0.2066  0.0017 -0.3553
   10MOL   C310 3928   3.306   4.568   6.463  0.3865  0.6984  0.2845
   10MOL   C311 3929   3.459   4.686   6.168  0.0591 -0.1566 -0.0743
   10MOL   H312 3930   3.351   4.515   6.225 -0.5525 -0.2044  0.6445
   10MOL   H313 3931   3.608   4.722   6.434 -1.9333 -0.9246 -4.5296
   10MOL   H314 3932   3.547   4.784   6.671 -0.3902 -1.1147  1.7405
   10MOL   H315 3933   3.273   4.916   6.902  2.8863  1.1056  1.1413
   10MOL   H316 3934   3.291   4.923   6.727 -0.6678 -0.2501  1.1457
   10MOL   H317 3935   3.438   4.902   6.817  0.7973  0.4309 -0.1642
   10MOL   H318 3936   3.184   4.567   6.642  0.9462  1.3743  2.2086
   10MOL   H319 3937   3.234   4.501   6.418 -0.3006  0.7638  1.2534
   10MOL   H320 3938   3.473   4.664   6.063  1.0623  1.9237 -0.4064
   10MOL   H321 3939   3.549   4.729   6.211 -0.0256  1.1708 -1.1996
   10MOL   C322 3940   3.336   4.791   6.164  0.6473  0.6234 -0.2984
   10MOL   C323 3941   3.205   4.728   6.120  0.5147  0.6401 -0.0753
   10MOL   C324 3942   3.114   4.687   6.218 -0.1829 -0.1142  0.4283
   10MOL   C325 3943   2.991   4.620   6.184 -0.0336 -0.6619 -0.5790
   10MOL   C326 3944   2.972   4.582   6.048 -0.2076 -0.1912  0.8563
   10MOL   O327 3945   2.870   4.502   6.006 -0.1802  0.0853 -0.0922
   10MOL   C328 3946   2.763   4.482   6.094  0.0689  0.6489  0.0295
   10MOL   C329 3947   3.064   4.628   5.945  0.2081 -0.4664 -0.2848
   10MOL   C330 3948   3.178   4.702   5.981 -0.4957  0.1706 -0.3960
   10MOL   C331 3949   3.360   4.925   6.097 -0.5395  0.1130 -0.4019
   10MOL   H332 3950   3.335   4.808   6.272  0.5420 -0.2864 -0.1476
   10MOL   H333 3951   3.124   4.708   6.323  2.3427 -1.7996  0.5588
   10MOL   H334 3952   2.921   4.591   6.261  0.2633 -3.9258 -1.4518
   10MOL   H335 3953   2.718   4.579   6.116  0.9159  1.0512 -0.0173
   10MOL   H336 3954   2.780   4.430   6.188 -1.9917  0.3982  0.2808
   10MOL   H337 3955   2.687   4.419   6.046  0.7543 -0.9408  0.9727
   10MOL   H338 3956   3.052   4.597   5.842  2.3618 -1.9219 -0.1408
   10MOL   H339 3957   3.257   4.727   5.911  1.4321 -0.3489  1.5526
   10MOL   H340 3958   3.361   4.902   5.990 -0.7740 -1.5996 -0.0495
   10MOL   H341 3959   3.273   4.987   6.118 -1.2691 -0.3083 -2.0112
   10MOL   C342 3960   3.485   5.006   6.145  0.0700 -0.1188  1.0996
   10MOL   C343 3961   3.490   5.036   6.293 -0.0108  0.3097 -0.3976
   10MOL   C344 3962   3.379   5.075   6.365  0.0310  0.1440  0.3601
   10MOL   C345 3963   3.389   5.107   6.504  0.1245 -0.1061  0.1709
   10MOL   C346 3964   3.510   5.090   6.578 -0.1370 -0.0483  0.1993
   10MOL   O347 3965   3.520   5.121   6.714  0.5474  0.2266  0.5334
   10MOL   C348 3966   3.635   5.074   6.785  0.4522  0.4014 -0.0217
   10MOL   C349 3967   3.620   5.034   6.505  0.5444  0.2914 -0.0524
   10MOL   C350 3968   3.613   5.019   6.364 -0.1145 -0.0211 -0.6155
   10MOL   C351 3969   3.514   5.128   6.058 -0.3010  0.4284 -0.0151
   10MOL   H352 3970   3.562   4.931   6.126  0.9115  1.1672 -0.7259
   10MOL   H353 3971   3.286   5.062   6.311  0.5398 -1.5388 -0.1461
   10MOL   H354 3972   3.304   5.142   6.562 -0.4252 -1.2819  0.0762
   10MOL   H355 3973   3.614   5.069   6.892  3.0077  0.4439  0.5218
   10MOL   H356 3974   3.660   4.971   6.759 -0.7016  0.1985 -0.3832
   10MOL   H357 3975   3.718   5.143   6.774 -0.1043  1.0639 -0.0987
   10MOL   H358 3976   3.715   5.000   6.543  0.7096 -0.2114 -0.8986
   10MOL   H359 3977   3.707   4.987   6.324 -0.7327 -3.1982  0.3762
   10MOL   H360 3978   3.418   5.179   6.052 -0.8948 -0.5147  1.1423
   10MOL   H361 3979   3.588   5.182   6.117 -0.2767  0.7511 -0.3458
   10MOL   C362 3980   3.562   5.108   5.915  0.1474  0.5157 -0.6439
   10MOL   C363 3981   3.704   5.061   5.918 -0.5420  0.0929  0.3142
   10MOL   C364 3982   3.741   4.925   5.906 -0.0212 -0.1070 -0.0636
   10MOL   C365 3983   3.876   4.883   5.905 -0.0067 -0.1187 -0.1711
   10MOL   C366 3984   3.975   4.974   5.948 -0.1212  0.3501 -0.5817
   10MOL   O367 3985   4.105   4.944   5.962  0.5046 -0.1144  0.3928
   10MOL   C368 3986   4.152   4.815   5.927  0.6082 -0.7014 -0.2380
   10MOL   C369 3987   3.937   5.109   5.968  0.4478 -0.8882  0.5135
   10MOL   C370 3988   3.807   5.152   5.951  0.0659 -0.1673  0.2177
   10MOL   C371 3989   3.538   5.218   5.814 -0.1924 -0.5817 -0.1170
   10MOL   H372 3990   3.505   5.027   5.868  0.5136 -0.2070  0.1545
   10MOL   H373 3991   3.664   4.854   5.877  0.5068 -0.0315 -1.7085
   10MOL   H374 3992   3.901   4.781   5.882  0.7373 -0.9058  3.6965
   10MOL   H375 3993   4.133   4.734   5.997 -2.5727 -1.2091 -1.6085
   10MOL   H376 3994   4.112   4.793   5.828  2.0069  1.1715 -1.2535
   10MOL   H377 3995   4.260   4.826   5.918  0.5768  0.4901  0.6809
   10MOL   H378 3996   4.009   5.181   6.006  1.0628 -1.6841  0.8777
   10MOL   H379 3997   3.780   5.254   5.975 -2.3544  0.0796 -3.1996
   10MOL   H380 3998   3.616   5.293   5.831 -0.6385  0.1414 -1.2426
   10MOL   H381 3999   3.564   5.172   5.719 -3.0951  1.1134 -1.7815
   10MOL   C382 4000   3.401   5.282   5.799  0.8356  0.0021  1.0087
   10MOL   C383 4001   3.282   5.192   5.754 -0.2879 -1.2370 -0.4598
   10MOL   C384 4002   3.283   5.055   5.723 -0.4034 -0.0036 -0.1260
   10MOL   C385 4003   3.161   4.986   5.691 -0.7263 -0.4029 -0.1146
   10MOL   C386 4004   3.044   5.052   5.697  0.4018  0.4559 -0.6352
   10MOL   O387 4005   2.924   4.992   5.699 -0.4492 -0.2400 -0.4040
   10MOL   C388 4006   2.918   4.848   5.731  0.4512 -0.4783 -0.6860
   10MOL   C389 4007   3.040   5.187   5.722  0.0534 -0.7200  0.7988
   10MOL   C390 4008   3.156   5.258   5.737 -0.1078  0.3175  0.1741
   10MOL   C391 4009   3.398   5.406   5.699  0.3126 -0.2001  0.5430
   10MOL   H392 4010   3.364   5.331   5.889 -0.8648  0.7068 -0.0510
   10MOL   H393 4011   3.375   5.000   5.714 -1.3559 -1.9314  1.4036
   10MOL   H394 4012   3.174   4.881   5.669  0.4662 -0.6158  1.5075
   10MOL   H395 4013   3.011   4.798   5.757  1.5915  1.4139 -1.0383
   10MOL   H396 4014   2.903   4.796   5.636 -1.3069 -0.7928 -0.2529
   10MOL   H397 4015   2.838   4.822   5.800  2.1079 -1.6134  0.8213
   10MOL   H398 4016   2.950   5.246   5.730  0.5105  0.1067 -0.0865
   10MOL   H399 4017   3.141   5.365   5.748  2.1528  0.7291 -0.6139
   10MOL   H400 4018   3.437   5.366   5.605 -0.6551  2.8085 -1.2189
   10MOL   H401 4019   3.471   5.480   5.734  0.4909  1.1191 -2.4355
   10MOL   H402 4020   3.303   5.459   5.692 -0.0937 -0.9043  0.6886
   11MOL     C1 4021   7.508   5.669   6.514 -0.5586  0.0898  0.4658
   11MOL     C2 4022   7.560   5.755   6.624  0.2129 -0.3421 -0.4109
   11MOL     C3 4023   7.518   5.738   6.751  0.5857  0.2468  0.8416
   11MOL     C4 4024   7.566   5.821   6.857 -0.0452  0.0394 -0.3943
   11MOL     C5 4025   7.665   5.913   6.831 -0.3520  0.8418 -0.3016
   11MOL     O6 4026   7.714   5.999   6.926 -0.4449  0.1714  0.3338
   11MOL     C7 4027   7.742   5.944   7.051 -1.1158  0.5281 -0.7802
   11MOL     C8 4028   7.715   5.928   6.697 -0.2805 -0.6708  0.5741
   11MOL     C9 4029   7.668   5.842   6.596 -0.1400  0.2211 -0.6499
   11MOL    C10 4030   7.368   5.715   6.464 -0.5481 -0.1868 -0.1204
   11MOL    H11 4031   7.497   5.566   6.550 -1.4272 -0.0853 -0.2664
   11MOL    H12 4032   7.451   5.656   6.773  1.2117 -0.2471  0.9437
   11MOL    H13 4033   7.526   5.801   6.956  1.6436  1.5580  0.6333
   11MOL    H14 4034   7.666   5.880   7.095  0.0813 -1.3099 -1.3331
   11MOL    H15 4035   7.834   5.887   7.042 -1.2386  0.3685 -1.0173
   11MOL    H16 4036   7.769   6.024   7.120  1.2187 -0.7532 -0.1583
   11MOL    H17 4037   7.791   6.003   6.680 -1.0075 -0.3737 -1.5182
   11MOL    H18 4038   7.722   5.843   6.503  2.6060  1.4020  0.8911
   11MOL    H19 4039   7.296   5.655   6.521 -0.7414 -1.0495 -1.2545
   11MOL    H20 4040   7.328   5.811   6.497 -0.1717 -0.3502  0.8179
   11MOL    H21 4041   7.591   5.657   6.444 -0.0925 -0.4368  1.1074
   11MOL    C22 4042   7.344   5.692   6.312  0.4845  0.3463 -0.5665
   11MOL    C23 4043   7.203   5.654   6.287  0.0483  0.3683 -0.0450
   11MOL    C24 4044   7.093   5.721   6.345 -0.1785 -0.2611  0.5440
   11MOL    C25 4045   6.961   5.688   6.320  0.7174  0.2542 -0.1066
   11MOL    C26 4046   6.932   5.569   6.257 -0.5891  0.5530 -0.0736
   11MOL    O27 4047   6.803   5.534   6.261 -0.2163 -0.2393 -0.9585
   11MOL    C28 4048   6.756   5.448   6.157  1.3575  0.3984  0.6442
   11MOL    C29 4049   7.034   5.489   6.202 -0.3824  0.7620 -0.0028
   11MOL    C30 4050   7.165   5.536   6.217 -0.0459  0.2200 -0.1637
   11MOL    C31 4051   7.416   5.807   6.230 -0.3168 -0.0042  0.2207
   11MOL    H32 4052   7.398   5.601   6.287  0.2913  0.6967 -2.2675
   11MOL    H33 4053   7.108   5.818   6.391  1.6552 -0.2527  0.0062
   11MOL    H34 4054   6.887   5.747   6.371  2.1878 -0.0851  2.5088
   11MOL    H35 4055   6.799   5.348   6.162  0.6141  0.0822  0.9853
   11MOL    H36 4056   6.772   5.478   6.054  1.3199 -2.9827 -0.4178
   11MOL    H37 4057   6.648   5.432   6.166  1.3531 -0.0532 -0.1696
   11MOL    H38 4058   7.016   5.390   6.163  2.3407  0.2526 -0.0567
   11MOL    H39 4059   7.240   5.474   6.171  0.9913  1.2643  0.0875
   11MOL    H40 4060   7.521   5.812   6.259  0.1752 -2.5504 -0.9694
   11MOL    H41 4061   7.421   5.776   6.126 -1.5175 -1.9691  0.7135
   11MOL    C42 4062   7.359   5.953   6.248 -0.2878  0.2947  0.6260
   11MOL    C43 4063   7.310   6.016   6.121  0.7381 -0.5901 -0.3167
   11MOL    C44 4064   7.200   5.958   6.052  0.0822  0.1795  0.1672
   11MOL    C45 4065   7.159   6.014   5.928 -0.1014  0.5636 -0.5368
   11MOL    C46 4066   7.233   6.116   5.868  0.0083  0.6028  0.1684
   11MOL    O47 4067   7.195   6.141   5.739 -0.8176  0.1606  0.1624
   11MOL    C48 4068   7.273   6.229   5.659  0.8560 -0.8120 -0.0982
   11MOL    C49 4069   7.346   6.168   5.935 -0.1652  0.4440 -0.1861
   11MOL    C50 4070   7.388   6.117   6.064  0.1150  0.7472  0.0167
   11MOL    C51 4071   7.452   6.032   6.351 -0.4491 -0.7281  0.1533
   11MOL    H52 4072   7.265   5.934   6.299 -0.8879  0.3697 -0.4517
   11MOL    H53 4073   7.145   5.877   6.097  0.7801 -0.9832 -1.0281
   11MOL    H54 4074   7.069   5.972   5.886  0.9978 -0.4601 -1.8803
   11MOL    H55 4075   7.381   6.217   5.669  1.1852  1.9655  0.1451
   11MOL    H56 4076   7.255   6.217   5.552  0.6341 -0.5567 -0.0894
   11MOL    H57 4077   7.238   6.331   5.676 -1.8387 -1.8945  1.0216
   11MOL    H58 4078   7.404   6.245   5.886  0.3923 -0.7162 -1.3779
   11MOL    H59 4079   7.468   6.167   6.117  0.8493  0.5922 -0.9247
   11MOL    H60 4080   7.548   6.044   6.301 -1.0156  0.7025 -0.6287
   11MOL    H61 4081   7.472   5.968   6.438 -0.1869  1.8215  2.0133
   11MOL    C62 4082   7.390   6.175   6.404  0.4017  0.0844 -0.2684
   11MOL    C63 4083   7.501   6.242   6.486  0.3221 -0.5076  0.4877
   11MOL    C64 4084   7.528   6.205   6.623  0.0435 -0.0773 -0.2511
   11MOL    C65 4085   7.638   6.257   6.699  0.6085  0.0692 -0.5666
   11MOL    C66 4086   7.716   6.356   6.640  0.5939  0.5723  1.2018
   11MOL    O67 4087   7.825   6.411   6.704 -0.2045 -0.1504 -0.7476
   11MOL    C68 4088   7.841   6.374   6.844 -0.3210  0.5803 -0.3313
   11MOL    C69 4089   7.689   6.396   6.508 -0.2435 -0.4116  0.5852
   11MOL    C70 4090   7.583   6.340   6.430  1.3401  0.3409 -0.2387
   11MOL    C71 4091   7.260   6.158   6.475 -0.3949  0.4207 -0.1595
   11MOL    H72 4092   7.373   6.234   6.315 -0.0340  1.4337  0.6934
   11MOL    H73 4093   7.459   6.142   6.678  0.4752  0.0341  0.4092
   11MOL    H74 4094   7.660   6.219   6.797 -0.2985  0.7208 -0.0983
   11MOL    H75 4095   7.756   6.390   6.909  0.1572  0.8034  0.2439
   11MOL    H76 4096   7.921   6.434   6.889 -0.4088  0.5121 -0.0854
   11MOL    H77 4097   7.859   6.266   6.851  0.3999  0.6210 -1.3415
   11MOL    H78 4098   7.751   6.476   6.469 -0.6877 -0.4818 -0.2903
   11MOL    H79 4099   7.576   6.375   6.328 -1.0586  5.3429  1.4963
   11MOL    H80 4100   7.195   6.134   6.391 -1.2758  2.2105 -0.0057
   11MOL    H81 4101   7.277   6.063   6.525  0.1487 -0.3503 -1.7801
   11MOL    C82 4102   7.204   6.265   6.565  0.0097  0.3347  0.2506
   11MOL    C83 4103   7.190   6.414   6.511 -0.2356 -0.3477 -0.5574
   11MOL    C84 4104   7.223   6.519   6.607 -0.7835 -0.6052  0.0192
   11MOL    C85 4105   7.223   6.654   6.565  0.2343  0.1696 -0.9694
   11MOL    C86 4106   7.190   6.678   6.428  0.3580  0.4510 -0.4538
   11MOL    O87 4107   7.192   6.809   6.380 -0.2079  0.3221  0.0514
   11MOL    C88 4108   7.232   6.919   6.459  0.3746  0.5981  0.4314
   11MOL    C89 4109   7.151   6.582   6.340  0.0674  0.9176  0.1783
   11MOL    C90 4110   7.151   6.448   6.378  0.4831 -0.2978  0.0034
   11MOL    C91 4111   7.075   6.210   6.632 -0.6874  0.4233  0.1888
   11MOL    H92 4112   7.277   6.277   6.645  0.6712 -0.1835 -0.2699
   11MOL    H93 4113   7.246   6.485   6.706 -1.2232 -3.1893 -0.7124
   11MOL    H94 4114   7.247   6.739   6.627  0.5253  0.9683 -2.1535
   11MOL    H95 4115   7.329   6.917   6.509  0.1016  0.7635  0.9646
   11MOL    H96 4116   7.148   6.929   6.527  1.4114 -1.1004  2.0101
   11MOL    H97 4117   7.221   7.002   6.389 -0.1768  0.7232  0.6637
   11MOL    H98 4118   7.135   6.598   6.234 -1.3701  2.4312  0.6049
   11MOL    H99 4119   7.120   6.371   6.310 -1.2286  0.4853 -0.1266
   11MOL   H100 4120   7.014   6.295   6.662  0.2338 -0.1715  4.0151
   11MOL   H101 4121   7.008   6.158   6.564 -0.1148 -0.9941  0.7031
   11MOL   C102 4122   7.092   6.108   6.750 -0.1708 -0.3366 -0.6917
   11MOL   C103 4123   7.187   6.155   6.856  0.1390 -0.2201  0.0163
   11MOL   C104 4124   7.186   6.288   6.898  0.5768  0.0272  0.1833
   11MOL   C105 4125   7.277   6.334   6.998  0.2844 -0.2018 -0.3375
   11MOL   C106 4126   7.373   6.246   7.055 -0.1140 -0.0103 -0.0503
   11MOL   O107 4127   7.468   6.292   7.149  0.1486  0.0156  0.1451
   11MOL   C108 4128   7.510   6.199   7.250 -0.6319 -0.3495  0.2578
   11MOL   C109 4129   7.375   6.117   7.010 -0.6273  0.7975  0.0690
   11MOL   C110 4130   7.284   6.065   6.912 -0.2433 -0.3247  0.0633
   11MOL   C111 4131   6.962   6.066   6.829  0.2127  0.5850  0.1033
   11MOL   H112 4132   7.131   6.016   6.707  1.2430  1.4171 -3.3207
   11MOL   H113 4133   7.122   6.361   6.851  0.2082 -0.4804 -0.1047
   11MOL   H114 4134   7.251   6.435   7.025 -1.3757 -0.7557  0.2237
   11MOL   H115 4135   7.533   6.250   7.344  0.1603 -0.7399  0.2760
   11MOL   H116 4136   7.444   6.113   7.264 -0.0724 -1.0605 -1.4404
   11MOL   H117 4137   7.597   6.150   7.208 -0.5899 -0.5892  0.6218
   11MOL   H118 4138   7.454   6.047   7.034  0.4108  1.9906  0.1708
   11MOL   H119 4139   7.299   5.967   6.869 -1.2246  0.6367 -2.5416
   11MOL   H120 4140   6.991   5.986   6.897 -0.6806  0.4750  0.3519
   11MOL   H121 4141   6.933   6.150   6.892  1.2742 -0.0771  1.4901
   11MOL   C122 4142   6.836   6.034   6.754  0.2819  0.4180  0.1228
   11MOL   C123 4143   6.711   6.053   6.842 -0.1285  0.1713 -0.3652
   11MOL   C124 4144   6.682   5.973   6.955  0.1127 -0.5926 -0.8581
   11MOL   C125 4145   6.578   6.001   7.043 -0.1797  0.7002 -0.1174
   11MOL   C126 4146   6.497   6.115   7.013  0.0337 -0.4422  0.5899
   11MOL   O127 4147   6.398   6.134   7.105 -0.3150 -0.3948 -0.2422
   11MOL   C128 4148   6.287   6.208   7.068  0.5239 -0.2765  0.6842
   11MOL   C129 4149   6.519   6.192   6.900  1.0388 -0.3005  0.4628
   11MOL   C130 4150   6.627   6.163   6.812  0.1316 -0.2730 -0.8167
   11MOL   C131 4151   6.844   5.898   6.686  0.0564  0.4561 -0.1927
   11MOL   H132 4152   6.819   6.103   6.671  0.3399  1.8456  1.2857
   11MOL   H133 4153   6.737   5.884   6.982 -0.7169 -0.9238 -0.2192
   11MOL   H134 4154   6.557   5.943   7.132 -0.8805  0.2575 -0.5614
   11MOL   H135 4155   6.308   6.313   7.043 -1.7028 -0.1730 -0.8640
   11MOL   H136 4156   6.221   6.155   7.000 -1.7837  3.3181  0.0117
   11MOL   H137 4157   6.222   6.225   7.154 -2.3690 -1.4495 -1.2085
   11MOL   H138 4158   6.445   6.265   6.873 -1.3993 -3.0223 -0.3935
   11MOL   H139 4159   6.637   6.218   6.720 -2.5478 -0.2377 -1.1509
   11MOL   H140 4160   6.894   5.837   6.762 -0.5168  1.6270  1.1492
   11MOL   H141 4161   6.911   5.914   6.601 -1.2792  2.3216 -0.9096
   11MOL   C142 4162   6.705   5.833   6.650  0.0975 -0.4302 -0.3143
   11MOL   C143 4163   6.606   5.923   6.578  0.9444  0.5994  0.3226
   11MOL   C144 4164   6.473   5.932   6.619 -0.1597  0.0638 -0.4123
   11MOL   C145 4165   6.388   6.016   6.546 -0.4951 -0.6292  0.1002
   11MOL   C146 4166   6.436   6.093   6.435 -1.0809  0.5128  0.0216
   11MOL   O147 4167   6.355   6.173   6.362  0.0029 -0.1764 -0.4053
   11MOL   C148 4168   6.403   6.290   6.297  0.0086  0.3758  0.5663
   11MOL   C149 4169   6.574   6.091   6.408  0.1092  0.1569  0.4307
   11MOL   C150 4170   6.653   6.002   6.475  0.7269 -0.0276 -0.4366
   11MOL   C151 4171   6.717   5.691   6.589  0.0125 -0.3080  0.3241
   11MOL   H152 4172   6.660   5.824   6.749  0.6191 -0.8516 -0.1140
   11MOL   H153 4173   6.444   5.888   6.713  1.2988  1.5081  0.7541
   11MOL   H154 4174   6.286   6.022   6.581 -1.2335  1.3276 -2.3057
   11MOL   H155 4175   6.475   6.272   6.218  3.0064  0.4926  3.1756
   11MOL   H156 4176   6.315   6.338   6.254 -0.8584 -1.9568 -0.3264
   11MOL   H157 4177   6.444   6.373   6.355  2.9760 -0.4484 -0.3063
   11MOL   H158 4178   6.609   6.152   6.326 -1.3566 -0.5357 -0.7264
   11MOL   H159 4179   6.758   6.000   6.452  1.0409  1.7228  0.7869
   11MOL   H160 4180   6.820   5.662   6.608  0.5655  0.8223 -0.8128
   11MOL   H161 4181   6.707   5.695   6.480  2.3011 -0.2553  0.0906
   11MOL   C162 4182   6.627   5.581   6.650  0.0920  0.1173  0.4209
   11MOL   C163 4183   6.643   5.570   6.806  0.1516  0.2524  0.2460
   11MOL   C164 4184   6.550   5.630   6.895  0.1759  0.2169 -0.2986
   11MOL   C165 4185   6.556   5.621   7.039  0.1998  0.4531  0.1016
   11MOL   C166 4186   6.659   5.541   7.091  0.5345 -0.0117 -0.4591
   11MOL   O167 4187   6.674   5.522   7.232 -0.3781  0.1441  1.2235
   11MOL   C168 4188   6.584   5.587   7.322 -0.2348  0.3771  0.2135
   11MOL   C169 4189   6.748   5.477   7.004 -1.4924 -0.1829  0.0289
   11MOL   C170 4190   6.743   5.487   6.861  0.7494 -0.1800 -0.7693
   11MOL   C171 4191   6.632   5.454   6.566 -0.7634  0.3580  0.6216
   11MOL   H172 4192   6.529   5.627   6.635 -0.3553 -1.0008 -0.1540
   11MOL   H173 4193   6.466   5.684   6.853 -0.1149 -2.1109 -2.7859
   11MOL   H174 4194   6.485   5.671   7.103 -0.4306 -0.8986  0.4830
   11MOL   H175 4195   6.590   5.692   7.291 -1.7384  0.4943  0.3194
   11MOL   H176 4196   6.621   5.572   7.423 -0.7772  0.8031  0.4798
   11MOL   H177 4197   6.485   5.547   7.302 -0.8499  2.0400 -0.1329
   11MOL   H178 4198   6.817   5.408   7.049  1.2103  1.6133 -1.2284
   11MOL   H179 4199   6.805   5.430   6.793 -1.9155 -1.3284 -2.3100
   11MOL   H180 4200   6.733   5.413   6.561 -1.7547 -1.8631 -3.3130
   11MOL   H181 4201   6.619   5.465   6.459 -0.2809 -0.7240  0.4465
   11MOL   C182 4202   6.537   5.345   6.617  0.0845  1.0651  0.1576
   11MOL   C183 4203   6.601   5.206   6.624 -0.4397 -0.9218 -0.0921
   11MOL   C184 4204   6.611   5.146   6.748 -0.0109  0.1980  0.0639
   11MOL   C185 4205   6.693   5.035   6.764 -0.3616  0.0326  0.0681
   11MOL   C186 4206   6.749   4.969   6.655 -0.9894  0.4145  0.6845
   11MOL   O187 4207   6.812   4.844   6.673  0.5125  0.3406  0.0613
   11MOL   C188 4208   6.923   4.816   6.595 -0.5340 -0.2813 -0.4917
   11MOL   C189 4209   6.724   5.026   6.523  0.1592 -0.1773 -0.1165
   11MOL   C190 4210   6.658   5.151   6.509  0.3401  0.7585  0.3649
   11MOL   C191 4211   6.411   5.339   6.527  0.8914  0.2155 -0.1792
   11MOL   H192 4212   6.505   5.377   6.716  2.6756  0.3222  1.2736
   11MOL   H193 4213   6.560   5.181   6.837 -0.8358 -1.2516  0.1766
   11MOL   H194 4214   6.702   4.986   6.860 -1.4190 -1.9032 -0.7979
   11MOL   H195 4215   6.879   4.793   6.498 -2.7619 -0.7812  0.6088
   11MOL   H196 4216   6.967   4.718   6.616  1.4264  0.4697 -0.9975
   11MOL   H197 4217   7.001   4.892   6.593 -1.0874  0.2724 -1.1617
   11MOL   H198 4218   6.758   4.972   6.435  0.0624 -0.3293 -0.0599
   11MOL   H199 4219   6.661   5.201   6.414  0.8490 -0.0718 -0.0644
   11MOL   H200 4220   6.412   5.402   6.438  0.9035  0.0631 -0.2868
   11MOL   H201 4221   6.401   5.242   6.479  0.2790  0.6547 -0.9556
   11MOL   C202 4222   6.266   5.350   6.592  0.3435  0.4448  0.2222
   11MOL   C203 4223   6.154   5.292   6.516 -0.3463  0.9014 -0.1557
   11MOL   C204 4224   6.133   5.320   6.381  0.5464 -0.1102 -0.1968
   11MOL   C205 4225   6.031   5.257   6.307  0.4059 -0.6982 -0.1079
   11MOL   C206 4226   5.950   5.156   6.371 -0.6821 -0.1708 -0.3066
   11MOL   O207 4227   5.868   5.086   6.288 -0.1291  0.3113 -0.1175
   11MOL   C208 4228   5.808   4.969   6.355  0.1823 -0.2198  0.6247
   11MOL   C209 4229   5.970   5.135   6.510 -0.2456  0.1716 -0.5591
   11MOL   C210 4230   6.073   5.198   6.581  0.3705  0.3209 -0.1992
   11MOL   C211 4231   6.241   5.496   6.643 -0.5872  0.3761 -0.0986
   11MOL   H212 4232   6.268   5.284   6.678  0.1142  0.3328  0.1395
   11MOL   H213 4233   6.189   5.400   6.335 -0.1125  1.3943  1.5184
   11MOL   H214 4234   6.015   5.266   6.201 -4.4400 -0.8453  0.5158
   11MOL   H215 4235   5.873   4.908   6.418  0.8274  1.2578  1.4188
   11MOL   H216 4236   5.730   5.008   6.420 -0.2849  0.8318 -0.5528
   11MOL   H217 4237   5.760   4.907   6.280 -4.0232  1.5052  1.7486
   11MOL   H218 4238   5.909   5.069   6.569  0.4153 -0.3502 -0.4463
   11MOL   H219 4239   6.075   5.169   6.685 -0.4450  0.4885 -0.1348
   11MOL   H220 4240   6.262   5.567   6.563  1.4005 -1.1958 -1.0180
   11MOL   H221 4241   6.322   5.523   6.711 -0.4683 -0.0389 -0.0761
   11MOL   C222 4242   6.106   5.529   6.702 -0.1039 -0.6785 -0.4491
   11MOL   C223 4243   6.125   5.622   6.820  1.2570 -0.1336  0.0334
   11MOL   C224 4244   6.197   5.737   6.797 -0.4855 -0.1965 -0.0481
   11MOL   C225 4245   6.220   5.821   6.912  0.3509  1.0702  1.0029
   11MOL   C226 4246   6.147   5.807   7.030  0.1829 -0.2290 -0.1347
   11MOL   O227 4247   6.162   5.901   7.129 -0.3975  0.0393 -0.5236
   11MOL   C228 4248   6.115   5.875   7.264 -0.5507 -0.3226  0.0019
   11MOL   C229 4249   6.063   5.694   7.042  0.2472  0.1166 -0.2418
   11MOL   C230 4250   6.059   5.597   6.944 -0.2523 -0.1840 -0.2127
   11MOL   C231 4251   6.003   5.586   6.607  0.2992 -0.0276  0.8777
   11MOL   H232 4252   6.070   5.440   6.753 -0.2322  0.6176  1.7635
   11MOL   H233 4253   6.241   5.764   6.702  0.2589 -0.4940  0.2097
   11MOL   H234 4254   6.288   5.904   6.900 -0.0065  1.3982  1.2610
   11MOL   H235 4255   6.166   5.792   7.312 -1.4314  0.5069  2.4335
   11MOL   H236 4256   6.125   5.964   7.326 -1.0458 -1.8544  2.3607
   11MOL   H237 4257   6.009   5.852   7.271 -0.7907  0.4927 -0.7433
   11MOL   H238 4258   6.002   5.676   7.130  3.0091 -5.4088  0.7928
   11MOL   H239 4259   6.002   5.506   6.950 -0.4620  0.0345  1.1935
   11MOL   H240 4260   6.034   5.689   6.591 -1.6946  0.1368 -2.5031
   11MOL   H241 4261   6.003   5.542   6.507 -1.5482  1.3780  0.2127
   11MOL   C242 4262   5.857   5.594   6.668  0.0170 -0.3002  0.0113
   11MOL   C243 4263   5.781   5.711   6.606 -0.3451 -0.1639  0.2901
   11MOL   C244 4264   5.714   5.802   6.695 -0.4006  0.5091 -0.0306
   11MOL   C245 4265   5.641   5.906   6.645 -0.3187  0.1522 -0.2891
   11MOL   C246 4266   5.638   5.943   6.507  0.1484 -0.2842 -0.3616
   11MOL   O247 4267   5.577   6.057   6.460  0.0180  0.2107  0.5137
   11MOL   C248 4268   5.530   6.149   6.563 -0.5110  0.0110 -1.0333
   11MOL   C249 4269   5.705   5.856   6.421  0.0973 -0.5822  0.2114
   11MOL   C250 4270   5.772   5.735   6.469 -0.6370 -0.0343 -0.0281
   11MOL   C251 4271   5.797   5.457   6.648  0.1712 -0.0520  0.0135
   11MOL   H252 4272   5.846   5.620   6.774 -1.3261  2.2942 -0.7447
   11MOL   H253 4273   5.714   5.802   6.803  0.0114  2.0779 -0.0165
   11MOL   H254 4274   5.581   5.964   6.713 -0.0781 -1.0100  0.9254
   11MOL   H255 4275   5.441   6.117   6.617  1.7190 -3.2982  0.9059
   11MOL   H256 4276   5.609   6.156   6.638 -1.7799  0.3311  0.2796
   11MOL   H257 4277   5.532   6.249   6.519  0.7296  0.2403 -0.4818
   11MOL   H258 4278   5.694   5.876   6.316 -0.1486  0.1060  0.3675
   11MOL   H259 4279   5.813   5.668   6.395  0.6905 -0.1824  0.8143
   11MOL   H260 4280   5.869   5.385   6.685 -0.2631  1.0514  3.1241
   11MOL   H261 4281   5.788   5.428   6.543  1.7463 -1.4179  0.2460
   11MOL   C262 4282   5.659   5.422   6.705  0.7961  0.5319 -0.0593
   11MOL   C263 4283   5.648   5.451   6.856  0.2894  0.4887 -0.0090
   11MOL   C264 4284   5.744   5.400   6.947 -0.2400 -0.0763 -0.5488
   11MOL   C265 4285   5.717   5.396   7.084 -0.1343  0.5785 -0.2251
   11MOL   C266 4286   5.600   5.450   7.134 -0.8245  0.4642  0.1726
   11MOL   O267 4287   5.569   5.458   7.263 -0.0127  0.3708  0.2685
   11MOL   C268 4288   5.656   5.395   7.358  0.1209 -0.4143  0.5571
   11MOL   C269 4289   5.508   5.517   7.044  0.3213  0.3504 -0.0566
   11MOL   C270 4290   5.533   5.509   6.907  0.2483 -0.2777  0.7202
   11MOL   C271 4291   5.637   5.271   6.672 -0.1967  0.0281  0.1598
   11MOL   H272 4292   5.587   5.486   6.653 -1.8535 -1.9743  0.4385
   11MOL   H273 4293   5.832   5.349   6.910 -0.6821  0.5082 -2.4446
   11MOL   H274 4294   5.788   5.354   7.153  0.8221  0.6182 -1.1777
   11MOL   H275 4295   5.652   5.286   7.350  0.4658 -0.3762 -0.1685
   11MOL   H276 4296   5.617   5.428   7.454  2.2453  2.8379  0.3807
   11MOL   H277 4297   5.760   5.424   7.342  0.6001 -2.3169  0.0349
   11MOL   H278 4298   5.421   5.566   7.084 -1.7746 -0.8867 -2.8939
   11MOL   H279 4299   5.456   5.548   6.842 -0.6183 -1.0299  1.2788
   11MOL   H280 4300   5.666   5.256   6.568  0.8435 -0.5087  0.5186
   11MOL   H281 4301   5.705   5.209   6.731  1.2563  1.1794 -0.2679
   11MOL   C282 4302   5.494   5.233   6.695  0.3531  0.8560  0.3438
   11MOL   C283 4303   5.469   5.126   6.805  0.6058  0.5253  0.1200
   11MOL   C284 4304   5.395   5.165   6.914  0.7240 -0.9405 -0.1661
   11MOL   C285 4305   5.358   5.072   7.013 -0.3981 -0.1447  0.4925
   11MOL   C286 4306   5.398   4.933   6.995  0.3048  0.3302  0.2573
   11MOL   O287 4307   5.362   4.827   7.070  0.0076  0.2478  0.0187
   11MOL   C288 4308   5.286   4.849   7.193 -0.8349 -0.5994  1.1464
   11MOL   C289 4309   5.475   4.895   6.884 -0.2091 -0.0780  0.1348
   11MOL   C290 4310   5.513   4.993   6.792 -0.3792  0.4462  0.2087
   11MOL   C291 4311   5.416   5.194   6.567 -0.4361 -0.4933  0.0685
   11MOL   H292 4312   5.452   5.325   6.737 -1.2538  0.4196 -0.2760
   11MOL   H293 4313   5.359   5.264   6.935  1.6134 -0.2029 -2.0557
   11MOL   H294 4314   5.291   5.103   7.091 -0.4147 -1.1645  0.8996
   11MOL   H295 4315   5.180   4.853   7.168 -1.2369 -0.6817  2.7885
   11MOL   H296 4316   5.301   4.759   7.253 -0.5766 -0.7205  0.9030
   11MOL   H297 4317   5.309   4.945   7.238 -2.1645 -1.2692  3.3735
   11MOL   H298 4318   5.506   4.792   6.869  0.8847  0.2844 -0.1638
   11MOL   H299 4319   5.573   4.962   6.708 -0.7451  1.1084 -0.3081
   11MOL   H300 4320   5.431   5.276   6.497  0.3155  0.1469  0.9748
   11MOL   H301 4321   5.464   5.104   6.530  0.1641 -0.2193  0.1757
   11MOL   C302 4322   5.264   5.198   6.595  0.1959  1.1417 -0.4582
   11MOL   C303 4323   5.205   5.337   6.616 -0.2617 -0.4677  0.4847
   11MOL   C304 4324   5.161   5.375   6.746  0.6510 -0.4283  0.8365
   11MOL   C305 4325   5.131   5.512   6.777  0.4680 -0.8778  0.2120
   11MOL   C306 4326   5.147   5.606   6.678  0.2990 -1.0575 -0.5640
   11MOL   O307 4327   5.132   5.737   6.719 -0.6096 -0.9060  0.5395
   11MOL   C308 4328   5.176   5.845   6.637 -0.4696 -0.5253  0.1812
   11MOL   C309 4329   5.182   5.573   6.547 -0.2118 -0.5715 -0.2637
   11MOL   C310 4330   5.209   5.440   6.514  0.0880  0.5116 -0.1096
   11MOL   C311 4331   5.202   5.122   6.473 -0.3746 -0.0160 -0.4165
   11MOL   H312 4332   5.252   5.136   6.685 -1.2622  1.8164 -0.1817
   11MOL   H313 4333   5.144   5.311   6.831 -3.1501 -0.7566 -0.1031
   11MOL   H314 4334   5.118   5.549   6.878  0.4580 -2.3239  0.7429
   11MOL   H315 4335   5.177   5.938   6.693  1.4163  1.4559 -2.9604
   11MOL   H316 4336   5.122   5.875   6.547 -2.9809  1.7361  2.3592
   11MOL   H317 4337   5.282   5.825   6.624 -0.3279  0.2468  0.1049
   11MOL   H318 4338   5.197   5.656   6.479 -1.1028 -0.3716 -0.2218
   11MOL   H319 4339   5.260   5.425   6.421  2.3367  1.6952  0.8895
   11MOL   H320 4340   5.238   5.019   6.468  2.8811  1.0881 -0.9099
   11MOL   H321 4341   5.242   5.183   6.392  0.5910  0.4646  0.4132
   11MOL   C322 4342   5.054   5.116   6.472 -1.0228  0.6457  0.1427
   11MOL   C323 4343   4.993   5.082   6.605  0.0136  0.1125 -0.2412
   11MOL   C324 4344   5.048   4.975   6.682 -0.1841  0.7849 -0.9520
   11MOL   C325 4345   4.997   4.954   6.812  0.4023 -0.6036 -0.7225
   11MOL   C326 4346   4.900   5.041   6.867  0.3240 -0.5492 -0.3050
   11MOL   O327 4347   4.865   5.019   7.000  0.2516 -0.0286  0.3719
   11MOL   C328 4348   4.779   5.113   7.069  0.2672  0.3440  0.3465
   11MOL   C329 4349   4.845   5.146   6.787 -0.1023  0.0246  0.0184
   11MOL   C330 4350   4.891   5.159   6.652 -0.1911  0.8302 -0.2555
   11MOL   C331 4351   5.001   5.014   6.369  0.4585 -0.0107  0.4831
   11MOL   H332 4352   5.015   5.214   6.443  1.4867  1.6510  0.0642
   11MOL   H333 4353   5.131   4.917   6.644 -0.0271  1.5052 -1.7491
   11MOL   H334 4354   5.020   4.870   6.875 -2.8883 -0.4876  0.7437
   11MOL   H335 4355   4.680   5.128   7.028  0.1864  0.2982  0.5230
   11MOL   H336 4356   4.835   5.203   7.094  0.4718  0.2448  0.2495
   11MOL   H337 4357   4.747   5.069   7.164 -1.6546  0.6305 -0.1594
   11MOL   H338 4358   4.772   5.221   6.812  0.3941  1.5183 -2.7368
   11MOL   H339 4359   4.828   5.224   6.593 -0.4490  1.3255  0.5449
   11MOL   H340 4360   5.027   4.915   6.407  0.2686 -0.6624 -1.0194
   11MOL   H341 4361   4.892   5.013   6.380  0.4842 -0.7948  0.7202
   11MOL   C342 4362   5.039   5.034   6.217  0.5738  0.0662  0.2209
   11MOL   C343 4363   5.014   5.183   6.175 -0.2045  0.0423  0.7148
   11MOL   C344 4364   5.128   5.269   6.168  0.2329 -0.0624  0.0776
   11MOL   C345 4365   5.103   5.409   6.163  0.0123  0.5434 -0.6560
   11MOL   C346 4366   4.974   5.457   6.141 -0.2025 -0.4311  0.5558
   11MOL   O347 4367   4.950   5.591   6.124 -0.1927 -0.3454  0.5364
   11MOL   C348 4368   5.041   5.682   6.173 -0.1607  0.1843  0.0326
   11MOL   C349 4369   4.865   5.371   6.141  0.7374  0.1289  0.7700
   11MOL   C350 4370   4.883   5.233   6.165 -0.7514  0.6532  0.8270
   11MOL   C351 4371   4.971   4.930   6.122 -0.5692  0.0716 -0.9648
   11MOL   H352 4372   5.147   5.015   6.212  0.6978  0.3256  1.6818
   11MOL   H353 4373   5.229   5.233   6.175  0.3345  0.2539  0.2799
   11MOL   H354 4374   5.187   5.475   6.167  0.3400  0.1923 -1.5015
   11MOL   H355 4375   5.091   5.652   6.265 -0.6063  0.2662  0.3061
   11MOL   H356 4376   5.120   5.711   6.105  0.0086 -2.1693 -0.8220
   11MOL   H357 4377   4.984   5.771   6.200 -0.5627 -0.2982  0.8109
   11MOL   H358 4378   4.764   5.408   6.149 -1.0976 -3.6631 -2.5175
   11MOL   H359 4379   4.792   5.177   6.177 -1.0928  0.6895 -1.3735
   11MOL   H360 4380   4.873   4.908   6.163  0.0089 -1.6610 -0.4533
   11MOL   H361 4381   4.954   4.974   6.024 -0.4875  2.0764 -0.1135
   11MOL   C362 4382   5.049   4.793   6.112 -0.5600 -0.0919  0.3811
   11MOL   C363 4383   5.180   4.802   6.024 -0.6851 -0.4110  0.0691
   11MOL   C364 4384   5.286   4.719   6.068 -0.5859 -0.0205 -0.0099
   11MOL   C365 4385   5.393   4.699   5.981  0.3195 -0.8696  0.5465
   11MOL   C366 4386   5.412   4.766   5.862  0.9409  0.5644 -0.3308
   11MOL   O367 4387   5.525   4.747   5.781  0.7922  0.1167  0.6969
   11MOL   C368 4388   5.548   4.836   5.677 -0.4061  0.5204 -0.2008
   11MOL   C369 4389   5.303   4.852   5.823  0.4586  0.5358  0.4612
   11MOL   C370 4390   5.189   4.871   5.907  0.2931  0.0575 -0.0264
   11MOL   C371 4391   4.949   4.683   6.073 -0.6626  0.1045  0.3222
   11MOL   H372 4392   5.087   4.781   6.213 -0.9023 -1.2661  0.3691
   11MOL   H373 4393   5.276   4.663   6.160  0.5721 -0.6853 -0.2856
   11MOL   H374 4394   5.472   4.629   6.004  1.2163 -0.7002 -1.8476
   11MOL   H375 4395   5.636   4.799   5.624  0.2540 -0.4951  1.5394
   11MOL   H376 4396   5.471   4.836   5.601 -2.0693 -0.0275  1.4496
   11MOL   H377 4397   5.556   4.936   5.718  0.5468  0.1557  0.5574
   11MOL   H378 4398   5.298   4.901   5.727  2.8294 -0.5782 -0.2449
   11MOL   H379 4399   5.100   4.925   5.879  0.0438 -0.6372 -0.5689
   11MOL   H380 4400   5.004   4.591   6.094 -1.9081 -0.3324  1.6920
   11MOL   H381 4401   4.866   4.673   6.143 -0.6242 -1.3503  0.1734
   11MOL   C382 4402   4.896   4.675   5.925 -0.0767 -0.5957  0.0931
   11MOL   C383 4403   4.784   4.779   5.897  0.1546 -0.1555  0.0316
   11MOL   C384 4404   4.675   4.800   5.981  0.1055 -0.1556  0.0981
   11MOL   C385 4405   4.582   4.905   5.965 -0.2318  0.4305  0.1171
   11MOL   C386 4406   4.608   5.005   5.867  0.6819 -0.2005  0.7294
   11MOL   O387 4407   4.529   5.117   5.854  0.5748  0.2601 -0.0373
   11MOL   C388 4408   4.594   5.237   5.816 -0.2642  0.5452 -0.2204
   11MOL   C389 4409   4.725   4.981   5.784 -0.3844 -0.1928 -0.3882
   11MOL   C390 4410   4.807   4.871   5.797  0.6824 -0.6344 -0.2862
   11MOL   C391 4411   4.840   4.532   5.887 -0.7034 -0.0909 -0.4364
   11MOL   H392 4412   4.982   4.696   5.861  0.0400  0.1824  0.5052
   11MOL   H393 4413   4.653   4.731   6.061 -0.0617 -0.2541 -0.0327
   11MOL   H394 4414   4.499   4.904   6.034 -1.3487 -2.6233 -1.1993
   11MOL   H395 4415   4.528   5.318   5.848 -0.6022 -0.7576  2.5362
   11MOL   H396 4416   4.607   5.251   5.709  0.6968 -0.1964 -0.2017
   11MOL   H397 4417   4.692   5.245   5.864 -0.3900  0.2536  0.0859
   11MOL   H398 4418   4.740   5.057   5.708  0.6323  1.0647  1.0509
   11MOL   H399 4419   4.885   4.856   5.724  0.9616 -1.0213  0.0908
   11MOL   H400 4420   4.919   4.458   5.899  0.5687  1.2360 -0.5457
   11MOL   H401 4421   4.803   4.536   5.785 -0.7660  3.2434 -0.3393
   11MOL   H402 4422   4.765   4.488   5.953 -1.2200  2.5352  0.8152
   12MOL     C1 4423   6.543   1.785   0.666  1.3625  0.0408  0.0163
   12MOL     C2 4424   6.482   1.859   0.546 -0.4452 -0.0141 -0.5660
   12MOL     C3 4425   6.345   1.881   0.516 -0.5852  0.1677 -0.3417
   12MOL     C4 4426   6.300   1.942   0.399  0.2999  0.2421  0.3070
   12MOL     C5 4427   6.397   1.984   0.299 -0.4172 -0.2562 -0.5109
   12MOL     O6 4428   6.364   2.039   0.176  0.1022  0.1680 -0.3605
   12MOL     C7 4429   6.238   2.001   0.125 -0.6100 -0.3711  0.0985
   12MOL     C8 4430   6.533   1.962   0.332  0.3156  0.2946  0.3976
   12MOL     C9 4431   6.574   1.900   0.447  0.4221  0.7295  0.0056
   12MOL    C10 4432   6.566   1.636   0.640 -0.5947 -0.9430 -0.1105
   12MOL    H11 4433   6.476   1.799   0.751  0.0781  2.2758 -1.2956
   12MOL    H12 4434   6.279   1.838   0.590 -1.8968  0.5724 -1.2532
   12MOL    H13 4435   6.195   1.957   0.379  0.3887  4.1075  2.3692
   12MOL    H14 4436   6.227   1.893   0.117 -2.1012 -0.2175 -0.0597
   12MOL    H15 4437   6.151   2.051   0.168  0.0552  1.9418 -1.1377
   12MOL    H16 4438   6.234   2.033   0.021 -2.1578  0.3184  0.3608
   12MOL    H17 4439   6.612   2.014   0.280  0.4160  2.1443  2.2925
   12MOL    H18 4440   6.682   1.892   0.457  0.3561 -1.2161 -0.5564
   12MOL    H19 4441   6.472   1.594   0.604 -0.8264  0.1199 -0.7622
   12MOL    H20 4442   6.643   1.611   0.567  0.2135  0.8401  0.1126
   12MOL    H21 4443   6.639   1.823   0.700  1.7135 -2.1345  1.5302
   12MOL    C22 4444   6.605   1.551   0.770  0.0176  0.5677 -0.0262
   12MOL    C23 4445   6.498   1.556   0.874 -1.0937  0.2344 -0.3435
   12MOL    C24 4446   6.380   1.483   0.845 -0.3817  0.0019 -0.3743
   12MOL    C25 4447   6.276   1.469   0.945 -0.7074  0.1558  0.0853
   12MOL    C26 4448   6.294   1.539   1.066  0.1818 -0.4832  0.0681
   12MOL    O27 4449   6.205   1.533   1.173 -0.2284 -0.2007 -0.5695
   12MOL    C28 4450   6.087   1.460   1.164 -0.0539  0.2442  0.1354
   12MOL    C29 4451   6.409   1.610   1.094 -0.0916 -0.1142  0.0812
   12MOL    C30 4452   6.508   1.624   0.995  0.4718 -0.1235  0.3080
   12MOL    C31 4453   6.635   1.403   0.709 -0.0602 -0.1126 -1.0286
   12MOL    H32 4454   6.702   1.585   0.804 -0.7916  1.1545  1.7304
   12MOL    H33 4455   6.366   1.426   0.755  0.1670 -1.5225  0.4983
   12MOL    H34 4456   6.188   1.408   0.928 -0.7819  0.5475 -0.9919
   12MOL    H35 4457   6.095   1.354   1.186 -2.1427  0.1038  0.2866
   12MOL    H36 4458   6.043   1.476   1.066  1.2476  0.7408 -0.3843
   12MOL    H37 4459   6.011   1.492   1.235  1.3595  0.5451  1.5456
   12MOL    H38 4460   6.417   1.656   1.191  1.5182  1.8999 -0.9532
   12MOL    H39 4461   6.593   1.690   1.010  0.2073  0.7980 -1.9849
   12MOL    H40 4462   6.554   1.378   0.640  1.0337 -0.1053 -2.3209
   12MOL    H41 4463   6.724   1.412   0.647  2.6684 -0.3158  2.6582
   12MOL    C42 4464   6.648   1.280   0.802  0.3511 -0.4188 -0.3856
   12MOL    C43 4465   6.781   1.283   0.880  0.1675  0.3670  0.0953
   12MOL    C44 4466   6.900   1.243   0.814  0.0003  0.5719 -0.7016
   12MOL    C45 4467   7.017   1.236   0.886  0.1346 -0.4274 -0.9396
   12MOL    C46 4468   7.026   1.278   1.020 -0.6809  0.0711 -0.0301
   12MOL    O47 4469   7.149   1.275   1.076 -0.0849  0.5826 -0.0718
   12MOL    C48 4470   7.176   1.314   1.204  0.0622  0.0597 -0.1104
   12MOL    C49 4471   6.911   1.319   1.087  0.3277  0.3094 -0.1639
   12MOL    C50 4472   6.785   1.318   1.018  0.2296  0.2227 -0.4333
   12MOL    C51 4473   6.620   1.143   0.732 -0.5999 -0.1425  0.6300
   12MOL    H52 4474   6.571   1.285   0.879  0.8591 -1.8699  0.2287
   12MOL    H53 4475   6.902   1.233   0.706 -0.7547  0.8982 -0.7518
   12MOL    H54 4476   7.108   1.227   0.828  1.9957  2.3067  1.3766
   12MOL    H55 4477   7.100   1.294   1.280  2.0342  0.9060  2.1410
   12MOL    H56 4478   7.263   1.265   1.247  1.7189  1.6942 -1.5242
   12MOL    H57 4479   7.183   1.423   1.208 -0.6811  0.0567  1.6443
   12MOL    H58 4480   6.913   1.356   1.189  1.1600  0.9213 -0.3945
   12MOL    H59 4481   6.698   1.355   1.071  0.0115 -0.7481 -0.1069
   12MOL    H60 4482   6.660   1.063   0.794  1.9123 -1.4237 -2.5215
   12MOL    H61 4483   6.675   1.136   0.638 -0.9530 -1.1105  0.4913
   12MOL    C62 4484   6.475   1.114   0.708 -0.0784  0.5536  0.1286
   12MOL    C63 4485   6.395   1.064   0.828  0.6221  0.3011 -0.0376
   12MOL    C64 4486   6.271   1.124   0.873 -0.7302  0.0804  0.6741
   12MOL    C65 4487   6.207   1.062   0.985  0.2012 -0.0868  0.3906
   12MOL    C66 4488   6.259   0.952   1.059 -0.7537  0.4980  0.4493
   12MOL    O67 4489   6.186   0.905   1.165 -0.1804  0.4349  0.2140
   12MOL    C68 4490   6.234   0.782   1.221 -1.4262 -0.2319  0.2031
   12MOL    C69 4491   6.381   0.892   1.010  0.7811 -0.6075 -0.0423
   12MOL    C70 4492   6.439   0.953   0.898 -0.1922  0.3288 -0.1616
   12MOL    C71 4493   6.466   1.025   0.581 -0.4538  0.0306 -0.5385
   12MOL    H72 4494   6.423   1.207   0.684  0.7350  0.7953 -0.7398
   12MOL    H73 4495   6.225   1.215   0.836 -2.1021 -0.7457  0.3410
   12MOL    H74 4496   6.120   1.116   1.018  0.8490  0.3644  1.3536
   12MOL    H75 4497   6.164   0.767   1.303  0.7831 -1.7306  1.8557
   12MOL    H76 4498   6.328   0.787   1.275 -1.2459  1.0130 -0.2207
   12MOL    H77 4499   6.226   0.693   1.159  1.5207 -0.1528 -0.3426
   12MOL    H78 4500   6.425   0.805   1.056 -2.7399 -3.3920 -1.6788
   12MOL    H79 4501   6.524   0.896   0.864 -1.5862 -2.7551  1.3722
   12MOL    H80 4502   6.542   1.057   0.510 -0.1688  1.0996  0.2269
   12MOL    H81 4503   6.498   0.924   0.607 -0.5274 -0.1460 -1.1417
   12MOL    C82 4504   6.340   1.040   0.493 -0.3212  0.6846  0.0549
   12MOL    C83 4505   6.316   1.182   0.442 -0.5810 -0.1886  0.4438
   12MOL    C84 4506   6.184   1.224   0.444 -0.3487  0.0751 -0.5951
   12MOL    C85 4507   6.149   1.347   0.381  0.6418  0.6250  0.0174
   12MOL    C86 4508   6.252   1.436   0.338  0.6353 -0.4773  0.8115
   12MOL    O87 4509   6.227   1.564   0.286 -0.2273  0.2033 -0.7772
   12MOL    C88 4510   6.096   1.603   0.288  0.1863 -0.2890  0.0259
   12MOL    C89 4511   6.381   1.397   0.354 -0.0587  0.1215 -0.4570
   12MOL    C90 4512   6.413   1.272   0.400 -0.2437 -0.8574  0.4918
   12MOL    C91 4513   6.337   0.931   0.382  0.6925  0.7503 -0.5663
   12MOL    H92 4514   6.259   1.019   0.563  0.7712 -0.4072  1.0108
   12MOL    H93 4515   6.096   1.166   0.468  0.7303 -1.3794 -0.0974
   12MOL    H94 4516   6.044   1.375   0.375  0.3903 -0.2977  0.0077
   12MOL    H95 4517   6.045   1.525   0.231 -0.3766 -0.0914  0.2505
   12MOL    H96 4518   6.076   1.688   0.222  2.2934 -0.4872 -0.8900
   12MOL    H97 4519   6.053   1.619   0.387  3.9507  0.6472  1.5988
   12MOL    H98 4520   6.462   1.463   0.328  1.2636 -1.2365  0.1874
   12MOL    H99 4521   6.519   1.252   0.400  0.0621  0.7395  1.4094
   12MOL   H100 4522   6.406   0.961   0.303  3.5883  0.2792  1.6937
   12MOL   H101 4523   6.375   0.838   0.424  0.5880  1.1647  0.4678
   12MOL   C102 4524   6.204   0.910   0.309  0.2928 -0.6181 -1.0768
   12MOL   C103 4525   6.232   0.835   0.172 -0.1500 -0.2715  0.3570
   12MOL   C104 4526   6.166   0.882   0.056  0.0135 -0.1210 -0.1570
   12MOL   C105 4527   6.181   0.819   7.974 -1.0349 -0.8337  0.3330
   12MOL   C106 4528   6.276   0.715   7.969  0.6894  0.2021  0.3681
   12MOL   O107 4529   6.281   0.652   7.841  0.0929 -0.1858 -1.2418
   12MOL   C108 4530   6.359   0.528   7.833 -0.2586  0.9043 -0.9642
   12MOL   C109 4531   6.342   0.661   0.042  0.0056  0.1032 -0.2778
   12MOL   C110 4532   6.306   0.713   0.163  0.0493 -0.1116  0.0898
   12MOL   C111 4533   6.091   0.835   0.393  0.2335 -0.1452  0.3866
   12MOL   H112 4534   6.157   1.002   0.274 -0.5798 -0.6898 -0.1022
   12MOL   H113 4535   6.103   0.968   0.069  0.7679  0.3785  0.2186
   12MOL   H114 4536   6.129   0.846   7.883 -0.5656  1.8876  0.8319
   12MOL   H115 4537   6.350   0.481   7.735  0.4390  2.4813 -1.8230
   12MOL   H116 4538   6.466   0.549   7.843 -0.5102  1.6207  0.3901
   12MOL   H117 4539   6.323   0.459   7.908  1.1226 -0.9144 -1.9241
   12MOL   H118 4540   6.401   0.570   0.038 -2.3577 -1.5132  0.0220
   12MOL   H119 4541   6.341   0.670   0.256 -0.8358 -1.2904 -0.1071
   12MOL   H120 4542   6.108   0.727   0.387  0.7647  0.0781 -2.4950
   12MOL   H121 4543   6.101   0.863   0.498 -0.1102  0.4394  0.2662
   12MOL   C122 4544   5.946   0.861   0.340 -0.4780 -0.7733 -0.0969
   12MOL   C123 4545   5.891   1.007   0.370  0.9896  0.2651 -0.0593
   12MOL   C124 4546   5.894   1.108   0.270  0.0043  0.3265 -0.0368
   12MOL   C125 4547   5.834   1.229   0.288 -0.6301 -1.1580  0.1640
   12MOL   C126 4548   5.790   1.265   0.420 -0.2842  0.9707 -0.3714
   12MOL   O127 4549   5.739   1.389   0.452  0.4558 -0.4210  0.5593
   12MOL   C128 4550   5.702   1.475   0.345 -0.7379 -0.4363 -0.4562
   12MOL   C129 4551   5.781   1.166   0.523 -0.6947  0.0605 -0.0332
   12MOL   C130 4552   5.836   1.040   0.495  0.2426  0.3115 -0.6233
   12MOL   C131 4553   5.843   0.756   0.385  0.4569  0.4538  0.2211
   12MOL   H132 4554   5.947   0.861   0.231  0.0026  0.5808 -0.1052
   12MOL   H133 4555   5.915   1.081   0.168 -3.4138  1.4880 -1.1256
   12MOL   H134 4556   5.817   1.307   0.215 -0.8328  1.6582  3.0748
   12MOL   H135 4557   5.620   1.432   0.288  0.0180 -2.7723  0.1476
   12MOL   H136 4558   5.661   1.563   0.394  1.7998  0.4653  0.1158
   12MOL   H137 4559   5.782   1.515   0.283 -1.4838  1.1978 -0.3924
   12MOL   H138 4560   5.753   1.190   0.624  0.5433 -0.2816  0.4044
   12MOL   H139 4561   5.840   0.968   0.576  2.2093  0.6300 -0.4183
   12MOL   H140 4562   5.739   0.788   0.387  0.5525  0.8580 -0.8120
   12MOL   H141 4563   5.873   0.728   0.486 -1.8473 -1.7520  0.3459
   12MOL   C142 4564   5.835   0.617   0.312  0.7223 -1.0642 -0.7204
   12MOL   C143 4565   5.968   0.541   0.311  0.7385 -0.6863  0.1099
   12MOL   C144 4566   6.024   0.507   0.190 -0.2665  0.2868 -0.0610
   12MOL   C145 4567   6.152   0.444   0.182  0.0578  0.1739  0.8010
   12MOL   C146 4568   6.217   0.393   0.304  0.3509 -0.1392  0.5956
   12MOL   O147 4569   6.329   0.314   0.306 -0.1176 -0.2384 -0.4022
   12MOL   C148 4570   6.346   0.224   0.200 -0.2858 -0.1611 -0.4579
   12MOL   C149 4571   6.156   0.425   0.429  0.7559  0.4922  0.6430
   12MOL   C150 4572   6.035   0.501   0.430 -0.0505 -0.1741 -0.4365
   12MOL   C151 4573   5.713   0.526   0.363 -0.1725 -0.0316  0.4485
   12MOL   H152 4574   5.822   0.639   0.207 -0.1886 -1.0750 -0.6117
   12MOL   H153 4575   5.974   0.526   0.096 -0.8030  1.8740  0.5294
   12MOL   H154 4576   6.192   0.431   0.083 -1.1100 -0.1733  0.3653
   12MOL   H155 4577   6.253   0.178   0.168 -0.6303  1.4986 -1.9431
   12MOL   H156 4578   6.400   0.259   0.111 -1.0612  1.5370 -0.2789
   12MOL   H157 4579   6.403   0.140   0.240  0.7298 -0.3308 -2.1632
   12MOL   H158 4580   6.199   0.381   0.518 -0.4512 -0.8266  0.5858
   12MOL   H159 4581   5.995   0.521   0.528  1.3626 -1.0822  0.3573
   12MOL   H160 4582   5.628   0.592   0.349 -0.6731 -0.0831  2.9389
   12MOL   H161 4583   5.719   0.505   0.470 -0.5308  0.4271  0.5557
   12MOL   C162 4584   5.680   0.405   0.276  0.2786 -0.2992 -0.2678
   12MOL   C163 4585   5.530   0.375   0.269 -0.3102  0.4163 -0.2610
   12MOL   C164 4586   5.464   0.339   0.393 -0.1789 -0.1432 -0.1921
   12MOL   C165 4587   5.328   0.330   0.387 -0.6647 -0.5310  0.1147
   12MOL   C166 4588   5.251   0.364   0.280  0.4762  0.3895  0.0203
   12MOL   O167 4589   5.116   0.365   0.298  0.3261 -0.2429 -0.0737
   12MOL   C168 4590   5.035   0.464   0.236 -0.5486 -0.1869  1.0247
   12MOL   C169 4591   5.311   0.401   0.165  0.9091 -0.4590 -0.4413
   12MOL   C170 4592   5.453   0.401   0.156  0.6287 -1.0710  0.4527
   12MOL   C171 4593   5.757   0.274   0.305 -0.1412  0.1965 -0.2959
   12MOL   H172 4594   5.708   0.441   0.177  1.9005 -0.9694 -0.0708
   12MOL   H173 4595   5.520   0.315   0.482  0.6232  0.9573 -0.3828
   12MOL   H174 4596   5.277   0.305   0.479  0.6307 -0.3038  0.9060
   12MOL   H175 4597   4.940   0.471   0.288  0.7406  2.1890  3.1981
   12MOL   H176 4598   5.027   0.435   0.131  3.2205  1.7784  0.0890
   12MOL   H177 4599   5.072   0.564   0.257  1.7692 -0.9691  0.8463
   12MOL   H178 4600   5.262   0.427   0.072 -0.7891 -4.6549 -0.8233
   12MOL   H179 4601   5.500   0.429   0.062 -3.1500  2.2024 -0.6172
   12MOL   H180 4602   5.752   0.248   0.410 -2.3009  0.5080 -0.2893
   12MOL   H181 4603   5.863   0.292   0.293 -0.0703  2.6114  3.2990
   12MOL   C182 4604   5.721   0.141   0.237 -0.3410  0.2710 -0.4335
   12MOL   C183 4605   5.800   0.031   0.301  0.1673 -0.4840 -0.4600
   12MOL   C184 4606   5.941   0.029   0.305  0.0067  0.2881  0.0755
   12MOL   C185 4607   6.007   7.962   0.367  0.5169 -0.1363 -0.1472
   12MOL   C186 4608   5.935   7.862   0.437  0.2885 -0.2761 -0.0493
   12MOL   O187 4609   5.997   7.765   0.508 -1.5407  0.4537 -0.3226
   12MOL   C188 4610   6.133   7.795   0.561  0.0395 -0.2367  0.2366
   12MOL   C189 4611   5.791   7.863   0.428 -0.3110 -0.6696 -0.2459
   12MOL   C190 4612   5.731   7.967   0.359 -0.1184  0.8741 -0.1026
   12MOL   C191 4613   5.733   0.156   0.080  0.3741  0.0708 -0.4062
   12MOL   H192 4614   5.614   0.125   0.234 -0.3143  0.1934 -1.0097
   12MOL   H193 4615   5.996   0.115   0.269  1.4885 -0.3114  0.8707
   12MOL   H194 4616   6.115   7.970   0.362  0.3362  1.9609 -1.7688
   12MOL   H195 4617   6.125   7.870   0.640  1.8012  1.2324 -0.9563
   12MOL   H196 4618   6.205   7.830   0.487  0.6496 -1.0898  0.4122
   12MOL   H197 4619   6.167   7.703   0.609  0.3818 -0.5555 -0.6228
   12MOL   H198 4620   5.732   7.782   0.469  3.0328 -2.4100  1.2897
   12MOL   H199 4621   5.625   7.967   0.337 -0.1154 -2.8586 -0.4170
   12MOL   H200 4622   5.716   0.255   0.039  0.5335 -0.0067 -0.6601
   12MOL   H201 4623   5.839   0.149   0.060  0.6613  3.4006 -0.2974
   12MOL   C202 4624   5.653   0.055   8.031 -0.3046  0.0292 -1.1706
   12MOL   C203 4625   5.664   7.949   0.040  0.3239  0.1747  0.2320
   12MOL   C204 4626   5.555   7.890   0.108 -0.1400 -0.6683 -0.3379
   12MOL   C205 4627   5.568   7.760   0.164 -0.4353  0.4554 -0.2228
   12MOL   C206 4628   5.691   7.689   0.148 -0.1418  0.0823 -0.3425
   12MOL   O207 4629   5.706   7.555   0.202  0.0866  0.3857 -0.0347
   12MOL   C208 4630   5.636   7.519   0.320  0.0904  0.5783 -0.3495
   12MOL   C209 4631   5.802   7.739   0.069 -0.0699  0.4231 -0.2507
   12MOL   C210 4632   5.785   7.872   0.023  0.4017 -0.2678  0.3669
   12MOL   C211 4633   5.690   0.058   7.878 -0.4664  0.0855 -0.7089
   12MOL   H212 4634   5.548   0.081   8.022 -1.2102 -2.8869  0.5618
   12MOL   H213 4635   5.468   7.954   0.109 -0.9959 -1.8203  0.9131
   12MOL   H214 4636   5.493   7.708   0.221  0.4522 -2.0788 -1.3033
   12MOL   H215 4637   5.673   7.422   0.352 -1.3505 -0.2972 -1.2889
   12MOL   H216 4638   5.659   7.596   0.394  2.0829  1.6577 -2.0371
   12MOL   H217 4639   5.527   7.523   0.314  0.1410  1.7089 -0.7322
   12MOL   H218 4640   5.894   7.688   0.045  0.2402  0.7056  0.3262
   12MOL   H219 4641   5.867   7.907   8.003  1.2741 -3.1118 -0.1447
   12MOL   H220 4642   5.798   0.053   7.865 -0.7650 -2.2837 -2.7066
   12MOL   H221 4643   5.643   0.151   7.846  1.5888  0.9580 -1.2638
   12MOL   C222 4644   5.629   7.985   7.790 -0.0967  0.2289 -0.2559
   12MOL   C223 4645   5.480   7.965   7.812  0.6385  0.0166  0.2691
   12MOL   C224 4646   5.428   7.839   7.864 -0.2402  0.3312  0.6897
   12MOL   C225 4647   5.295   7.829   7.915  0.5378  0.2690 -0.1937
   12MOL   C226 4648   5.206   7.936   7.886  0.6491  1.2515  0.6266
   12MOL   O227 4649   5.079   7.916   7.922 -0.2013  0.4878  0.0336
   12MOL   C228 4650   4.978   8.011   7.890 -0.6387 -0.5884 -0.5775
   12MOL   C229 4651   5.250   0.011   7.813 -0.4102  0.1291 -0.0435
   12MOL   C230 4652   5.385   0.025   7.787  0.3341 -0.4545 -0.5348
   12MOL   C231 4653   5.645   8.016   7.642  0.2358 -0.0712  0.1351
   12MOL   H232 4654   5.677   7.892   7.820  1.1402  1.4847  1.7956
   12MOL   H233 4655   5.497   7.757   7.877  0.4735  0.5347 -1.5596
   12MOL   H234 4656   5.272   7.737   7.966  1.4426  0.0760 -0.1135
   12MOL   H235 4657   4.882   7.990   7.935  0.0958 -1.1076  0.7637
   12MOL   H236 4658   5.002   0.069   7.932 -0.8816  0.4027 -2.6634
   12MOL   H237 4659   4.973   8.015   7.781 -1.0170  1.7400 -0.5009
   12MOL   H238 4660   5.186   0.094   7.787 -1.1592 -0.9680 -1.8277
   12MOL   H239 4661   5.412   0.124   7.752  0.5731  0.3194  1.7697
   12MOL   H240 4662   5.583   7.951   7.581  0.1461 -1.0545  1.2512
   12MOL   H241 4663   5.613   0.080   7.634 -0.2462 -0.0635  1.9384
   12MOL   C242 4664   5.792   8.001   7.584 -0.1267  0.4628 -0.8062
   12MOL   C243 4665   5.862   7.868   7.632  1.0380  0.2267  0.3390
   12MOL   C244 4666   5.954   7.863   7.740 -0.3086  0.4451  0.2756
   12MOL   C245 4667   6.012   7.747   7.789  0.3048 -0.1112  0.1151
   12MOL   C246 4668   5.968   7.624   7.736 -0.2586  0.6988  0.0420
   12MOL   O247 4669   6.021   7.502   7.782 -0.0784  0.4795 -0.7409
   12MOL   C248 4670   6.092   7.506   7.904  0.6796 -0.7242  0.3913
   12MOL   C249 4671   5.889   7.624   7.619  0.3585 -0.1914  0.2698
   12MOL   C250 4672   5.837   7.745   7.566  1.1498 -0.3402  0.3918
   12MOL   C251 4673   5.792   8.024   7.426 -0.1412 -0.5912  1.0563
   12MOL   H252 4674   5.845   0.042   7.633  0.1749 -1.8096  2.7331
   12MOL   H253 4675   5.988   7.953   7.790 -0.5503  1.2478 -0.9824
   12MOL   H254 4676   6.088   7.767   7.863  0.3706  1.0268 -0.2555
   12MOL   H255 4677   6.038   7.557   7.983 -0.9060 -1.0574 -0.4587
   12MOL   H256 4678   6.114   7.416   7.962  0.2806  0.4561  2.4059
   12MOL   H257 4679   6.193   7.544   7.888  0.6240 -1.0027 -0.6409
   12MOL   H258 4680   5.872   7.530   7.570  0.4885 -0.0503 -0.0457
   12MOL   H259 4681   5.759   7.736   7.492 -0.1723 -0.9897  1.8378
   12MOL   H260 4682   5.748   0.082   7.410 -1.2193 -0.8358  2.3995
   12MOL   H261 4683   5.725   7.952   7.379  0.9425  0.5050 -2.3236
   12MOL   C262 4684   5.924   7.999   7.349 -1.0124 -0.5330 -0.1410
   12MOL   C263 4685   6.029   0.071   7.373 -0.5771  0.4503  0.6395
   12MOL   C264 4686   6.007   0.200   7.334  0.0563 -0.1674 -0.1835
   12MOL   C265 4687   6.100   0.299   7.358  0.5032 -0.3632  0.4082
   12MOL   C266 4688   6.209   0.277   7.442  0.0972 -0.5838  0.2278
   12MOL   O267 4689   6.293   0.380   7.488 -0.4032 -0.4777  0.3769
   12MOL   C268 4690   6.241   0.512   7.503  0.9322 -0.9418  0.0729
   12MOL   C269 4691   6.220   0.142   7.495  1.2966  0.7129  0.3514
   12MOL   C270 4692   6.134   0.037   7.455 -0.2508  0.4589  0.1137
   12MOL   C271 4693   5.882   7.989   7.195 -0.1780 -0.2357  0.1331
   12MOL   H272 4694   5.959   7.899   7.372 -0.2828  0.2318  2.2047
   12MOL   H273 4695   5.914   0.226   7.286  0.1992  0.8377  0.0670
   12MOL   H274 4696   6.069   0.395   7.321  0.6897  0.1023  1.4608
   12MOL   H275 4697   6.177   0.541   7.419  2.0568  2.1072  0.1948
   12MOL   H276 4698   6.323   0.583   7.513  0.0005  0.1378  0.1559
   12MOL   H277 4699   6.184   0.505   7.596 -1.0176 -3.4282 -1.2309
   12MOL   H278 4700   6.297   0.122   7.568  0.1756 -2.4621  0.7225
   12MOL   H279 4701   6.162   7.980   7.495 -0.4783  0.6617  0.7798
   12MOL   H280 4702   5.803   7.914   7.189 -1.5223  0.8666  3.0273
   12MOL   H281 4703   5.838   0.042   7.158 -0.0290 -0.6478 -1.1196
   12MOL   C282 4704   5.998   7.954   7.096 -0.3475  0.3761 -0.0983
   12MOL   C283 4705   6.100   7.847   7.145 -0.8655  0.3359  0.7995
   12MOL   C284 4706   6.233   7.883   7.175  0.1585 -0.8222  0.3477
   12MOL   C285 4707   6.329   7.783   7.200  0.2588 -0.1918 -0.4849
   12MOL   C286 4708   6.294   7.645   7.191 -0.0683 -0.4479 -0.3536
   12MOL   O287 4709   6.378   7.539   7.228  0.4389 -0.4278  0.8742
   12MOL   C288 4710   6.506   7.572   7.250 -0.9076 -1.1276  0.5391
   12MOL   C289 4711   6.159   7.608   7.171 -0.0999 -0.0676  0.2231
   12MOL   C290 4712   6.064   7.709   7.141 -0.6852  0.1588 -0.5243
   12MOL   C291 4713   6.065   0.036   7.032 -0.4070 -0.5832  0.2027
   12MOL   H292 4714   5.946   7.905   7.013 -0.6814 -0.5873  0.6768
   12MOL   H293 4715   6.276   7.982   7.171  1.4878 -1.3897  0.1552
   12MOL   H294 4716   6.432   7.812   7.213  0.5339  0.0568 -2.9750
   12MOL   H295 4717   6.550   7.625   7.165 -0.2540 -2.7474 -0.1535
   12MOL   H296 4718   6.524   7.627   7.342  0.0080 -0.4132 -0.0494
   12MOL   H297 4719   6.567   7.482   7.254  0.7159  0.0032  1.8026
   12MOL   H298 4720   6.122   7.507   7.178 -1.5460  0.4256 -0.2175
   12MOL   H299 4721   5.958   7.691   7.133 -0.8369  0.3203  1.0732
   12MOL   H300 4722   5.981   0.102   7.009 -0.0326 -1.1188 -2.8849
   12MOL   H301 4723   6.120   0.088   7.111  1.1272 -1.6580 -0.1319
   12MOL   C302 4724   6.157   0.024   6.904 -0.6389 -0.4660 -0.1559
   12MOL   C303 4725   6.086   7.975   6.796  0.8098 -0.2476 -0.3371
   12MOL   C304 4726   5.981   8.032   6.721  1.0625 -0.2042  0.3820
   12MOL   C305 4727   5.926   7.961   6.611 -0.0314  0.5588 -0.1713
   12MOL   C306 4728   5.970   7.830   6.582 -0.1809 -0.0150  0.0994
   12MOL   O307 4729   5.931   7.758   6.475  0.6125  0.2784  0.3851
   12MOL   C308 4730   5.831   7.814   6.389 -0.2600 -0.6919  0.0525
   12MOL   C309 4731   6.064   7.765   6.667 -0.0602  0.4240  0.9299
   12MOL   C310 4732   6.122   7.839   6.771  0.4043 -0.4632  0.8579
   12MOL   C311 4733   6.201   0.173   6.862 -0.3569 -0.6183 -0.5454
   12MOL   H312 4734   6.252   8.022   6.937 -1.1318 -2.3034 -1.0092
   12MOL   H313 4735   5.951   0.095   6.740  0.1463 -0.1225 -1.4291
   12MOL   H314 4736   5.858   8.010   6.544  0.5066  1.8884  0.2534
   12MOL   H315 4737   5.859   7.904   6.334  2.1573 -0.5090  1.5371
   12MOL   H316 4738   5.745   7.830   6.454  0.9079  1.9135  1.0273
   12MOL   H317 4739   5.812   7.739   6.312 -0.9725 -0.3247 -0.1335
   12MOL   H318 4740   6.085   7.661   6.646  0.2775  0.3582  1.5651
   12MOL   H319 4741   6.196   7.788   6.831  1.1844 -0.0904  0.2072
   12MOL   H320 4742   6.270   0.224   6.929 -2.0016  1.4766 -0.4218
   12MOL   H321 4743   6.106   0.226   6.859 -0.0822 -0.1812 -2.1534
   12MOL   C322 4744   6.256   0.181   6.713  0.3030 -0.2752 -0.2253
   12MOL   C323 4745   6.395   0.129   6.721  0.3598 -0.0800 -0.7398
   12MOL   C324 4746   6.494   0.212   6.770  0.3871  0.2698 -0.0093
   12MOL   C325 4747   6.630   0.161   6.758  0.2188  0.1695 -0.4619
   12MOL   C326 4748   6.657   0.031   6.705  0.1882  0.0026  0.3150
   12MOL   O327 4749   6.783   8.020   6.689 -0.3436 -0.5845  0.7533
   12MOL   C328 4750   6.893   0.044   6.763 -0.0762 -0.5986  0.3202
   12MOL   C329 4751   6.546   7.988   6.672 -0.0126 -0.1440  0.0042
   12MOL   C330 4752   6.419   8.038   6.674 -0.2373  0.1199 -0.5647
   12MOL   C331 4753   6.240   0.322   6.644  0.0763  0.2649  0.3428
   12MOL   H332 4754   6.198   0.113   6.651  2.4390 -2.7232  0.3840
   12MOL   H333 4755   6.472   0.311   6.804  0.0433  0.9794 -2.2058
   12MOL   H334 4756   6.711   0.224   6.790 -0.9174  1.7147 -0.5550
   12MOL   H335 4757   6.984   8.025   6.758  0.9422  1.0252 -0.7245
   12MOL   H336 4758   6.859   0.042   6.867  1.6395 -2.9663  0.8537
   12MOL   H337 4759   6.907   0.151   6.745  0.5729 -0.3595  2.1123
   12MOL   H338 4760   6.571   7.887   6.642  1.2022 -0.7290  2.8185
   12MOL   H339 4761   6.339   7.980   6.629  0.1117 -0.2334 -0.7334
   12MOL   H340 4762   6.284   0.398   6.708  0.4890  0.0124  0.3573
   12MOL   H341 4763   6.313   0.313   6.563  1.0108 -0.7119  1.2817
   12MOL   C342 4764   6.097   0.369   6.599 -0.7101  0.5597  0.3633
   12MOL   C343 4765   6.078   0.325   6.456 -0.4704 -0.8676 -0.7541
   12MOL   C344 4766   5.970   0.246   6.423 -0.8336 -0.8716 -0.7448
   12MOL   C345 4767   5.950   0.203   6.287  0.0384 -0.1215 -0.6179
   12MOL   C346 4768   6.038   0.236   6.180 -0.9202  0.7809  0.4468
   12MOL   O347 4769   6.034   0.184   6.048 -0.3216 -0.3159  0.1371
   12MOL   C348 4770   5.967   0.058   6.037 -0.3302  0.1693 -0.2230
   12MOL   C349 4771   6.141   0.328   6.215  0.7361 -0.6346 -0.0161
   12MOL   C350 4772   6.161   0.381   6.347  0.1416 -0.6942 -0.1318
   12MOL   C351 4773   6.067   0.521   6.618  0.1886  0.3784 -0.1556
   12MOL   H352 4774   6.033   0.310   6.665 -0.0940 -0.1241  0.3673
   12MOL   H353 4775   5.906   0.215   6.504  0.1219 -1.4939 -0.2082
   12MOL   H354 4776   5.861   0.150   6.257  0.0910 -1.5573  1.6129
   12MOL   H355 4777   5.981   0.018   5.937  0.1474  1.8084 -0.8304
   12MOL   H356 4778   5.993   8.017   6.105  1.3484  0.0835 -0.9692
   12MOL   H357 4779   5.861   0.071   6.062 -0.1458 -1.9927  1.8509
   12MOL   H358 4780   6.218   0.337   6.139 -0.3251  0.3318 -1.0030
   12MOL   H359 4781   6.243   0.447   6.371 -0.3933 -0.1641  0.2420
   12MOL   H360 4782   6.106   0.557   6.713  2.1935 -0.4954 -0.6172
   12MOL   H361 4783   6.109   0.585   6.541  1.4852  0.9005  0.9732
   12MOL   C362 4784   5.922   0.564   6.619  0.4481  0.0329  0.2531
   12MOL   C363 4785   5.830   0.466   6.701  0.2311 -0.3754  0.0672
   12MOL   C364 4786   5.748   0.375   6.637  0.4317  0.6883  0.6151
   12MOL   C365 4787   5.659   0.294   6.711 -0.5021 -0.8596  0.0907
   12MOL   C366 4788   5.654   0.308   6.849  0.2115  0.0554  0.4396
   12MOL   O367 4789   5.554   0.237   6.918 -0.4648 -0.0088 -0.1419
   12MOL   C368 4790   5.526   0.273   7.049  0.0979 -0.1649  0.6721
   12MOL   C369 4791   5.738   0.397   6.915 -0.2317 -0.1216  0.2732
   12MOL   C370 4792   5.823   0.478   6.836  0.4114  0.0642  0.4827
   12MOL   C371 4793   5.863   0.597   6.472  0.3660 -0.1543  0.3176
   12MOL   H372 4794   5.917   0.657   6.675 -1.5479 -0.5019  0.9958
   12MOL   H373 4795   5.747   0.377   6.529  1.0803 -0.3561  0.5880
   12MOL   H374 4796   5.581   0.248   6.653 -0.5281 -0.7924  0.0733
   12MOL   H375 4797   5.536   0.377   7.080  1.7269 -0.4947  1.3065
   12MOL   H376 4798   5.428   0.233   7.070  0.4468 -1.8804 -0.8611
   12MOL   H377 4799   5.585   0.209   7.114  0.5363 -0.2707  0.1764
   12MOL   H378 4800   5.736   0.399   7.022  1.5105 -0.8623  0.3406
   12MOL   H379 4801   5.891   0.546   6.886  0.5623 -0.2981  0.7669
   12MOL   H380 4802   5.873   0.508   6.410  0.4647  1.3185 -1.8354
   12MOL   H381 4803   5.757   0.614   6.487  0.9964  3.3677  1.1942
   12MOL   C382 4804   5.919   0.712   6.392 -0.0168  0.4163 -0.5568
   12MOL   C383 4805   5.899   0.837   6.476  0.1045 -0.6508  0.7870
   12MOL   C384 4806   6.011   0.931   6.489  0.0321 -0.1012 -0.0585
   12MOL   C385 4807   5.994   1.056   6.556  0.4646  0.0971  0.2098
   12MOL   C386 4808   5.867   1.085   6.616 -0.4564 -0.7107  0.1190
   12MOL   O387 4809   5.837   1.208   6.671  0.0431  0.1784  0.0678
   12MOL   C388 4810   5.939   1.308   6.690 -0.1328  0.2492 -0.3439
   12MOL   C389 4811   5.759   0.993   6.607 -0.1922  0.0596 -0.1855
   12MOL   C390 4812   5.775   0.875   6.537 -0.3091 -0.5716 -0.2266
   12MOL   C391 4813   5.857   0.738   6.249  0.0552 -0.0551 -0.4700
   12MOL   H392 4814   6.024   0.688   6.373 -0.0428 -0.1296 -0.0166
   12MOL   H393 4815   6.109   0.906   6.452  0.0238 -1.4875  0.8506
   12MOL   H394 4816   6.080   1.121   6.554  1.6420 -1.4120  0.6494
   12MOL   H395 4817   5.895   1.388   6.749  1.5606  0.2396  0.9852
   12MOL   H396 4818   5.979   1.350   6.597  0.7058  0.8411  0.2735
   12MOL   H397 4819   6.011   1.260   6.756 -0.0265 -0.7801 -1.1998
   12MOL   H398 4820   5.664   1.021   6.649  1.3193  0.1868  3.3861
   12MOL   H399 4821   5.690   0.808   6.542  1.4448 -2.6837  3.9070
   12MOL   H400 4822   5.860   0.644   6.194 -1.6913 -0.3060 -0.1680
   12MOL   H401 4823   5.913   0.820   6.205  1.6254 -1.0190 -0.3152
   12MOL   H402 4824   5.754   0.767   6.270  0.4728  0.5576  0.7891
   13MOL     C1 4825   5.501   2.655   3.946  0.5167 -0.7802  0.1846
   13MOL     C2 4826   5.647   2.649   3.911  0.0711  0.0459 -0.2856
   13MOL     C3 4827   5.749   2.710   3.985 -0.0123  0.1619 -0.1613
   13MOL     C4 4828   5.884   2.692   3.940 -0.3244 -0.4307  0.1232
   13MOL     C5 4829   5.916   2.622   3.825  0.1535  0.9273  0.4870
   13MOL     O6 4830   6.044   2.633   3.776  0.0930 -0.3630  0.7293
   13MOL     C7 4831   6.056   2.607   3.631 -0.1697  0.1855  0.2154
   13MOL     C8 4832   5.811   2.554   3.755  0.8698 -1.3544 -0.1855
   13MOL     C9 4833   5.677   2.580   3.793 -0.6956 -0.5657  0.4771
   13MOL    C10 4834   5.479   2.609   4.086 -0.0282  0.0486 -0.3949
   13MOL    H11 4835   5.437   2.602   3.876 -0.1546  0.7263 -0.3764
   13MOL    H12 4836   5.723   2.770   4.071 -0.2096  3.1401 -2.2141
   13MOL    H13 4837   5.948   2.758   3.998 -0.4008 -0.0921 -0.1762
   13MOL    H14 4838   5.980   2.664   3.578 -0.0457 -0.7508 -0.9925
   13MOL    H15 4839   6.161   2.636   3.618  0.2195 -1.0016  0.6691
   13MOL    H16 4840   6.032   2.505   3.603  0.2901 -0.2214  1.2824
   13MOL    H17 4841   5.820   2.496   3.664 -2.5125 -0.1811 -1.3684
   13MOL    H18 4842   5.592   2.535   3.744 -2.1291  2.1477  0.4079
   13MOL    H19 4843   5.452   2.505   4.069 -1.8470  0.8414 -2.6127
   13MOL    H20 4844   5.571   2.607   4.145  0.3703  0.0848 -1.0099
   13MOL    H21 4845   5.484   2.763   3.939 -1.3296 -1.0996 -0.4807
   13MOL    C22 4846   5.358   2.679   4.157 -1.0305 -1.1462 -0.2803
   13MOL    C23 4847   5.268   2.583   4.234  0.7410  0.1032  0.1149
   13MOL    C24 4848   5.127   2.597   4.229 -0.9324  0.0946 -0.8541
   13MOL    C25 4849   5.045   2.515   4.309 -0.0785 -0.1947  0.2837
   13MOL    C26 4850   5.102   2.420   4.392 -0.7397  0.7420  0.5635
   13MOL    O27 4851   5.033   2.341   4.470 -0.0347 -0.1581 -0.2905
   13MOL    C28 4852   4.959   2.406   4.568  0.2435  1.0100 -0.4338
   13MOL    C29 4853   5.240   2.395   4.387  0.2266 -0.1124  0.0215
   13MOL    C30 4854   5.323   2.489   4.320  0.1282 -0.4757  0.2112
   13MOL    C31 4855   5.417   2.783   4.259 -0.6888 -0.2632 -0.4246
   13MOL    H32 4856   5.291   2.731   4.088 -3.4528 -0.5060  2.4663
   13MOL    H33 4857   5.075   2.656   4.155 -2.3620  0.3256  0.3023
   13MOL    H34 4858   4.938   2.526   4.305 -0.0192  0.3092  0.0604
   13MOL    H35 4859   4.920   2.332   4.638 -2.1332  3.6639  1.1318
   13MOL    H36 4860   4.876   2.466   4.531  1.1245  2.6176  0.1535
   13MOL    H37 4861   5.024   2.475   4.621  1.6689  1.5255 -2.7701
   13MOL    H38 4862   5.284   2.312   4.440  1.0548  1.4680  1.8970
   13MOL    H39 4863   5.429   2.478   4.334  0.1959 -1.3628 -0.9456
   13MOL    H40 4864   5.476   2.734   4.336  0.3858  1.1836 -0.3158
   13MOL    H41 4865   5.486   2.849   4.206  0.2198 -0.4468  0.5243
   13MOL    C42 4866   5.316   2.874   4.327  0.4623  0.3140 -0.1868
   13MOL    C43 4867   5.219   2.948   4.234  0.5219  0.2306  0.3762
   13MOL    C44 4868   5.268   3.028   4.127 -0.0855  0.3410 -0.2658
   13MOL    C45 4869   5.179   3.100   4.042  0.1909  0.7030  0.2173
   13MOL    C46 4870   5.040   3.094   4.062 -0.8519  0.9456 -0.3929
   13MOL    O47 4871   4.942   3.165   3.995  0.1945  0.2082 -0.2107
   13MOL    C48 4872   4.989   3.218   3.874 -0.1606 -0.0600  0.4107
   13MOL    C49 4873   4.993   3.005   4.159 -0.6028  0.3766 -0.0718
   13MOL    C50 4874   5.079   2.929   4.241 -0.2777  0.3708  0.5055
   13MOL    C51 4875   5.403   2.973   4.411 -0.0731  0.5290  0.6407
   13MOL    H52 4876   5.260   2.812   4.397 -0.2871  1.4736  0.2423
   13MOL    H53 4877   5.376   3.026   4.117 -0.1854 -1.8161 -1.2905
   13MOL    H54 4878   5.219   3.165   3.966 -1.1566  0.6656 -0.5502
   13MOL    H55 4879   5.057   3.301   3.893  0.6991 -0.4936 -0.7287
   13MOL    H56 4880   5.036   3.143   3.810  0.7779  0.3672  0.5934
   13MOL    H57 4881   4.898   3.246   3.822  0.0741 -2.8406 -1.6046
   13MOL    H58 4882   4.886   2.994   4.167 -0.6939  0.8171 -0.6039
   13MOL    H59 4883   5.040   2.875   4.326 -2.3333  0.9369 -0.0522
   13MOL    H60 4884   5.459   3.036   4.342 -0.3495  1.0837  0.9155
   13MOL    H61 4885   5.484   2.924   4.466  1.6533  1.2235 -1.2009
   13MOL    C62 4886   5.317   3.051   4.505  0.5655  0.3144 -0.2603
   13MOL    C63 4887   5.384   3.187   4.533 -0.4062 -0.6468  0.2754
   13MOL    C64 4888   5.501   3.212   4.616 -0.4898  1.0658 -0.2803
   13MOL    C65 4889   5.538   3.346   4.640  0.0775 -0.5736  0.1993
   13MOL    C66 4890   5.480   3.458   4.574  0.1380  0.9199 -0.0700
   13MOL    O67 4891   5.534   3.579   4.600  0.2458 -0.0579 -0.0084
   13MOL    C68 4892   5.481   3.685   4.523 -0.4604  0.3225  0.0771
   13MOL    C69 4893   5.377   3.424   4.479 -0.2206  0.1561  0.3690
   13MOL    C70 4894   5.332   3.294   4.460 -0.1392 -0.0981  0.1957
   13MOL    C71 4895   5.278   2.982   4.645  1.3203  0.3792 -0.0275
   13MOL    H72 4896   5.219   3.066   4.461 -0.9317 -0.4530  2.7255
   13MOL    H73 4897   5.548   3.135   4.677 -2.0561  0.9678  0.8511
   13MOL    H74 4898   5.624   3.362   4.704  0.4652  1.3187 -0.7498
   13MOL    H75 4899   5.537   3.772   4.556  0.6464 -0.3692  0.0405
   13MOL    H76 4900   5.381   3.713   4.555  0.0704  0.1798  1.9151
   13MOL    H77 4901   5.498   3.676   4.416  2.8503 -1.1178  0.6569
   13MOL    H78 4902   5.325   3.493   4.415 -0.9461 -1.7150 -1.0800
   13MOL    H79 4903   5.262   3.281   4.378 -1.8615 -0.8489  1.7357
   13MOL    H80 4904   5.235   2.883   4.628  1.4027  0.1380  1.1449
   13MOL    H81 4905   5.371   2.962   4.698  0.2481 -2.0029  1.0356
   13MOL    C82 4906   5.180   3.068   4.735  0.0743 -0.7760 -0.0013
   13MOL    C83 4907   5.067   3.140   4.655 -0.2872 -0.3999  1.2194
   13MOL    C84 4908   5.063   3.284   4.651  0.0194  1.0187 -0.1036
   13MOL    C85 4909   4.974   3.351   4.564  0.2108  0.0364  0.9311
   13MOL    C86 4910   4.880   3.279   4.489 -0.3655  0.5413  0.1008
   13MOL    O87 4911   4.810   3.351   4.403  1.1862  0.0111 -0.0245
   13MOL    C88 4912   4.719   3.287   4.315 -0.0788  0.1954  0.0656
   13MOL    C89 4913   4.875   3.136   4.499 -0.1034  0.2081  0.0095
   13MOL    C90 4914   4.968   3.071   4.584 -0.0023  0.6204 -0.6199
   13MOL    C91 4915   5.124   2.974   4.849 -0.7583 -0.1867  0.1235
   13MOL    H92 4916   5.240   3.145   4.783 -1.0275 -0.1537  0.3873
   13MOL    H93 4917   5.138   3.339   4.707  1.6713 -1.0466 -0.2469
   13MOL    H94 4918   4.984   3.457   4.544  4.2706 -0.4798 -0.2588
   13MOL    H95 4919   4.688   3.368   4.250  1.9331  1.3682  0.5286
   13MOL    H96 4920   4.640   3.227   4.360  2.1120 -2.1370  0.9527
   13MOL    H97 4921   4.769   3.215   4.250 -0.0390 -1.0900  1.4875
   13MOL    H98 4922   4.812   3.079   4.431  0.9581 -1.4593  0.3882
   13MOL    H99 4923   4.965   2.963   4.576  1.8449  0.5557 -0.7763
   13MOL   H100 4924   5.040   2.921   4.804 -0.8828 -1.0798  1.3936
   13MOL   H101 4925   5.205   2.903   4.869 -1.2731 -0.5489  0.9477
   13MOL   C102 4926   5.075   3.040   4.978  0.7284 -0.5886 -0.7776
   13MOL   C103 4927   4.957   2.974   5.038  0.6006 -0.5699 -0.1050
   13MOL   C104 4928   4.967   2.855   5.109  0.1962 -0.0504  0.2004
   13MOL   C105 4929   4.855   2.792   5.165 -0.1381 -0.6792  0.6659
   13MOL   C106 4930   4.734   2.841   5.140 -0.5926 -0.2594  0.0369
   13MOL   O107 4931   4.620   2.783   5.195 -0.0921  0.5322  0.1879
   13MOL   C108 4932   4.638   2.714   5.315  0.3408  0.2950 -0.0536
   13MOL   C109 4933   4.719   2.958   5.060  0.1591 -0.7804 -0.4365
   13MOL   C110 4934   4.829   3.022   5.012 -0.8936 -0.1053  0.2807
   13MOL   C111 4935   5.191   3.069   5.085  0.1373 -0.0506  0.0313
   13MOL   H112 4936   5.042   3.141   4.952  2.5852  0.8710  2.1875
   13MOL   H113 4937   5.061   2.802   5.116 -0.0641 -0.7762 -1.4547
   13MOL   H114 4938   4.869   2.704   5.226 -0.9784 -0.3096  1.4085
   13MOL   H115 4939   4.539   2.680   5.344  0.8422  0.0259  1.4369
   13MOL   H116 4940   4.674   2.616   5.283  0.4527  0.0362  0.8316
   13MOL   H117 4941   4.681   2.770   5.398 -0.9838  0.6178  0.4194
   13MOL   H118 4942   4.623   3.002   5.039  0.1607  0.6572  2.2823
   13MOL   H119 4943   4.824   3.115   4.958 -0.8009 -1.0493 -1.3888
   13MOL   H120 4944   5.212   2.979   5.142 -0.3488 -0.0664  0.1878
   13MOL   H121 4945   5.290   3.080   5.041  0.6949 -1.2733  0.9557
   13MOL   C122 4946   5.170   3.179   5.193 -0.7120  0.4742  0.2003
   13MOL   C123 4947   5.180   3.307   5.116 -0.0095 -0.1388 -0.1383
   13MOL   C124 4948   5.307   3.346   5.066  0.2304 -0.4663 -0.4771
   13MOL   C125 4949   5.305   3.458   4.984 -0.3366  0.5560 -0.0996
   13MOL   C126 4950   5.193   3.545   4.968  0.7722 -0.3375  0.8486
   13MOL   O127 4951   5.183   3.654   4.886  0.6872  0.4040 -0.0627
   13MOL   C128 4952   5.298   3.730   4.887  0.0100  0.1529  0.7227
   13MOL   C129 4953   5.069   3.503   5.026  0.7870 -0.1344 -0.8980
   13MOL   C130 4954   5.066   3.384   5.099 -0.0479  0.5295 -0.2594
   13MOL   C131 4955   5.261   3.168   5.317  0.3570 -0.4144  0.0206
   13MOL   H132 4956   5.068   3.161   5.227 -0.4457  0.1054  0.8158
   13MOL   H133 4957   5.397   3.286   5.074  1.1068  0.8388 -0.4849
   13MOL   H134 4958   5.397   3.486   4.936 -1.0958  1.1078 -1.2652
   13MOL   H135 4959   5.282   3.826   4.839 -0.1559  0.7278  1.9281
   13MOL   H136 4960   5.332   3.765   4.984 -0.7730 -2.2048  1.8872
   13MOL   H137 4961   5.381   3.679   4.838 -0.0894 -0.7511  1.4750
   13MOL   H138 4962   4.980   3.562   5.011 -0.2787 -1.2281  0.9383
   13MOL   H139 4963   4.970   3.347   5.131  0.8339 -0.8324  0.9411
   13MOL   H140 4964   5.289   3.273   5.331  0.1479 -0.0873 -1.7692
   13MOL   H141 4965   5.355   3.115   5.314  0.6284  0.1095 -1.0041
   13MOL   C142 4966   5.186   3.140   5.454  0.1144  0.3099 -0.6234
   13MOL   C143 4967   5.120   2.999   5.464 -0.1091 -0.1069 -1.0579
   13MOL   C144 4968   4.992   2.989   5.516 -0.5200  0.1900 -0.0695
   13MOL   C145 4969   4.926   2.860   5.525 -0.9567 -0.6628 -0.2384
   13MOL   C146 4970   4.989   2.745   5.479  0.4534  0.5827 -0.0302
   13MOL   O147 4971   4.927   2.623   5.491  0.6087 -0.2044 -0.3807
   13MOL   C148 4972   4.828   2.597   5.595 -0.2716 -0.1135 -0.7029
   13MOL   C149 4973   5.115   2.751   5.424 -0.0100 -0.0428  0.0583
   13MOL   C150 4974   5.182   2.873   5.421  0.2204 -0.4467 -0.2582
   13MOL   C151 4975   5.285   3.163   5.564 -0.1817  0.3003  0.3544
   13MOL   H152 4976   5.104   3.210   5.468 -0.9722 -0.9741 -0.4717
   13MOL   H153 4977   4.937   3.077   5.546 -0.9432  0.0100 -0.3149
   13MOL   H154 4978   4.827   2.865   5.568 -1.1130 -0.9125 -0.5773
   13MOL   H155 4979   4.729   2.642   5.585  0.5612  1.8531 -0.2980
   13MOL   H156 4980   4.811   2.492   5.618  1.7116 -0.2842  0.0843
   13MOL   H157 4981   4.857   2.644   5.689  0.4797 -2.4228  0.2329
   13MOL   H158 4982   5.160   2.666   5.375 -1.3714  0.4085 -2.0497
   13MOL   H159 4983   5.275   2.882   5.367  0.4437  2.7435  0.5605
   13MOL   H160 4984   5.346   3.253   5.560 -0.6577  0.6672  1.1061
   13MOL   H161 4985   5.355   3.083   5.541 -0.9145  0.1365 -1.3678
   13MOL   C162 4986   5.231   3.149   5.707 -0.0446 -0.2010  0.6562
   13MOL   C163 4987   5.137   3.267   5.730 -0.2387  0.8295  0.1966
   13MOL   C164 4988   5.182   3.398   5.739  0.0322 -1.0960 -1.1160
   13MOL   C165 4989   5.096   3.505   5.762  0.0021 -0.3845  0.5694
   13MOL   C166 4990   4.957   3.481   5.783  0.6572 -0.0082 -0.2427
   13MOL   O167 4991   4.871   3.584   5.794  0.2451 -0.0387 -0.6103
   13MOL   C168 4992   4.733   3.557   5.831  0.1434 -0.7796  0.2716
   13MOL   C169 4993   4.920   3.344   5.797 -0.1312  0.7464  0.6603
   13MOL   C170 4994   5.006   3.237   5.764  0.4450 -0.3191  0.3999
   13MOL   C171 4995   5.343   3.157   5.805 -0.8877 -0.6906 -0.1587
   13MOL   H172 4996   5.172   3.059   5.725 -1.6708  0.9140  1.0321
   13MOL   H173 4997   5.285   3.427   5.723  0.1657 -0.0871  1.2784
   13MOL   H174 4998   5.123   3.609   5.763 -0.7333 -0.1510 -1.2011
   13MOL   H175 4999   4.678   3.527   5.742  0.2457 -2.5038  0.7606
   13MOL   H176 5000   4.680   3.644   5.869  1.5695  1.0486 -1.8354
   13MOL   H177 5001   4.725   3.486   5.914 -0.0666 -0.3060  0.6594
   13MOL   H178 5002   4.822   3.310   5.826  0.7426 -2.4547  0.0753
   13MOL   H179 5003   4.970   3.135   5.776  3.4318 -1.4959 -0.1982
   13MOL   H180 5004   5.296   3.179   5.901 -0.7519 -0.8994 -0.0407
   13MOL   H181 5005   5.405   3.242   5.777 -1.6987 -0.0342  0.0190
   13MOL   C182 5006   5.431   3.028   5.812  0.3667 -0.6068  0.2496
   13MOL   C183 5007   5.351   2.899   5.828 -0.3417 -0.3709  0.4336
   13MOL   C184 5008   5.286   2.884   5.952  0.5012 -0.0631 -0.6946
   13MOL   C185 5009   5.193   2.775   5.970 -0.1559 -0.3179 -0.0322
   13MOL   C186 5010   5.172   2.687   5.863  0.2173 -0.0582 -0.2985
   13MOL   O187 5011   5.084   2.585   5.882 -0.5942 -0.4412 -0.5443
   13MOL   C188 5012   5.085   2.505   6.002  0.2431 -0.3823 -0.2931
   13MOL   C189 5013   5.232   2.700   5.737  0.4776  0.1043  0.3159
   13MOL   C190 5014   5.324   2.810   5.719  0.3145  0.3244  0.2985
   13MOL   C191 5015   5.541   3.027   5.916 -1.1089 -0.4626  0.1157
   13MOL   H192 5016   5.483   3.017   5.716 -0.9706  0.4151 -0.6130
   13MOL   H193 5017   5.296   2.955   6.033 -1.2574  3.6496 -3.5519
   13MOL   H194 5018   5.147   2.770   6.068 -0.0686 -0.2900  0.0100
   13MOL   H195 5019   5.023   2.419   5.975 -1.0944  0.8754 -1.2552
   13MOL   H196 5020   5.040   2.558   6.086  2.5656  0.8421  0.2216
   13MOL   H197 5021   5.186   2.475   6.031  0.3356  1.2309  1.1124
   13MOL   H198 5022   5.228   2.616   5.669  2.2829 -0.7454  1.2207
   13MOL   H199 5023   5.371   2.814   5.622 -1.5190 -0.8076 -0.6785
   13MOL   H200 5024   5.492   3.039   6.013 -2.0546  1.1934 -0.5520
   13MOL   H201 5025   5.582   2.926   5.914 -1.4767 -0.6036 -0.3564
   13MOL   C202 5026   5.653   3.131   5.887 -0.3430 -0.0477  0.0124
   13MOL   C203 5027   5.730   3.091   5.762  0.1110 -0.4781  0.1061
   13MOL   C204 5028   5.755   3.193   5.667 -0.1888 -0.6893 -0.2518
   13MOL   C205 5029   5.830   3.160   5.548 -0.1761 -0.1670 -0.7558
   13MOL   C206 5030   5.888   3.028   5.540  0.1581 -0.7519  0.0239
   13MOL   O207 5031   5.962   3.013   5.426 -0.3668  0.0278 -0.1153
   13MOL   C208 5032   6.019   2.885   5.394  0.3087  0.1850 -0.3350
   13MOL   C209 5033   5.881   2.937   5.643  0.0707 -0.5672 -0.1462
   13MOL   C210 5034   5.799   2.970   5.753  0.0876  0.3524 -0.5604
   13MOL   C211 5035   5.750   3.140   6.003 -0.3871 -0.4283 -0.7486
   13MOL   H212 5036   5.614   3.226   5.852  1.6630  0.3725 -1.1350
   13MOL   H213 5037   5.717   3.294   5.675 -0.8079 -1.0477  1.5773
   13MOL   H214 5038   5.847   3.238   5.475 -0.6977  1.4902  0.8512
   13MOL   H215 5039   6.070   2.899   5.298 -1.1547  2.6538 -0.7933
   13MOL   H216 5040   6.094   2.842   5.461  0.4234  1.5473  0.4431
   13MOL   H217 5041   5.936   2.816   5.384 -2.4527  3.3928 -0.4958
   13MOL   H218 5042   5.932   2.842   5.645  0.8521 -0.1362  0.8859
   13MOL   H219 5043   5.790   2.901   5.835  0.7633  2.1705  1.1020
   13MOL   H220 5044   5.848   3.167   5.964 -1.0482  0.4393 -1.7990
   13MOL   H221 5045   5.766   3.035   6.030  3.2135  0.0689 -0.7348
   13MOL   C222 5046   5.714   3.237   6.115 -0.1782 -0.3583  0.0553
   13MOL   C223 5047   5.610   3.171   6.211 -0.4746 -0.2915  0.2891
   13MOL   C224 5048   5.643   3.057   6.293 -0.4314  0.5747 -0.6741
   13MOL   C225 5049   5.545   3.012   6.389 -0.2673  0.3268 -0.9430
   13MOL   C226 5050   5.419   3.071   6.400 -0.2403 -0.5963  0.2890
   13MOL   O227 5051   5.341   3.018   6.498 -0.6916  0.7631  0.2983
   13MOL   C228 5052   5.200   3.031   6.492  0.3586  0.4445  0.1049
   13MOL   C229 5053   5.385   3.176   6.313  0.1873  0.0894  0.5148
   13MOL   C230 5054   5.481   3.231   6.223  0.5042 -0.2289  0.3978
   13MOL   C231 5055   5.827   3.290   6.200  0.5167 -0.0960 -0.4176
   13MOL   H232 5056   5.657   3.319   6.072 -1.3744 -3.9038 -5.8331
   13MOL   H233 5057   5.746   3.025   6.287  0.3083  3.1684 -2.2178
   13MOL   H234 5058   5.578   2.936   6.457  0.6394  1.9994  0.5090
   13MOL   H235 5059   5.159   2.963   6.417  0.1947 -1.1818  1.6374
   13MOL   H236 5060   5.159   3.003   6.589 -1.0044  0.7294 -0.3795
   13MOL   H237 5061   5.168   3.134   6.478 -1.4204  0.1910  2.0956
   13MOL   H238 5062   5.296   3.237   6.321  1.7782  2.9464 -2.0130
   13MOL   H239 5063   5.453   3.301   6.146  0.8406 -1.0154 -0.4588
   13MOL   H240 5064   5.767   3.346   6.271  1.9973  1.4845 -0.3646
   13MOL   H241 5065   5.881   3.210   6.252  0.8674  0.8353  0.6744
   13MOL   C242 5066   5.929   3.383   6.130 -0.0295  0.1116 -0.5263
   13MOL   C243 5067   5.851   3.477   6.039 -0.7405 -0.0453 -0.5195
   13MOL   C244 5068   5.868   3.474   5.896  0.1454 -0.0842 -0.1928
   13MOL   C245 5069   5.790   3.566   5.817  0.5780  0.6796 -0.2217
   13MOL   C246 5070   5.700   3.651   5.891  0.0305  0.1547  0.5825
   13MOL   O247 5071   5.636   3.744   5.812 -0.3557  0.5841  0.2090
   13MOL   C248 5072   5.561   3.845   5.874 -0.0453  0.3166 -0.1402
   13MOL   C249 5073   5.696   3.658   6.029  0.4121 -0.5228  0.0144
   13MOL   C250 5074   5.773   3.568   6.098 -0.5755 -0.0561 -0.1259
   13MOL   C251 5075   6.023   3.450   6.230  0.2808  0.4229  0.3822
   13MOL   H252 5076   5.991   3.317   6.070  1.0118 -1.5150  2.2145
   13MOL   H253 5077   5.923   3.399   5.840 -1.6046 -1.5487  0.0136
   13MOL   H254 5078   5.797   3.559   5.709  1.4610 -3.4236  0.0440
   13MOL   H255 5079   5.528   3.914   5.796  3.2731  1.4290 -0.6492
   13MOL   H256 5080   5.481   3.801   5.933  1.5115 -1.5026  0.6748
   13MOL   H257 5081   5.618   3.905   5.945  0.6577  0.0813 -0.5041
   13MOL   H258 5082   5.639   3.729   6.086 -0.5848 -0.0595 -1.5041
   13MOL   H259 5083   5.767   3.579   6.205  2.0697  2.3732 -0.1708
   13MOL   H260 5084   6.090   3.381   6.281  2.6449  1.1718 -1.6484
   13MOL   H261 5085   5.961   3.490   6.310  0.8266  2.6445 -0.2616
   13MOL   C262 5086   6.102   3.567   6.167 -0.1544  0.0962  0.8852
   13MOL   C263 5087   6.206   3.517   6.068  0.1826  0.4168  0.5897
   13MOL   C264 5088   6.300   3.418   6.102  0.4551  0.6136  0.3822
   13MOL   C265 5089   6.393   3.380   6.002 -0.1966  0.4506 -0.8928
   13MOL   C266 5090   6.393   3.435   5.873 -0.2800 -0.0337 -1.0917
   13MOL   O267 5091   6.496   3.390   5.798 -0.4863 -0.3235  0.2556
   13MOL   C268 5092   6.515   3.446   5.669 -0.3554  0.2669  0.1956
   13MOL   C269 5093   6.292   3.526   5.839  0.0198  0.0110 -0.4027
   13MOL   C270 5094   6.203   3.568   5.935  0.6926  0.2080  0.7932
   13MOL   C271 5095   6.168   3.651   6.275  0.2763  0.4437  0.3612
   13MOL   H272 5096   6.035   3.637   6.115 -1.3076 -0.0866  2.1062
   13MOL   H273 5097   6.303   3.380   6.204  1.1371  3.2445  1.3767
   13MOL   H274 5098   6.473   3.312   6.027 -1.5875 -0.6550  0.7076
   13MOL   H275 5099   6.450   3.390   5.602  0.5456  1.4411 -1.7211
   13MOL   H276 5100   6.618   3.420   5.642 -0.0452  0.6117  1.0462
   13MOL   H277 5101   6.505   3.554   5.675  0.8640  0.2995  2.2661
   13MOL   H278 5102   6.280   3.562   5.738 -0.8309  1.1515  0.0910
   13MOL   H279 5103   6.128   3.637   5.898  0.9152 -0.1010 -0.2523
   13MOL   H280 5104   6.217   3.575   6.335 -1.2431 -0.5894  0.3051
   13MOL   H281 5105   6.241   3.706   6.216  1.4050 -0.1306  1.2081
   13MOL   C282 5106   6.080   3.753   6.356 -0.0338 -0.5243  0.6424
   13MOL   C283 5107   5.979   3.826   6.274  0.2309 -0.5308  0.4761
   13MOL   C284 5108   5.836   3.820   6.299 -0.6109  0.2402  0.2907
   13MOL   C285 5109   5.750   3.916   6.243 -0.0050  0.4367  0.6113
   13MOL   C286 5110   5.789   4.016   6.149 -0.2121 -0.0353 -0.0186
   13MOL   O287 5111   5.708   4.106   6.086  0.1211 -0.7607 -0.6851
   13MOL   C288 5112   5.580   4.136   6.149  0.0678 -0.1845 -0.4299
   13MOL   C289 5113   5.927   4.010   6.109  0.3690  0.8884  0.2302
   13MOL   C290 5114   6.021   3.923   6.174  0.1496  0.1410 -0.2058
   13MOL   C291 5115   6.173   3.834   6.452 -0.4119  0.0614 -0.2001
   13MOL   H292 5116   6.020   3.701   6.431 -0.0351 -1.7934 -0.2378
   13MOL   H293 5117   5.813   3.754   6.381 -1.1287  1.8707  1.4752
   13MOL   H294 5118   5.649   3.916   6.283 -0.8991  0.6386 -1.5569
   13MOL   H295 5119   5.547   4.230   6.107  1.5358  0.4740 -0.1621
   13MOL   H296 5120   5.506   4.063   6.116  0.0885 -1.2244  1.6849
   13MOL   H297 5121   5.591   4.137   6.258  1.7715 -0.3135 -0.5827
   13MOL   H298 5122   5.966   4.076   6.033  3.0961  0.0955  0.8926
   13MOL   H299 5123   6.127   3.936   6.157 -0.1955  0.6584 -2.0680
   13MOL   H300 5124   6.225   3.773   6.526 -1.1663  0.4761  0.6832
   13MOL   H301 5125   6.244   3.873   6.379 -1.2752 -0.2441 -1.2197
   13MOL   C302 5126   6.110   3.961   6.520  0.0097  0.5283  0.3095
   13MOL   C303 5127   6.035   3.925   6.642  0.6402  0.2282  0.2016
   13MOL   C304 5128   5.889   3.932   6.642 -0.2555  0.0283  0.0066
   13MOL   C305 5129   5.819   3.896   6.756 -0.3604 -0.5117  0.6753
   13MOL   C306 5130   5.877   3.851   6.876 -0.0153  0.1447  0.3567
   13MOL   O307 5131   5.809   3.811   6.988  0.3639 -0.0886 -0.4744
   13MOL   C308 5132   5.669   3.784   6.959 -0.2627 -0.1534 -0.1724
   13MOL   C309 5133   6.021   3.857   6.881  0.1278 -0.2094 -0.5708
   13MOL   C310 5134   6.099   3.888   6.763 -0.1880 -0.5803  0.0569
   13MOL   C311 5135   6.209   4.082   6.533 -0.1845  0.3639 -0.8256
   13MOL   H312 5136   6.039   4.003   6.450  0.7048  3.2953  1.2041
   13MOL   H313 5137   5.825   3.960   6.560 -0.2359 -1.8283 -0.6528
   13MOL   H314 5138   5.715   3.918   6.738 -0.2291  1.1789  1.8808
   13MOL   H315 5139   5.618   3.876   6.931 -0.7481  0.1902  1.7364
   13MOL   H316 5140   5.612   3.764   7.050 -1.6734  0.4630 -0.9063
   13MOL   H317 5141   5.650   3.709   6.882 -2.4101  0.5807 -0.4118
   13MOL   H318 5142   6.075   3.840   6.973  0.4788  2.6468 -0.2033
   13MOL   H319 5143   6.207   3.892   6.759 -0.1985  1.2286  1.1935
   13MOL   H320 5144   6.271   4.091   6.445 -0.3637  0.7890 -0.9115
   13MOL   H321 5145   6.281   4.043   6.606 -0.2481  0.4285 -0.7275
   13MOL   C322 5146   6.159   4.226   6.579 -0.1420 -0.4631  0.1245
   13MOL   C323 5147   6.042   4.284   6.497 -0.1092  0.2383  0.6415
   13MOL   C324 5148   6.054   4.289   6.354 -0.1148  0.0022  0.1469
   13MOL   C325 5149   5.952   4.357   6.279 -0.7914 -0.1483 -0.2649
   13MOL   C326 5150   5.847   4.425   6.347  0.3402  0.1673  0.2458
   13MOL   O327 5151   5.754   4.499   6.284 -0.0691 -0.9447 -0.0777
   13MOL   C328 5152   5.741   4.480   6.147 -0.3534  0.1504  0.5684
   13MOL   C329 5153   5.851   4.431   6.489 -0.0609 -0.6261  0.1952
   13MOL   C330 5154   5.939   4.354   6.561  0.1007  0.3509  0.5168
   13MOL   C331 5155   6.276   4.328   6.571  0.3621  0.2380  0.4610
   13MOL   H332 5156   6.112   4.219   6.678 -0.4652 -0.6736 -0.0422
   13MOL   H333 5157   6.135   4.232   6.311 -0.7575  0.8016 -2.1666
   13MOL   H334 5158   5.954   4.357   6.171  1.0101  3.6693 -0.3057
   13MOL   H335 5159   5.645   4.518   6.111 -1.5544 -1.2051  2.3027
   13MOL   H336 5160   5.734   4.375   6.121 -0.5792  0.1175  0.7595
   13MOL   H337 5161   5.818   4.523   6.083 -0.0426  0.4980  1.1768
   13MOL   H338 5162   5.779   4.488   6.547  0.3867 -0.0088  0.1447
   13MOL   H339 5163   5.922   4.352   6.668 -1.3434  1.6288  0.3340
   13MOL   H340 5164   6.350   4.297   6.497 -0.5541  1.4249 -0.9778
   13MOL   H341 5165   6.252   4.428   6.535  1.1463  0.2357 -0.0851
   13MOL   C342 5166   6.344   4.364   6.706  0.3593  0.1305 -0.2815
   13MOL   C343 5167   6.429   4.250   6.755  0.6647  0.4596  0.3530
   13MOL   C344 5168   6.569   4.249   6.735 -0.6896 -0.0609 -0.7506
   13MOL   C345 5169   6.649   4.137   6.767  0.6040  0.0839 -0.4586
   13MOL   C346 5170   6.590   4.025   6.838 -1.3384 -0.4097 -1.1761
   13MOL   O347 5171   6.658   3.910   6.879 -0.7846  0.2481 -0.3196
   13MOL   C348 5172   6.800   3.923   6.872  0.3752 -0.1428 -0.5260
   13MOL   C349 5173   6.450   4.033   6.872 -0.0945  0.5713  0.0573
   13MOL   C350 5174   6.365   4.146   6.836 -0.2088  0.3193 -0.0622
   13MOL   C351 5175   6.258   4.434   6.808 -0.0347 -1.0193 -0.1365
   13MOL   H352 5176   6.420   4.432   6.668  0.6761 -0.4886 -0.7626
   13MOL   H353 5177   6.611   4.328   6.675 -0.5794 -0.2631 -0.9371
   13MOL   H354 5178   6.754   4.143   6.744  0.8669 -1.3240  0.3180
   13MOL   H355 5179   6.845   3.826   6.891  0.2020 -0.4306 -1.5689
   13MOL   H356 5180   6.830   3.958   6.773 -1.1327  2.0717 -0.2542
   13MOL   H357 5181   6.840   3.994   6.944  1.7879  0.1921 -1.5957
   13MOL   H358 5182   6.396   3.957   6.927 -0.8673  0.1641 -1.2437
   13MOL   H359 5183   6.261   4.131   6.858 -0.2429 -0.2531 -0.5738
   13MOL   H360 5184   6.189   4.369   6.862 -2.0344  0.7906 -0.4742
   13MOL   H361 5185   6.336   4.477   6.871 -0.3920  0.9046 -0.9990
   13MOL   C362 5186   6.176   4.557   6.754  0.0638  0.3534 -0.0098
   13MOL   C363 5187   6.244   4.641   6.645  0.5632 -1.0110  0.1223
   13MOL   C364 5188   6.359   4.713   6.682  0.1991  0.3844  0.3669
   13MOL   C365 5189   6.411   4.813   6.601  0.1123 -0.1175 -0.2811
   13MOL   C366 5190   6.356   4.833   6.475  0.3475 -0.0481  0.3836
   13MOL   O367 5191   6.422   4.927   6.400 -0.1961  0.7343 -0.5708
   13MOL   C368 5192   6.361   4.977   6.286  0.0237 -0.2110  0.0832
   13MOL   C369 5193   6.238   4.761   6.436 -0.3399  0.5788 -0.0144
   13MOL   C370 5194   6.185   4.657   6.521 -0.2740  0.3244  0.8677
   13MOL   C371 5195   6.121   4.637   6.864 -0.4178 -0.2636 -0.0030
   13MOL   H372 5196   6.089   4.511   6.707 -0.0865  1.7933 -1.1784
   13MOL   H373 5197   6.398   4.697   6.782 -2.7624  1.5151  1.7608
   13MOL   H374 5198   6.491   4.874   6.641  1.5122 -1.3733 -1.1448
   13MOL   H375 5199   6.353   4.892   6.219  1.2683  1.4143 -2.1982
   13MOL   H376 5200   6.263   5.024   6.301 -0.2609 -0.8450  0.2075
   13MOL   H377 5201   6.431   5.046   6.239 -0.2538 -1.0312 -1.5575
   13MOL   H378 5202   6.184   4.771   6.343 -3.1272  1.3670  1.6337
   13MOL   H379 5203   6.098   4.600   6.494 -0.8211 -0.7177  4.5468
   13MOL   H380 5204   6.084   4.569   6.941  1.1034 -0.4015  0.6465
   13MOL   H381 5205   6.209   4.683   6.909 -0.3187 -0.7355  0.2870
   13MOL   C382 5206   6.034   4.755   6.819  0.2281  0.1610 -0.3169
   13MOL   C383 5207   6.013   4.862   6.935  0.0557  0.5550  0.1399
   13MOL   C384 5208   5.886   4.912   6.966 -0.2306 -0.6663 -0.2749
   13MOL   C385 5209   5.871   5.013   7.065 -0.2416  0.1851 -0.0281
   13MOL   C386 5210   5.977   5.045   7.146 -0.1274  0.3788  0.0918
   13MOL   O387 5211   5.947   5.146   7.244 -0.0939  0.1990 -0.7466
   13MOL   C388 5212   6.044   5.191   7.339  0.4016 -0.2646  0.1730
   13MOL   C389 5213   6.107   4.998   7.119 -0.3079 -0.6364  0.2416
   13MOL   C390 5214   6.129   4.905   7.010  0.3913 -0.4460  0.4978
   13MOL   C391 5215   5.900   4.696   6.768  0.0975  0.4760 -0.0345
   13MOL   H392 5216   6.082   4.807   6.736  2.3096 -1.4117 -0.1114
   13MOL   H393 5217   5.801   4.889   6.904 -2.1378 -3.6907  3.2721
   13MOL   H394 5218   5.778   5.062   7.088 -0.3696  0.8064 -1.8177
   13MOL   H395 5219   5.981   5.251   7.405 -1.5096  0.4535 -2.1949
   13MOL   H396 5220   6.124   5.247   7.291 -0.4887  0.2338 -0.7454
   13MOL   H397 5221   6.088   5.106   7.391 -0.3137 -0.4732  0.4394
   13MOL   H398 5222   6.194   5.025   7.176 -0.7504  0.4807  0.4075
   13MOL   H399 5223   6.231   4.871   6.999  1.1755  1.6566  1.1400
   13MOL   H400 5224   5.838   4.774   6.725 -2.2454 -1.0949  0.4025
   13MOL   H401 5225   5.853   4.634   6.845 -1.1057 -0.3839 -1.4280
   13MOL   H402 5226   5.919   4.623   6.689  0.1120  1.8240 -1.2955
   14MOL     C1 5227   0.631   7.914   0.326  0.1755  0.6324  0.3314
   14MOL     C2 5228   0.524   7.894   0.425  0.1276  1.2584  0.7314
   14MOL     C3 5229   0.491   7.767   0.466  0.2106  0.5173 -0.0135
   14MOL     C4 5230   0.392   7.738   0.561 -0.4512  0.0274  0.0121
   14MOL     C5 5231   0.298   7.838   0.600 -0.6189  0.0807 -0.6099
   14MOL     O6 5232   0.190   7.815   0.680 -0.5872 -0.0601  0.0015
   14MOL     C7 5233   0.133   7.683   0.685 -0.2111 -0.3135 -0.9308
   14MOL     C8 5234   0.323   7.968   0.544  0.4584 -0.6634 -0.0469
   14MOL     C9 5235   0.435   7.991   0.461  0.9454  0.4652  0.6776
   14MOL    C10 5236   0.574   7.940   0.186 -0.0667 -0.2948 -0.3037
   14MOL    H11 5237   0.698   7.828   0.331 -2.7024 -1.7195  0.0535
   14MOL    H12 5238   0.551   7.686   0.427 -0.7894 -0.9469  1.4327
   14MOL    H13 5239   0.370   7.638   0.595 -0.1453 -0.3012 -0.7767
   14MOL    H14 5240   0.207   7.603   0.691 -0.3945 -0.4685 -0.7524
   14MOL    H15 5241   0.063   7.674   0.767 -0.7990 -0.8716 -1.4880
   14MOL    H16 5242   0.080   7.659   0.593  2.4724 -1.6918 -2.1790
   14MOL    H17 5243   0.259   0.009   0.575  0.7155  0.2993 -1.9561
   14MOL    H18 5244   0.455   0.050   0.421  0.0888  0.0592 -0.7932
   14MOL    H19 5245   0.534   0.002   0.183 -0.5056 -0.4074  1.1191
   14MOL    H20 5246   0.650   7.946   0.109 -0.1780  0.6324 -0.3422
   14MOL    H21 5247   0.694   7.997   0.358 -0.8417  0.5639  2.5879
   14MOL    C22 5248   0.465   7.845   0.129  0.1637  0.3914 -0.6658
   14MOL    C23 5249   0.358   7.918   0.057  0.1288  0.6896  0.5599
   14MOL    C24 5250   0.227   7.921   0.104  0.0985 -0.0588  0.7324
   14MOL    C25 5251   0.125   7.990   0.038  0.6389  0.4183 -0.2044
   14MOL    C26 5252   0.152   0.023   7.958 -0.1719 -1.1282  0.0062
   14MOL    O27 5253   0.059   0.100   7.889  0.0617 -0.5926 -0.5157
   14MOL    C28 5254   7.966   0.113   7.933 -0.1710  0.1460 -0.4266
   14MOL    C29 5255   0.287   0.029   7.912  0.1331  0.6021  0.5542
   14MOL    C30 5256   0.383   7.997   7.981  0.5028  0.0825 -0.5935
   14MOL    C31 5257   0.520   7.727   0.050  0.1657  0.0268 -0.6759
   14MOL    H32 5258   0.413   7.809   0.218  1.7396  2.2058  1.0609
   14MOL    H33 5259   0.206   7.868   0.196 -2.6545  3.1613  2.0823
   14MOL    H34 5260   0.026   7.989   0.082  0.5230 -0.7085 -0.4894
   14MOL    H35 5261   7.929   0.162   7.843  0.9438  0.0997 -0.9200
   14MOL    H36 5262   7.951   0.175   8.021  1.3691  0.5991 -0.4682
   14MOL    H37 5263   7.917   0.017   7.948  0.4166  0.1863  1.8985
   14MOL    H38 5264   0.317   0.082   7.823 -1.0394 -1.7545 -1.3085
   14MOL    H39 5265   0.482   7.994   7.938  1.2855  1.6246  1.0558
   14MOL    H40 5266   0.539   7.755   7.986  0.8853 -1.5572 -0.9897
   14MOL    H41 5267   0.609   7.682   0.093 -0.2725 -0.3936 -0.1923
   14MOL    C42 5268   0.404   7.617   0.045 -0.3426  0.3799  0.2389
   14MOL    C43 5269   0.400   7.541   0.175 -0.6550  0.0159 -0.5875
   14MOL    C44 5270   0.287   7.559   0.261  0.5814 -0.5640  0.7811
   14MOL    C45 5271   0.278   7.490   0.381 -0.4639 -0.9268  0.2640
   14MOL    C46 5272   0.385   7.409   0.427 -0.6469 -0.7262 -0.3363
   14MOL    O47 5273   0.361   7.332   0.542 -0.3944  0.2241  0.2148
   14MOL    C48 5274   0.434   7.213   0.560 -0.3928  0.1432 -0.4596
   14MOL    C49 5275   0.497   7.389   0.346  0.0862  0.0436  0.4844
   14MOL    C50 5276   0.508   7.457   0.220  0.0229  0.8269 -0.3626
   14MOL    C51 5277   0.419   7.526   7.967  0.4369 -0.5330 -0.4505
   14MOL    H52 5278   0.308   7.667   0.039  0.4779  2.0674  0.8142
   14MOL    H53 5279   0.196   7.605   0.227  1.4713 -0.4606 -1.5820
   14MOL    H54 5280   0.183   7.493   0.432 -0.7346 -0.4739 -0.2603
   14MOL    H55 5281   0.427   7.134   0.486  0.5354 -1.2612  0.9340
   14MOL    H56 5282   0.540   7.225   0.580 -0.0208 -2.0744 -1.0185
   14MOL    H57 5283   0.387   7.170   0.648 -1.2088 -0.3448 -1.1292
   14MOL    H58 5284   0.578   7.325   0.377 -0.4844 -0.5614  0.7213
   14MOL    H59 5285   0.596   7.451   0.158 -1.6978 -1.0247 -2.7204
   14MOL    H60 5286   0.525   7.504   7.951  0.4898 -1.3070  0.9485
   14MOL    H61 5287   0.396   7.586   7.879 -1.0983 -0.7755 -0.2240
   14MOL    C62 5288   0.343   7.391   7.972  0.1887  0.1030  0.2056
   14MOL    C63 5289   0.396   7.302   7.853  0.4687  0.4578  0.0192
   14MOL    C64 5290   0.392   7.349   7.721 -0.6746  0.4430  0.0329
   14MOL    C65 5291   0.439   7.274   7.603 -0.0907 -0.1570 -0.5520
   14MOL    C66 5292   0.472   7.138   7.630  0.2344  0.5884 -0.4847
   14MOL    O67 5293   0.491   7.049   7.536  0.1134  0.2094  1.0483
   14MOL    C68 5294   0.438   7.073   7.410 -0.1145  0.4543 -0.5705
   14MOL    C69 5295   0.484   7.087   7.766  0.5329 -0.3860 -0.2177
   14MOL    C70 5296   0.451   7.174   7.875  0.1592 -0.2619  0.0971
   14MOL    C71 5297   0.187   7.404   7.986  0.6317  0.2910  0.2159
   14MOL    H72 5298   0.383   7.347   0.024 -1.4239 -0.1939  0.7917
   14MOL    H73 5299   0.364   7.453   7.710  0.2819  0.8599  1.4051
   14MOL    H74 5300   0.440   7.315   7.503  2.4528 -0.0194 -0.5126
   14MOL    H75 5301   0.449   6.985   7.347 -2.2543  1.5365 -2.5207
   14MOL    H76 5302   0.490   7.156   7.362 -1.3267  3.1780  2.6429
   14MOL    H77 5303   0.331   7.093   7.416 -0.1849 -0.1342  0.2847
   14MOL    H78 5304   0.517   6.987   7.792  0.8511 -0.0828  0.5411
   14MOL    H79 5305   0.462   7.135   7.975 -1.0263 -0.7532  0.0422
   14MOL    H80 5306   0.182   7.480   0.025 -0.4563  0.1334  0.3098
   14MOL    H81 5307   0.153   7.464   7.902 -1.2023  0.1259  0.8075
   14MOL    C82 5308   0.110   7.272   7.998  0.0321  0.1961 -0.5703
   14MOL    C83 5309   0.093   7.236   0.104 -0.4081  0.6854  0.1272
   14MOL    C84 5310   0.171   7.136   0.161 -0.7460 -0.2421  0.6721
   14MOL    C85 5311   0.153   7.111   0.298 -0.6785  0.0713  0.2147
   14MOL    C86 5312   0.060   7.181   0.377  0.5406 -0.1421  0.8038
   14MOL    O87 5313   0.054   7.133   0.506 -0.5419  0.0706  0.1265
   14MOL    C88 5314   7.995   7.186   0.595 -0.3818 -0.1268 -0.4982
   14MOL    C89 5315   8.020   7.278   0.314  0.1981  0.6372 -0.8162
   14MOL    C90 5316   0.001   7.311   0.182 -0.3132 -0.2945  0.1529
   14MOL    C91 5317   8.009   7.266   7.919 -0.5843 -0.6353  0.5295
   14MOL    H92 5318   0.173   7.201   7.946  1.1386  1.9650 -1.7102
   14MOL    H93 5319   0.253   7.099   0.102  0.0164  2.4656 -0.0082
   14MOL    H94 5320   0.216   7.035   0.342 -0.0112  0.0949 -0.6905
   14MOL    H95 5321   7.899   7.138   0.578 -0.5387  0.0441 -0.0987
   14MOL    H96 5322   7.994   7.295   0.592  0.3135 -0.0790  0.7291
   14MOL    H97 5323   8.031   7.157   0.694 -2.5828 -1.1969  0.0330
   14MOL    H98 5324   7.951   7.342   0.366 -1.2549 -0.3072 -1.5606
   14MOL    H99 5325   7.978   7.389   0.141  0.8485  1.2732  1.2852
   14MOL   H100 5326   7.935   7.341   7.949  0.3419  0.6624 -0.3698
   14MOL   H101 5327   8.026   7.298   7.816 -1.1912  1.1787  0.9627
   14MOL   C102 5328   7.938   7.125   7.926 -0.3111 -0.1069  0.3953
   14MOL   C103 5329   7.827   7.120   8.026 -0.2851  0.1785  0.3756
   14MOL   C104 5330   7.824   7.023   0.086 -0.3993  0.1491 -0.2447
   14MOL   C105 5331   7.719   7.011   0.178  0.0098  1.3597 -0.1724
   14MOL   C106 5332   7.608   7.104   0.161  0.4623  0.5650 -0.0585
   14MOL   O107 5333   7.504   7.119   0.254 -0.4013 -0.0290 -0.2876
   14MOL   C108 5334   7.521   7.054   0.382 -0.6263 -0.1643  0.2135
   14MOL   C109 5335   7.608   7.203   0.060 -0.2567 -0.4605 -0.2414
   14MOL   C110 5336   7.718   7.207   8.008  0.0073 -0.3999 -0.2595
   14MOL   C111 5337   7.892   7.073   7.792 -0.1764  0.3710  0.3369
   14MOL   H112 5338   8.016   7.054   7.953  1.2823  1.2814 -0.5154
   14MOL   H113 5339   7.912   6.960   0.089  0.3019  1.0619 -1.0882
   14MOL   H114 5340   7.722   6.939   0.258 -3.3527 -2.0050 -2.8743
   14MOL   H115 5341   7.521   6.945   0.368 -0.7923 -0.3658  1.7030
   14MOL   H116 5342   7.615   7.087   0.426 -0.3451  0.0881 -0.5704
   14MOL   H117 5343   7.444   7.092   0.448 -0.5919  0.1164  0.0932
   14MOL   H118 5344   7.530   7.278   0.050  1.1475  0.9201 -1.1827
   14MOL   H119 5345   7.709   7.281   7.930  2.3805 -0.5510 -0.7233
   14MOL   H120 5346   7.805   7.130   7.759 -0.5990 -0.3781  0.1515
   14MOL   H121 5347   7.978   7.090   7.727  1.5173 -0.9030  2.2042
   14MOL   C122 5348   7.853   6.922   7.790  0.0481  0.4370 -0.0397
   14MOL   C123 5349   7.973   6.834   7.836 -0.7307  0.4266  0.5434
   14MOL   C124 5350   0.069   6.871   7.806  0.0186 -0.0786 -0.3367
   14MOL   C125 5351   0.181   6.802   7.852  0.3128  0.6501 -0.5706
   14MOL   C126 5352   0.158   6.688   7.932  0.5385  0.4777 -0.9686
   14MOL   O127 5353   0.254   6.608   7.984 -0.2812  0.1969 -0.2797
   14MOL   C128 5354   0.393   6.644   7.959 -0.0248 -1.1393 -0.5522
   14MOL   C129 5355   0.024   6.649   7.969  0.3952  0.5736  0.2549
   14MOL   C130 5356   7.952   6.726   7.917 -0.3610  0.2856 -0.0082
   14MOL   C131 5357   7.808   6.886   7.646 -0.3033  0.3053  0.6544
   14MOL   H132 5358   7.774   6.895   7.860 -0.5256 -1.2067 -1.2980
   14MOL   H133 5359   0.098   6.956   7.747 -0.5674  0.0232 -0.4782
   14MOL   H134 5360   0.284   6.832   7.838  0.1597  1.0390 -0.8835
   14MOL   H135 5361   0.445   6.714   8.024  0.7098 -0.7236 -1.5643
   14MOL   H136 5362   0.458   6.557   7.962 -1.4019 -2.1719 -0.0069
   14MOL   H137 5363   0.415   6.695   7.865  1.6519  2.3511  1.6158
   14MOL   H138 5364   0.013   6.559   8.028 -1.3723  2.0956  2.2864
   14MOL   H139 5365   7.853   6.702   7.952 -1.1285  2.9249 -0.3152
   14MOL   H140 5366   7.886   6.828   7.596 -1.9225  0.1441 -1.7653
   14MOL   H141 5367   7.781   6.967   7.578 -2.9222 -1.4489 -0.4719
   14MOL   C142 5368   7.682   6.790   7.643  0.0196 -0.5580 -0.0528
   14MOL   C143 5369   7.570   6.860   7.719 -0.1120  0.2281 -0.8094
   14MOL   C144 5370   7.522   6.813   7.842 -0.3554 -0.5158  0.1315
   14MOL   C145 5371   7.410   6.876   7.903 -0.2547  0.1569  0.1960
   14MOL   C146 5372   7.360   6.998   7.847  0.2948 -0.7017 -0.2943
   14MOL   O147 5373   7.261   7.067   7.921 -0.5769 -0.4370 -0.5831
   14MOL   C148 5374   7.219   7.188   7.880  0.6837 -0.6895 -0.0696
   14MOL   C149 5375   7.414   7.049   7.724 -0.4710 -0.1541  0.4358
   14MOL   C150 5376   7.519   6.978   7.660 -0.7533  0.2605 -0.5064
   14MOL   C151 5377   7.641   6.742   7.501 -0.3571  0.6585 -0.0321
   14MOL   H152 5378   7.708   6.704   7.705 -0.9801 -1.7309 -1.2161
   14MOL   H153 5379   7.566   6.723   7.885 -0.1170 -1.0852 -1.2856
   14MOL   H154 5380   7.370   6.838   7.996 -0.2377 -0.2588  0.0343
   14MOL   H155 5381   7.195   7.187   7.773  0.0377 -1.5634  0.0831
   14MOL   H156 5382   7.134   7.220   7.941 -1.0003 -2.4317 -1.4422
   14MOL   H157 5383   7.299   7.261   7.889 -0.8427  0.7717  2.1960
   14MOL   H158 5384   7.381   7.138   7.671  0.8427  0.2165  0.2407
   14MOL   H159 5385   7.559   7.023   7.570 -0.9951  0.9968 -0.2484
   14MOL   H160 5386   7.654   6.828   7.435  1.5789  1.4603  1.3519
   14MOL   H161 5387   7.537   6.709   7.495 -0.3166  0.4726  0.2969
   14MOL   C162 5388   7.725   6.630   7.434 -0.3538 -0.1898  0.1722
   14MOL   C163 5389   7.693   6.623   7.285 -0.4419 -0.6111 -0.6566
   14MOL   C164 5390   7.791   6.669   7.188  0.3717  0.0716  0.0530
   14MOL   C165 5391   7.768   6.667   7.054  0.3641  0.9576  0.0618
   14MOL   C166 5392   7.640   6.630   7.003 -0.3665 -0.6275 -0.3918
   14MOL   O167 5393   7.620   6.645   6.867 -0.4804 -0.4449 -0.4556
   14MOL   C168 5394   7.500   6.593   6.812 -0.6968 -0.1890  0.2812
   14MOL   C169 5395   7.542   6.592   7.096 -0.2577 -0.0802 -0.8587
   14MOL   C170 5396   7.563   6.583   7.237  0.6529 -1.4715 -0.2392
   14MOL   C171 5397   7.721   6.495   7.506 -0.1527 -0.2798  0.1281
   14MOL   H172 5398   7.827   6.669   7.440 -0.8854  1.2184  0.4044
   14MOL   H173 5399   7.888   6.703   7.220  1.0036 -1.2574 -0.4052
   14MOL   H174 5400   7.850   6.700   6.991 -0.2222 -2.6400 -2.7615
   14MOL   H175 5401   7.418   6.660   6.838 -1.0174 -0.9553  1.2514
   14MOL   H176 5402   7.475   6.495   6.852  1.7113 -0.5175  1.0638
   14MOL   H177 5403   7.502   6.597   6.703  0.6323  0.1809  0.3094
   14MOL   H178 5404   7.443   6.561   7.067 -0.3425 -1.0437  0.3806
   14MOL   H179 5405   7.491   6.556   7.312  0.8424  0.0774  0.5352
   14MOL   H180 5406   7.678   6.420   7.440  0.7058 -0.3566 -0.3506
   14MOL   H181 5407   7.647   6.511   7.585 -0.2452  3.2352 -0.5949
   14MOL   C182 5408   7.846   6.431   7.569  0.1647  0.2046  0.0915
   14MOL   C183 5409   7.962   6.420   7.472  0.0514  0.3565 -0.4085
   14MOL   C184 5410   0.038   6.501   7.481  0.5439 -0.0604  0.4676
   14MOL   C185 5411   0.146   6.492   7.385  0.2048 -0.7064  0.8888
   14MOL   C186 5412   0.131   6.408   7.275  0.0473 -0.1629  0.1458
   14MOL   O187 5413   0.228   6.403   7.178  0.0461  0.1984 -0.6454
   14MOL   C188 5414   0.180   6.358   7.053 -0.3589  0.0768 -0.3241
   14MOL   C189 5415   0.007   6.342   7.258  0.3945  0.2656  0.7838
   14MOL   C190 5416   7.947   6.347   7.357  0.1731  0.0190  0.6865
   14MOL   C191 5417   7.803   6.300   7.647 -0.0650  0.0904 -0.2358
   14MOL   H192 5418   7.860   6.501   7.652  2.7062  0.3265 -0.4054
   14MOL   H193 5419   0.060   6.560   7.569  1.3824 -2.1756  1.6996
   14MOL   H194 5420   0.238   6.548   7.392  0.7885 -1.5544  0.0754
   14MOL   H195 5421   0.181   6.249   7.063  1.6581  0.1962  1.1232
   14MOL   H196 5422   0.242   6.382   6.967  1.6406  1.9126  1.5601
   14MOL   H197 5423   0.088   6.407   7.023  0.3819  2.2101  0.7899
   14MOL   H198 5424   8.017   6.287   7.170 -0.3369  2.5401 -0.4405
   14MOL   H199 5425   7.849   6.303   7.341  0.1105 -0.3670  2.0625
   14MOL   H200 5426   7.732   6.328   7.725  0.3876  0.8200 -0.0767
   14MOL   H201 5427   7.741   6.237   7.583 -0.8976  1.0652 -0.4035
   14MOL   C202 5428   7.915   6.210   7.689  0.6809  0.0145 -0.3337
   14MOL   C203 5429   7.868   6.065   7.733 -0.6187  0.0681  1.1560
   14MOL   C204 5430   7.931   5.948   7.682  0.5731  0.4786  0.1096
   14MOL   C205 5431   7.890   5.819   7.722  0.5271 -0.9976  0.3466
   14MOL   C206 5432   7.785   5.803   7.821 -0.3565 -0.3730  0.2385
   14MOL   O207 5433   7.746   5.679   7.868 -0.7357  0.1108 -0.9820
   14MOL   C208 5434   7.841   5.573   7.876 -0.7227  0.1947 -0.2083
   14MOL   C209 5435   7.720   5.921   7.867  0.5108  0.1942 -0.0137
   14MOL   C210 5436   7.760   6.051   7.820  0.3987  0.4166 -0.2336
   14MOL   C211 5437   7.999   6.290   7.800  0.5339  0.6583  0.2912
   14MOL   H212 5438   7.976   6.186   7.602  0.0370  0.1480 -0.8275
   14MOL   H213 5439   8.012   5.957   7.611  0.0590 -0.9092 -0.6738
   14MOL   H214 5440   7.946   5.741   7.675  2.7055  2.1446 -2.4490
   14MOL   H215 5441   7.940   5.591   7.917 -0.3070 -0.4692 -0.8947
   14MOL   H216 5442   7.800   5.492   7.936  2.5540 -0.9556  0.5388
   14MOL   H217 5443   7.862   5.526   7.780  1.6604  0.8068 -0.0164
   14MOL   H218 5444   7.637   5.911   7.935  2.0325  1.5716  2.1515
   14MOL   H219 5445   7.722   6.146   7.853 -1.6591  0.3246 -2.2611
   14MOL   H220 5446   7.921   6.322   7.870 -0.0672  0.3700 -0.2412
   14MOL   H221 5447   8.023   6.387   7.755  0.0067  0.1683 -1.0817
   14MOL   C222 5448   0.082   6.224   7.867  0.6541 -0.2355  0.0991
   14MOL   C223 5449   0.190   6.204   7.762 -0.0839 -0.1162 -0.1947
   14MOL   C224 5450   0.239   6.083   7.727 -0.6348 -0.3917  0.3683
   14MOL   C225 5451   0.345   6.063   7.636  0.2224 -0.4523 -0.0293
   14MOL   C226 5452   0.395   6.173   7.567  0.3224  0.0474  0.5539
   14MOL   O227 5453   0.497   6.147   7.484  0.6457 -0.3562 -0.3323
   14MOL   C228 5454   0.533   6.253   7.389  0.0945 -0.3597  0.1370
   14MOL   C229 5455   0.346   6.299   7.595  0.0613  0.1317  0.4074
   14MOL   C230 5456   0.255   6.312   7.704  0.1706  0.4008 -0.0770
   14MOL   C231 5457   0.138   6.298   7.995  0.0259  0.3695  0.2315
   14MOL   H232 5458   0.044   6.126   7.898  1.5578  0.4409  3.5390
   14MOL   H233 5459   0.206   5.993   7.778 -0.4846  0.6992  2.4544
   14MOL   H234 5460   0.392   5.967   7.629 -0.4392 -0.8205  0.5079
   14MOL   H235 5461   0.445   6.288   7.335  1.9383  0.5577 -2.3299
   14MOL   H236 5462   0.576   6.344   7.431 -0.4634  0.2401 -0.5659
   14MOL   H237 5463   0.613   6.221   7.322  0.7310 -0.0045  0.7256
   14MOL   H238 5464   0.386   6.394   7.561 -0.9212  0.7902  1.0553
   14MOL   H239 5465   0.243   6.410   7.749 -1.6585  0.1275  0.0461
   14MOL   H240 5466   0.181   6.388   7.951 -0.6233  1.0414  0.9484
   14MOL   H241 5467   0.041   6.322   8.039  1.0733  1.3191  2.0622
   14MOL   C242 5468   0.232   6.235   0.057  0.1100 -0.8068  0.0387
   14MOL   C243 5469   0.343   6.157   8.038 -0.0564 -0.2387  0.1465
   14MOL   C244 5470   0.350   6.022   0.014  0.1243  0.6094  0.4954
   14MOL   C245 5471   0.456   5.946   8.000  0.4649  0.3667 -0.4219
   14MOL   C246 5472   0.553   6.016   7.924 -0.9822  0.3266  0.2340
   14MOL   O247 5473   0.657   5.934   7.884 -0.0406 -0.1228  0.0118
   14MOL   C248 5474   0.739   5.980   7.777  0.8155  0.5792  0.6993
   14MOL   C249 5475   0.545   6.153   7.905 -0.2647  0.9071 -0.5118
   14MOL   C250 5476   0.441   6.227   7.959 -0.2229  0.4521  0.2611
   14MOL   C251 5477   0.275   6.330   0.179 -0.1935 -0.2773 -0.6160
   14MOL   H252 5478   0.172   6.156   0.104 -1.0740  0.1696  0.2027
   14MOL   H253 5479   0.269   5.974   0.066  0.6341  1.4847  2.1439
   14MOL   H254 5480   0.463   5.840   8.019  0.1790  0.5588  0.8454
   14MOL   H255 5481   0.685   5.972   7.683 -1.1745  1.4228  1.7535
   14MOL   H256 5482   0.774   6.081   7.798 -0.2790  1.0424  0.3106
   14MOL   H257 5483   0.826   5.915   7.781 -1.2302 -2.2202  1.2593
   14MOL   H258 5484   0.615   6.200   7.837 -0.8551  0.6583 -1.3001
   14MOL   H259 5485   0.442   6.334   7.952  0.0078  0.4331  0.0146
   14MOL   H260 5486   0.330   6.410   0.129 -0.1427  0.3870  0.4886
   14MOL   H261 5487   0.338   6.279   0.251 -1.3097 -0.2422  0.3889
   14MOL   C262 5488   0.160   6.400   0.259 -0.6408  0.0675 -0.6235
   14MOL   C263 5489   0.209   6.515   0.349 -0.4229 -0.5058 -0.1352
   14MOL   C264 5490   0.152   6.642   0.337 -0.0147 -0.2013 -0.2193
   14MOL   C265 5491   0.199   6.755   0.418 -0.4493 -0.5979  0.6937
   14MOL   C266 5492   0.311   6.737   0.505  0.0196 -0.4420  0.0561
   14MOL   O267 5493   0.357   6.849   0.581  0.0344  0.4228  0.1904
   14MOL   C268 5494   0.487   6.844   0.640  0.1360  0.9393 -0.4509
   14MOL   C269 5495   0.361   6.606   0.519 -0.7167  0.2177  0.1670
   14MOL   C270 5496   0.314   6.495   0.443  0.5419  0.6531  0.4515
   14MOL   C271 5497   0.068   6.300   0.333 -0.3162  0.7640  0.2794
   14MOL   H272 5498   0.100   6.447   0.181 -1.3865  0.0609 -0.0644
   14MOL   H273 5499   0.075   6.670   0.267 -2.6100  0.5489  2.8225
   14MOL   H274 5500   0.154   6.852   0.407 -0.1959 -0.7280 -1.6255
   14MOL   H275 5501   0.494   6.931   0.706 -1.1721  1.3601 -0.8372
   14MOL   H276 5502   0.550   6.852   0.551  0.8405 -0.4150 -0.0713
   14MOL   H277 5503   0.495   6.758   0.706 -0.6538  2.0647  1.1414
   14MOL   H278 5504   0.437   6.581   0.592 -0.4087 -2.2411 -0.9476
   14MOL   H279 5505   0.346   6.395   0.469  0.4822  0.5489  0.1242
   14MOL   H280 5506   0.111   6.205   0.300 -0.7135  2.1406 -4.5625
   14MOL   H281 5507   0.087   6.296   0.440  1.0038  0.6361  0.0565
   14MOL   C282 5508   7.956   6.322   0.308 -0.6744  0.2150 -0.5406
   14MOL   C283 5509   7.914   6.461   0.354 -0.1319  0.0581  0.3726
   14MOL   C284 5510   7.857   6.551   0.262  0.1643  0.6724  0.0623
   14MOL   C285 5511   7.792   6.668   0.313 -0.6373  0.0275 -0.2409
   14MOL   C286 5512   7.789   6.695   0.452  0.7670 -0.0665  0.0279
   14MOL   O287 5513   7.716   6.801   0.492 -0.1696 -0.1062 -0.6355
   14MOL   C288 5514   7.725   6.842   0.624  0.0749 -1.0377  0.4525
   14MOL   C289 5515   7.853   6.606   0.548  0.0151  0.1577  0.2209
   14MOL   C290 5516   7.918   6.491   0.493  0.4440  0.5307 -0.4556
   14MOL   C291 5517   7.871   6.200   0.360 -0.0059 -0.8407  0.1583
   14MOL   H292 5518   7.943   6.320   0.200 -0.8351  0.1458 -0.5209
   14MOL   H293 5519   7.854   6.535   0.155 -0.6073  3.4285 -0.3775
   14MOL   H294 5520   7.749   6.740   0.244  1.2969  1.5376  0.0833
   14MOL   H295 5521   7.816   6.893   0.655  1.1906 -2.9809  0.4193
   14MOL   H296 5522   7.648   6.916   0.646  1.8906  0.9406  0.3104
   14MOL   H297 5523   7.724   6.762   0.698 -0.6462 -0.9994  0.4948
   14MOL   H298 5524   7.856   6.615   0.656  1.9863  1.9354  0.0494
   14MOL   H299 5525   7.954   6.418   0.563 -2.1839  0.0288  0.4340
   14MOL   H300 5526   7.926   6.109   0.335  0.6181 -0.3636 -0.2043
   14MOL   H301 5527   7.867   6.204   0.469 -1.2237  0.2505  0.0803
   14MOL   C302 5528   7.728   6.181   0.295 -0.4322 -0.1101  0.1794
   14MOL   C303 5529   7.692   6.034   0.291 -0.1864 -0.2543  0.4281
   14MOL   C304 5530   7.625   5.965   0.394  0.1736  0.5614 -0.5760
   14MOL   C305 5531   7.606   5.829   0.385  0.0045 -0.5894  0.3062
   14MOL   C306 5532   7.639   5.758   0.271 -0.2332 -0.5658 -0.6821
   14MOL   O307 5533   7.595   5.628   0.259 -0.2043  0.1453  0.2395
   14MOL   C308 5534   7.634   5.547   0.147 -0.1648  0.1097  0.5188
   14MOL   C309 5535   7.701   5.829   0.169 -0.5259 -0.2839 -0.0776
   14MOL   C310 5536   7.737   5.963   0.180  0.4581  0.1141 -0.1852
   14MOL   C311 5537   7.614   6.259   0.350  0.4671 -0.0168 -0.8418
   14MOL   H312 5538   7.728   6.214   0.191 -0.7494 -0.0944  0.1835
   14MOL   H313 5539   7.583   6.017   0.479  0.7196 -0.1193  0.1290
   14MOL   H314 5540   7.553   5.781   0.466 -1.0106 -0.2260 -0.1405
   14MOL   H315 5541   7.739   5.521   0.153 -0.5394 -1.2466  1.5505
   14MOL   H316 5542   7.615   5.610   0.060  1.0867 -0.8342 -0.4469
   14MOL   H317 5543   7.571   5.459   0.132 -0.4624  0.5680 -0.9950
   14MOL   H318 5544   7.724   5.783   0.074  1.3665 -0.5165  0.4705
   14MOL   H319 5545   7.786   6.018   0.101  3.2418 -0.6940  0.9076
   14MOL   H320 5546   7.650   6.362   0.353 -0.1280  0.1855 -0.2788
   14MOL   H321 5547   7.616   6.233   0.456 -2.0496 -3.7008 -1.6060
   14MOL   C322 5548   7.477   6.228   0.284 -0.2194 -0.2175  0.5234
   14MOL   C323 5549   7.478   6.234   0.131 -0.4316  0.0194 -0.2484
   14MOL   C324 5550   7.442   6.121   0.062  1.0440 -0.4195  0.4793
   14MOL   C325 5551   7.444   6.126   7.960  0.5618 -0.2313  0.2554
   14MOL   C326 5552   7.486   6.244   7.894 -0.1209  0.0950 -0.2562
   14MOL   O327 5553   7.492   6.257   7.757  0.1585  0.4269 -0.3417
   14MOL   C328 5554   7.475   6.144   7.672  0.3969 -0.4013  0.2801
   14MOL   C329 5555   7.522   6.356   7.964 -0.2639 -0.1560  0.3888
   14MOL   C330 5556   7.522   6.351   0.062  0.5119  0.4210 -0.7350
   14MOL   C331 5557   7.375   6.326   0.346 -0.6195  0.0267  0.4014
   14MOL   H332 5558   7.461   6.123   0.306 -0.9685 -0.3085 -0.4642
   14MOL   H333 5559   7.413   6.031   0.115  0.1452 -0.6056 -0.3336
   14MOL   H334 5560   7.424   6.034   7.906  1.2899  0.1809 -0.7232
   14MOL   H335 5561   7.374   6.108   7.694  0.3365  0.7671  2.0587
   14MOL   H336 5562   7.555   6.075   7.696 -1.3888 -2.1458  1.3990
   14MOL   H337 5563   7.471   6.189   7.573 -1.8178  0.3208  0.6699
   14MOL   H338 5564   7.558   6.445   7.915  0.0463  0.2459  1.3379
   14MOL   H339 5565   7.546   6.435   0.125 -0.0920 -0.0769  0.1562
   14MOL   H340 5566   7.410   6.428   0.361 -0.2551 -0.0508  0.0791
   14MOL   H341 5567   7.286   6.338   0.283  1.5686  4.4624 -2.0610
   14MOL   C342 5568   7.314   6.276   0.475  0.1585 -0.2562 -0.5967
   14MOL   C343 5569   7.245   6.137   0.466 -0.2292 -0.3644 -0.6448
   14MOL   C344 5570   7.290   6.031   0.552  1.0519 -0.2261  0.3244
   14MOL   C345 5571   7.236   5.903   0.546  0.2031  0.4551 -0.1151
   14MOL   C346 5572   7.130   5.882   0.457  0.4095 -0.0798  0.3840
   14MOL   O347 5573   7.085   5.756   0.423  0.9126  0.3939 -0.0201
   14MOL   C348 5574   7.132   5.649   0.499 -0.0421  0.6268 -0.3901
   14MOL   C349 5575   7.078   5.985   0.380 -0.1610 -0.0043 -0.4636
   14MOL   C350 5576   7.138   6.114   0.383 -0.0414  0.0229  0.1476
   14MOL   C351 5577   7.223   6.373   0.552  0.6715  0.2507  0.1310
   14MOL   H352 5578   7.406   6.260   0.533 -0.3144  2.2694  0.9389
   14MOL   H353 5579   7.380   6.056   0.606 -0.5124  0.6910  2.5601
   14MOL   H354 5580   7.276   5.827   0.611 -1.3792 -1.2338 -1.0735
   14MOL   H355 5581   7.123   5.666   0.606 -2.6170  1.3468 -0.6867
   14MOL   H356 5582   7.094   5.548   0.484  2.7626 -0.5609  0.0652
   14MOL   H357 5583   7.238   5.625   0.487  0.5865  1.6535  2.6480
   14MOL   H358 5584   7.007   5.961   0.302  0.2691  0.7851 -1.1124
   14MOL   H359 5585   7.099   6.189   0.316  1.1491 -0.9818 -1.7113
   14MOL   H360 5586   7.138   6.417   0.500 -0.4562 -2.8660 -0.7658
   14MOL   H361 5587   7.173   6.309   0.625  2.5622  1.0012  2.1406
   14MOL   C362 5588   7.294   6.494   0.623  0.6287  0.7755 -0.4047
   14MOL   C363 5589   7.412   6.442   0.718  0.0481 -0.8850  0.1949
   14MOL   C364 5590   7.544   6.441   0.674  0.1311 -0.0681 -0.3070
   14MOL   C365 5591   7.647   6.391   0.754  0.4721 -0.1117 -0.4325
   14MOL   C366 5592   7.617   6.341   0.882  1.0319  0.3709  0.5611
   14MOL   O367 5593   7.719   6.289   0.956 -0.6911  0.8453  0.5349
   14MOL   C368 5594   7.688   6.190   1.054  0.4200 -0.1588  0.8619
   14MOL   C369 5595   7.484   6.347   0.927 -0.8067 -0.4516 -0.0373
   14MOL   C370 5596   7.377   6.397   0.845  0.3198 -0.3643  0.1963
   14MOL   C371 5597   7.194   6.579   0.692 -0.6641 -0.6226 -0.2479
   14MOL   H372 5598   7.336   6.556   0.544 -0.2805  0.2764 -1.2947
   14MOL   H373 5599   7.561   6.486   0.577  1.0636 -0.7270 -0.4586
   14MOL   H374 5600   7.751   6.380   0.725  0.8202  1.1342  0.2767
   14MOL   H375 5601   7.674   6.238   1.151  1.4897  0.2419  0.8197
   14MOL   H376 5602   7.591   6.143   1.033 -0.5586  1.9815  0.4185
   14MOL   H377 5603   7.768   6.118   1.063 -0.1495 -1.1523 -1.5108
   14MOL   H378 5604   7.459   6.323   1.029 -0.8117 -1.3761 -0.2517
   14MOL   H379 5605   7.278   6.390   0.888  0.0131  3.4263  0.3071
   14MOL   H380 5606   7.103   6.595   0.634 -0.5910  1.3746  0.1505
   14MOL   H381 5607   7.149   6.517   0.769  0.6207  0.7303  1.6229
   14MOL   C382 5608   7.263   6.709   0.754 -0.4558 -0.2669  0.3268
   14MOL   C383 5609   7.187   6.769   0.880  0.4375  0.4746  0.5332
   14MOL   C384 5610   7.226   6.744   1.012 -0.4935 -0.2373 -0.0807
   14MOL   C385 5611   7.154   6.786   1.123 -0.0535 -0.1680  0.7092
   14MOL   C386 5612   7.034   6.855   1.105  1.0124  0.1399 -0.3980
   14MOL   O387 5613   6.968   6.918   1.209  0.0736  0.4290 -0.2708
   14MOL   C388 5614   6.998   6.879   1.341  0.1936 -0.2724 -0.3207
   14MOL   C389 5615   6.991   6.882   0.969 -0.0078  0.4671 -0.1717
   14MOL   C390 5616   7.061   6.836   0.857  0.2863  0.2825 -0.5281
   14MOL   C391 5617   7.285   6.817   0.646 -0.1717 -0.2095 -0.3857
   14MOL   H392 5618   7.363   6.697   0.797 -0.7687 -1.3550  0.7564
   14MOL   H393 5619   7.313   6.681   1.021  1.2320  2.2664  1.3963
   14MOL   H394 5620   7.206   6.784   1.218  1.8444  0.4169 -0.2824
   14MOL   H395 5621   7.002   6.772   1.362 -1.3354 -0.2517  0.1832
   14MOL   H396 5622   6.917   6.921   1.400  0.2999 -0.4255 -0.0652
   14MOL   H397 5623   7.085   6.922   1.390 -0.8814  1.0264  0.4988
   14MOL   H398 5624   6.898   6.933   0.950 -0.3359 -0.2657 -0.5492
   14MOL   H399 5625   7.019   6.856   0.760 -1.9651 -0.6270  0.2253
   14MOL   H400 5626   7.194   6.835   0.589 -0.4367  0.9941  0.3908
   14MOL   H401 5627   7.365   6.781   0.581  0.9535 -1.8765  1.8344
   14MOL   H402 5628   7.323   6.910   0.688  0.0207 -0.2558 -0.4558
   15MOL     C1 5629   3.625   3.346   0.665  0.0215  0.8037  0.6713
   15MOL     C2 5630   3.616   3.186   0.669 -0.2696  0.1252 -0.0105
   15MOL     C3 5631   3.733   3.116   0.700  0.5693 -0.1889 -0.4672
   15MOL     C4 5632   3.732   2.976   0.728  0.3451  0.2636 -0.1714
   15MOL     C5 5633   3.609   2.903   0.722 -0.0048 -0.6201 -0.0025
   15MOL     O6 5634   3.580   2.771   0.754  0.2684 -0.5140  1.0682
   15MOL     C7 5635   3.690   2.695   0.780  0.0903 -0.0885 -0.2647
   15MOL     C8 5636   3.494   2.973   0.696  0.3898 -0.0218  0.1441
   15MOL     C9 5637   3.498   3.113   0.666 -0.5366  0.5071  0.1409
   15MOL    C10 5638   3.728   3.407   0.561 -0.1533 -0.2048 -1.0016
   15MOL    H11 5639   3.647   3.383   0.765  0.2614  1.4288  0.3888
   15MOL    H12 5640   3.831   3.159   0.715  0.8295 -1.5745  2.0518
   15MOL    H13 5641   3.820   2.925   0.764 -0.8489 -1.7231  0.0786
   15MOL    H14 5642   3.662   2.590   0.774  1.6147 -0.4333 -1.8884
   15MOL    H15 5643   3.752   2.713   0.691 -1.3404  1.0634 -1.0454
   15MOL    H16 5644   3.741   2.709   0.875  1.5847  0.6174 -1.1565
   15MOL    H17 5645   3.396   2.926   0.691  1.8593 -3.0427 -1.5787
   15MOL    H18 5646   3.407   3.163   0.638 -0.7001 -0.0684 -0.3784
   15MOL    H19 5647   3.738   3.511   0.592 -0.3267  0.1562 -2.1378
   15MOL    H20 5648   3.820   3.368   0.605 -1.1069 -2.5774 -1.0403
   15MOL    H21 5649   3.524   3.383   0.648  0.4532  2.2419  1.1868
   15MOL    C22 5650   3.715   3.377   0.410  0.1641  0.5331 -0.3011
   15MOL    C23 5651   3.583   3.429   0.348  0.0459 -0.2358  0.1051
   15MOL    C24 5652   3.495   3.337   0.286 -0.7850  0.1581  0.3156
   15MOL    C25 5653   3.385   3.381   0.218 -0.6216 -0.2672  0.4595
   15MOL    C26 5654   3.360   3.521   0.215 -0.1396  0.6437 -0.2581
   15MOL    O27 5655   3.248   3.570   0.150  0.1998  0.3006 -0.2340
   15MOL    C28 5656   3.212   3.494   0.027  0.0446 -0.2567 -0.6473
   15MOL    C29 5657   3.439   3.611   0.292  0.2204 -0.4378  0.5998
   15MOL    C30 5658   3.553   3.566   0.358  0.2075  0.5876 -1.0155
   15MOL    C31 5659   3.835   3.432   0.326  0.1083 -0.0692 -0.4689
   15MOL    H32 5660   3.701   3.269   0.399 -1.0066  0.4675  1.6140
   15MOL    H33 5661   3.516   3.232   0.291 -0.9657  0.0534 -0.9316
   15MOL    H34 5662   3.336   3.303   0.161 -2.1684  0.0235  1.3587
   15MOL    H35 5663   3.293   3.460   8.002 -0.3043  1.1886 -1.8662
   15MOL    H36 5664   3.150   3.564   8.011 -0.4695 -1.3701 -1.4916
   15MOL    H37 5665   3.157   3.400   0.032 -1.7054  0.8110  0.8321
   15MOL    H38 5666   3.417   3.716   0.288 -1.5729 -0.8222 -1.2038
   15MOL    H39 5667   3.625   3.634   0.401  0.9482 -1.2044  0.6499
   15MOL    H40 5668   3.806   3.442   0.221  0.8843 -0.4473 -0.7202
   15MOL    H41 5669   3.865   3.531   0.358 -0.4248 -0.1835  0.3866
   15MOL    C42 5670   3.958   3.344   0.323  0.1778 -0.5920  0.0076
   15MOL    C43 5671   4.084   3.420   0.267  0.7760  0.5994  0.4226
   15MOL    C44 5672   4.204   3.431   0.339  0.2691 -0.8284 -0.3303
   15MOL    C45 5673   4.311   3.483   0.285  0.5676  0.6236 -0.3421
   15MOL    C46 5674   4.310   3.537   0.154  0.1518 -0.6023  0.1662
   15MOL    O47 5675   4.428   3.593   0.108  0.8121  0.4208  0.0416
   15MOL    C48 5676   4.408   3.676   8.038 -0.4402 -0.5925 -0.5814
   15MOL    C49 5677   4.192   3.527   0.075  0.1072  0.6651  0.1773
   15MOL    C50 5678   4.077   3.467   0.135  0.1233  0.7332 -0.0648
   15MOL    C51 5679   3.937   3.212   0.250 -0.4621 -0.3488  0.3991
   15MOL    H52 5680   3.978   3.307   0.424  1.6325  2.9676  1.1177
   15MOL    H53 5681   4.197   3.399   0.442  1.5838  0.8304  0.2902
   15MOL    H54 5682   4.403   3.487   0.341  0.9013  1.9297 -0.9654
   15MOL    H55 5683   4.319   3.739   0.003  0.2664  0.2873  1.1817
   15MOL    H56 5684   4.485   3.753   0.003 -2.6988  1.8442 -1.8358
   15MOL    H57 5685   4.394   3.622   7.945 -0.3745  0.5505 -1.2717
   15MOL    H58 5686   4.183   3.548   8.010  0.7799 -2.4124 -0.5336
   15MOL    H59 5687   3.987   3.452   0.078  1.4047  0.2538 -2.0204
   15MOL    H60 5688   3.896   3.240   0.153 -0.5473  2.2358  1.1548
   15MOL    H61 5689   3.859   3.155   0.301  2.5364 -2.5558  2.7184
   15MOL    C62 5690   4.066   3.126   0.235  0.8273 -0.7064  0.7879
   15MOL    C63 5691   4.059   3.033   0.122  0.4566 -0.0619 -0.0452
   15MOL    C64 5692   4.180   3.003   0.054 -0.0438 -0.8504 -0.3798
   15MOL    C65 5693   4.182   2.942   7.968 -0.1501  0.1224  0.3839
   15MOL    C66 5694   4.060   2.897   7.914  0.2435  0.0530 -0.5899
   15MOL    O67 5695   4.070   2.847   7.788 -0.2250  0.3226 -0.2906
   15MOL    C68 5696   3.947   2.846   7.714  0.2190  0.0331 -0.0629
   15MOL    C69 5697   3.939   2.914   7.985 -0.2837 -0.0908 -0.3917
   15MOL    C70 5698   3.940   2.985   0.068  0.2898 -0.0809 -0.3465
   15MOL    C71 5699   4.088   3.044   0.372 -0.3248 -0.0835  0.1170
   15MOL    H72 5700   4.156   3.186   0.223  1.3081 -1.4760  0.4286
   15MOL    H73 5701   4.267   3.058   0.087  0.5253 -1.0661 -1.4718
   15MOL    H74 5702   4.268   2.933   7.904 -0.0101 -1.6081  0.7920
   15MOL    H75 5703   3.970   2.819   7.611 -0.4959 -1.7612  0.2264
   15MOL    H76 5704   3.901   2.945   7.716 -3.9455 -1.7919 -1.1457
   15MOL    H77 5705   3.877   2.771   7.749  1.1690 -0.7990  0.0722
   15MOL    H78 5706   3.847   2.886   7.937  0.1185 -1.3607 -0.4569
   15MOL    H79 5707   3.848   3.012   0.119  1.0992  1.5092  0.3135
   15MOL    H80 5708   4.055   3.101   0.459  0.7941  0.6435  0.0748
   15MOL    H81 5709   4.020   2.959   0.373  0.4725 -0.7362 -0.5403
   15MOL    C82 5710   4.229   2.984   0.391 -1.0150 -0.5949 -0.2515
   15MOL    C83 5711   4.333   3.090   0.437  0.2480  0.1670 -0.4563
   15MOL    C84 5712   4.452   3.119   0.366  1.0712  0.6151  0.3930
   15MOL    C85 5713   4.545   3.203   0.417  0.1346  0.0119 -0.1523
   15MOL    C86 5714   4.530   3.276   0.536 -0.4048  0.0604  0.3899
   15MOL    O87 5715   4.634   3.359   0.569  0.3780  0.5990 -0.5850
   15MOL    C88 5716   4.658   3.393   0.704 -0.0007  0.6743  0.6819
   15MOL    C89 5717   4.414   3.246   0.617 -0.5990  0.1338 -0.1590
   15MOL    C90 5718   4.314   3.161   0.564 -0.5488  0.5260 -1.0247
   15MOL    C91 5719   4.229   2.863   0.481 -0.4718 -0.3957 -0.5175
   15MOL    H92 5720   4.250   2.950   0.289 -2.0796 -2.4494  0.1281
   15MOL    H93 5721   4.478   3.058   0.280 -1.9996 -0.5889  0.2587
   15MOL    H94 5722   4.644   3.210   0.374  1.2423 -3.0157  1.7762
   15MOL    H95 5723   4.651   3.305   0.768 -0.8361  1.2711  1.4228
   15MOL    H96 5724   4.585   3.467   0.736 -1.2309 -0.4130  0.4620
   15MOL    H97 5725   4.758   3.436   0.712  0.1651  0.3986  0.0840
   15MOL    H98 5726   4.401   3.288   0.715  0.0862  1.7044 -0.7276
   15MOL    H99 5727   4.227   3.143   0.626  0.5405 -0.0635  0.3566
   15MOL   H100 5728   4.325   2.858   0.533 -1.0640  0.8554  0.7225
   15MOL   H101 5729   4.159   2.893   0.558  1.4254  0.0287  1.0783
   15MOL   C102 5730   4.208   2.729   0.408 -0.3030 -0.3501 -0.6478
   15MOL   C103 5731   4.324   2.696   0.304 -0.4663  0.1495  0.3021
   15MOL   C104 5732   4.447   2.644   0.341  0.0724  0.1350  0.7149
   15MOL   C105 5733   4.546   2.610   0.247 -0.1540  0.2073 -0.0557
   15MOL   C106 5734   4.519   2.617   0.106  0.0190 -0.4942 -0.1717
   15MOL   O107 5735   4.614   2.578   0.017 -0.1830  0.1750  0.1224
   15MOL   C108 5736   4.594   2.604   7.920 -0.3714  0.2835 -0.2099
   15MOL   C109 5737   4.392   2.658   0.065  0.2835  0.3235  0.7036
   15MOL   C110 5738   4.303   2.710   0.160 -0.0229  0.5398 -0.5189
   15MOL   C111 5739   4.180   2.613   0.507  0.1033  0.4823 -0.2974
   15MOL   H112 5740   4.121   2.741   0.343 -0.2809 -2.5808 -1.1207
   15MOL   H113 5741   4.470   2.629   0.446  0.6713 -0.2938  0.5237
   15MOL   H114 5742   4.645   2.581   0.280  0.8810  2.1654 -1.3706
   15MOL   H115 5743   4.509   2.564   7.865  0.9362 -0.3941 -1.8210
   15MOL   H116 5744   4.593   2.712   7.904 -0.4702  0.4008  0.6093
   15MOL   H117 5745   4.690   2.581   7.872 -0.3488 -0.4559  0.1867
   15MOL   H118 5746   4.376   2.674   8.000  0.5935 -0.0172  0.6051
   15MOL   H119 5747   4.210   2.751   0.122  0.9868  0.7391 -2.8254
   15MOL   H120 5748   4.257   2.611   0.583 -0.1871 -0.0576 -0.0186
   15MOL   H121 5749   4.091   2.639   0.565  0.1490 -0.4012  0.1703
   15MOL   C122 5750   4.162   2.473   0.436  0.9026  0.4859  0.0517
   15MOL   C123 5751   4.063   2.472   0.319 -0.0090  0.0992  0.6781
   15MOL   C124 5752   3.926   2.501   0.343  0.1444  0.0596 -0.5579
   15MOL   C125 5753   3.840   2.511   0.227 -0.5858  0.2213 -0.2785
   15MOL   C126 5754   3.891   2.494   0.092  0.3076  0.1692 -0.3678
   15MOL   O127 5755   3.802   2.527   8.030  0.3867  0.4529  0.1519
   15MOL   C128 5756   3.856   2.521   7.903 -0.3906 -0.1195  0.0128
   15MOL   C129 5757   4.023   2.447   0.080  0.0813  0.3640  0.1761
   15MOL   C130 5758   4.111   2.433   0.192  0.3215  0.2319  0.3515
   15MOL   C131 5759   4.123   2.367   0.539  0.8905 -0.3953  0.0975
   15MOL   H132 5760   4.255   2.437   0.393  1.2767  0.5870  0.7614
   15MOL   H133 5761   3.888   2.530   0.440  0.1853  1.5126 -0.9694
   15MOL   H134 5762   3.738   2.540   0.248 -1.2791 -1.3068 -1.4616
   15MOL   H135 5763   3.785   2.546   7.823 -0.4412  0.7969  0.3382
   15MOL   H136 5764   3.945   2.581   7.886  1.1083 -2.0935  0.7702
   15MOL   H137 5765   3.900   2.424   7.879  1.9165  1.5706 -2.8463
   15MOL   H138 5766   4.072   2.435   8.025  2.0099  1.1067  1.0329
   15MOL   H139 5767   4.216   2.411   0.176  0.1483 -0.3581  0.0078
   15MOL   H140 5768   4.066   2.280   0.508 -0.8054  0.6371  0.2590
   15MOL   H141 5769   4.055   2.413   0.611 -0.3943 -1.9111 -0.1234
   15MOL   C142 5770   4.243   2.310   0.622 -0.0188  0.0256  0.0974
   15MOL   C143 5771   4.203   2.237   0.751 -0.4099  0.2349  0.7735
   15MOL   C144 5772   4.215   2.305   0.876 -0.6873  0.7047  0.2827
   15MOL   C145 5773   4.168   2.241   0.992  0.4513 -0.0024  0.2147
   15MOL   C146 5774   4.114   2.111   0.987  0.9154  0.1236  0.0763
   15MOL   O147 5775   4.076   2.032   1.090 -0.0397  0.0353 -0.4019
   15MOL   C148 5776   4.061   2.103   1.213 -0.1171  0.8120 -0.0913
   15MOL   C149 5777   4.106   2.048   0.861 -0.5639 -0.1535 -0.3731
   15MOL   C150 5778   4.139   2.116   0.739 -0.4983 -0.0641 -0.1120
   15MOL   C151 5779   4.344   2.227   0.538 -0.2079 -0.3897  0.3897
   15MOL   H152 5780   4.297   2.398   0.655  1.8383 -1.5724  1.4627
   15MOL   H153 5781   4.249   2.407   0.877  1.0292  0.1395  1.7076
   15MOL   H154 5782   4.173   2.298   1.084  1.9713  1.4122 -0.7100
   15MOL   H155 5783   4.153   2.152   1.245  0.0522  0.3450  0.1387
   15MOL   H156 5784   3.984   2.180   1.202 -1.6001 -0.0442  3.5621
   15MOL   H157 5785   4.021   2.039   1.291  1.0623 -0.7019 -0.7233
   15MOL   H158 5786   4.065   1.949   0.855  0.9404 -0.8545  0.5215
   15MOL   H159 5787   4.132   2.064   0.644 -2.1992  0.9882 -0.5844
   15MOL   H160 5788   4.377   2.290   0.455  0.1522  0.9087  1.4986
   15MOL   H161 5789   4.285   2.154   0.483  0.0199 -0.0966 -0.2501
   15MOL   C162 5790   4.453   2.150   0.621 -0.0792  0.8541  0.3552
   15MOL   C163 5791   4.540   2.241   0.709 -0.2516 -0.8107 -0.6275
   15MOL   C164 5792   4.625   2.345   0.664  0.0564  0.4624 -0.2531
   15MOL   C165 5793   4.685   2.434   0.755 -0.9112 -0.4112 -0.0681
   15MOL   C166 5794   4.679   2.419   0.895  0.0066  0.8992 -0.3109
   15MOL   O167 5795   4.737   2.510   0.985  0.2738  0.0334 -0.5104
   15MOL   C168 5796   4.798   2.631   0.937 -0.0488 -0.2324 -0.1144
   15MOL   C169 5797   4.599   2.318   0.943  0.1836 -0.5409 -0.7000
   15MOL   C170 5798   4.523   2.235   0.853  0.1936  0.5337  0.0954
   15MOL   C171 5799   4.549   2.066   0.526 -0.0714 -0.0538  0.1507
   15MOL   H172 5800   4.399   2.074   0.676  0.3599  0.6948  0.5714
   15MOL   H173 5801   4.639   2.361   0.558  0.2704  2.0477  0.0056
   15MOL   H174 5802   4.730   2.515   0.699 -1.7009 -1.0399 -1.6631
   15MOL   H175 5803   4.848   2.666   1.028  0.2212 -3.0141  0.8388
   15MOL   H176 5804   4.714   2.696   0.912 -0.2597 -1.2644 -2.1704
   15MOL   H177 5805   4.873   2.633   0.858 -0.0138  1.2889 -0.0613
   15MOL   H178 5806   4.590   2.307   1.051  0.1821 -0.5559 -0.7016
   15MOL   H179 5807   4.456   2.162   0.895  2.5573 -0.7747  1.7146
   15MOL   H180 5808   4.639   2.061   0.588  1.0120  1.2169 -1.2842
   15MOL   H181 5809   4.557   2.132   0.440 -0.8362  0.6312  0.5958
   15MOL   C182 5810   4.510   1.922   0.493 -0.5934  0.7538  0.1812
   15MOL   C183 5811   4.527   1.837   0.623  0.0451 -0.2374  0.1867
   15MOL   C184 5812   4.418   1.811   0.701 -0.3450 -0.0366  0.0078
   15MOL   C185 5813   4.436   1.734   0.824  0.4055 -0.0631  0.5927
   15MOL   C186 5814   4.558   1.675   0.860 -0.2384 -0.6051  0.4966
   15MOL   O187 5815   4.561   1.600   0.974  0.2523 -0.1695 -0.2939
   15MOL   C188 5816   4.672   1.528   1.009  0.2635  0.1591 -0.0155
   15MOL   C189 5817   4.676   1.712   0.785 -0.4835  0.1423 -0.2908
   15MOL   C190 5818   4.656   1.786   0.661 -0.3915  0.0681 -0.5560
   15MOL   C191 5819   4.587   1.860   0.372 -0.8338 -0.1292  0.2109
   15MOL   H192 5820   4.405   1.935   0.468  0.4876  1.0841 -4.5628
   15MOL   H193 5821   4.322   1.849   0.670 -0.0847  0.0670 -0.6643
   15MOL   H194 5822   4.356   1.710   0.893  0.9595  2.6311  2.2254
   15MOL   H195 5823   4.705   1.476   0.919 -0.3302  0.0924 -0.1967
   15MOL   H196 5824   4.655   1.446   1.079  0.7430 -0.1008 -0.2037
   15MOL   H197 5825   4.758   1.588   1.038  0.0092  1.0698 -1.1000
   15MOL   H198 5826   4.776   1.686   0.816 -0.9329 -0.0276  1.0447
   15MOL   H199 5827   4.743   1.799   0.599 -0.9876 -3.3993 -2.1982
   15MOL   H200 5828   4.562   1.929   0.291  0.5859 -1.6911 -1.5922
   15MOL   H201 5829   4.695   1.857   0.387 -0.7557  2.1541  0.2270
   15MOL   C202 5830   4.529   1.731   0.319 -0.4314 -0.1343 -0.3206
   15MOL   C203 5831   4.563   1.624   0.412 -0.4767  0.2081  0.1878
   15MOL   C204 5832   4.685   1.562   0.417  0.1662  0.8228 -0.9227
   15MOL   C205 5833   4.708   1.448   0.493 -0.8253  0.0656 -0.4846
   15MOL   C206 5834   4.604   1.390   0.569 -0.9276  1.3510  0.5180
   15MOL   O207 5835   4.621   1.277   0.657 -0.1364 -0.7108  0.1462
   15MOL   C208 5836   4.734   1.189   0.632  0.6144  0.5507 -0.3292
   15MOL   C209 5837   4.482   1.454   0.567 -0.1856  0.0528 -0.2681
   15MOL   C210 5838   4.460   1.570   0.491  0.1149  0.1912 -0.1350
   15MOL   C211 5839   4.566   1.702   0.172 -0.0711 -0.3178 -0.1829
   15MOL   H212 5840   4.424   1.757   0.324 -0.8560 -1.7896 -0.4462
   15MOL   H213 5841   4.770   1.608   0.369  2.5356 -0.0752  2.1840
   15MOL   H214 5842   4.808   1.413   0.513 -1.3193  0.2458  2.4522
   15MOL   H215 5843   4.760   1.181   0.527 -1.3067  2.2338 -0.9753
   15MOL   H216 5844   4.820   1.220   0.691  1.3338 -3.1419  0.6662
   15MOL   H217 5845   4.700   1.088   0.655 -0.1908  0.4067 -2.0805
   15MOL   H218 5846   4.409   1.416   0.637  0.3652  0.0674  0.3241
   15MOL   H219 5847   4.360   1.609   0.489 -0.7969 -2.1117 -2.4726
   15MOL   H220 5848   4.667   1.666   0.155 -0.0695  0.4678 -1.9149
   15MOL   H221 5849   4.555   1.792   0.111 -1.7718  0.2950  0.9888
   15MOL   C222 5850   4.482   1.588   0.102  0.1549  0.0563 -0.6432
   15MOL   C223 5851   4.483   1.590   7.988  0.9748 -0.8733 -0.3533
   15MOL   C224 5852   4.597   1.595   7.911  0.5438  0.0864  0.5433
   15MOL   C225 5853   4.599   1.581   7.772  0.3875  0.2028 -0.0559
   15MOL   C226 5854   4.472   1.546   7.714  0.0769 -0.3914 -0.2158
   15MOL   O227 5855   4.461   1.499   7.582  0.3006 -0.2874 -0.1682
   15MOL   C228 5856   4.573   1.442   7.519  0.1410  0.4237 -0.4819
   15MOL   C229 5857   4.349   1.549   7.783  0.4713  0.3343  0.4309
   15MOL   C230 5858   4.355   1.573   7.923 -0.0302  0.0359  0.3154
   15MOL   C231 5859   4.520   1.445   0.149 -0.1572  0.0475  0.3111
   15MOL   H232 5860   4.379   1.607   0.133  0.9459  1.5889  1.1366
   15MOL   H233 5861   4.691   1.620   7.958  0.0185  2.0514  0.5848
   15MOL   H234 5862   4.692   1.583   7.717 -0.1883 -1.0493 -1.0748
   15MOL   H235 5863   4.637   1.517   7.474 -0.3479  1.1798  0.0651
   15MOL   H236 5864   4.632   1.379   7.586 -1.6894 -1.5274 -0.6307
   15MOL   H237 5865   4.541   1.377   7.437  1.0885 -0.3789 -0.2250
   15MOL   H238 5866   4.263   1.514   7.729 -0.6612 -0.9203  2.9473
   15MOL   H239 5867   4.263   1.576   7.980 -0.9045 -0.0170 -1.0812
   15MOL   H240 5868   4.628   1.433   0.145 -0.3789 -1.4660 -1.9122
   15MOL   H241 5869   4.510   1.439   0.258  4.2114  1.7122  0.9321
   15MOL   C242 5870   4.453   1.327   0.078 -0.1244  0.0481 -0.8497
   15MOL   C243 5871   4.533   1.198   0.118  0.4322  0.3522 -0.1469
   15MOL   C244 5872   4.552   1.154   0.252  0.1032  0.0822  0.5427
   15MOL   C245 5873   4.603   1.028   0.284  0.2226  0.2921 -0.3203
   15MOL   C246 5874   4.638   0.931   0.183 -0.4458  0.2603 -0.9929
   15MOL   O247 5875   4.702   0.813   0.214 -0.3826  0.1394  0.4993
   15MOL   C248 5876   4.761   0.800   0.345  0.1440  0.6853  0.1762
   15MOL   C249 5877   4.617   0.969   0.049  0.5785  0.1198 -0.4222
   15MOL   C250 5878   4.559   1.099   0.018 -0.5044 -0.3527 -0.4462
   15MOL   C251 5879   4.310   1.327   0.129  0.4704  0.2246 -0.3377
   15MOL   H252 5880   4.444   1.342   8.011 -0.8564  0.2669 -0.7618
   15MOL   H253 5881   4.523   1.217   0.335  1.0303  0.8568  0.2847
   15MOL   H254 5882   4.603   1.003   0.390  0.8311  2.8948  0.3167
   15MOL   H255 5883   4.830   0.875   0.385 -0.7438  2.1352 -0.9431
   15MOL   H256 5884   4.679   0.775   0.412  1.2775  1.4354  1.8755
   15MOL   H257 5885   4.823   0.710   0.342  2.3656  2.1861 -0.2590
   15MOL   H258 5886   4.631   0.891   8.015 -1.7504 -0.1535 -0.6183
   15MOL   H259 5887   4.526   1.115   7.956  2.4342  0.1681 -1.3675
   15MOL   H260 5888   4.268   1.419   0.087  0.6156  0.6772  0.5074
   15MOL   H261 5889   4.312   1.328   0.238 -0.5835 -3.8241 -0.2012
   15MOL   C262 5890   4.225   1.205   0.098 -0.1332 -0.0930  0.6462
   15MOL   C263 5891   4.221   1.173   7.987 -0.0805  0.8403 -0.2966
   15MOL   C264 5892   4.175   1.268   7.895  0.2755  0.9412 -0.3781
   15MOL   C265 5893   4.169   1.242   7.764 -0.3714  0.1211  1.0182
   15MOL   C266 5894   4.224   1.122   7.707  0.0088  0.3400 -0.1636
   15MOL   O267 5895   4.212   1.089   7.573 -0.5286 -0.0704 -0.3549
   15MOL   C268 5896   4.178   1.199   7.486  0.4900  1.0327  0.6486
   15MOL   C269 5897   4.269   1.024   7.801  1.3036 -0.5492  0.0741
   15MOL   C270 5898   4.273   1.050   7.940  0.0657 -0.5289 -0.3972
   15MOL   C271 5899   4.082   1.201   0.150 -0.1837 -0.4755  0.4445
   15MOL   H272 5900   4.278   1.118   0.137  0.1581  0.0228  0.5123
   15MOL   H273 5901   4.152   1.369   7.926 -0.4761  1.0967 -1.4070
   15MOL   H274 5902   4.144   1.325   7.701  0.0828  0.7979  1.7221
   15MOL   H275 5903   4.081   1.245   7.507  0.9922  2.5851 -0.3181
   15MOL   H276 5904   4.183   1.162   7.383  1.0127  0.3022  0.9348
   15MOL   H277 5905   4.254   1.277   7.485  0.2735  1.2571  1.4390
   15MOL   H278 5906   4.296   0.924   7.771  0.7047 -0.3679 -1.1177
   15MOL   H279 5907   4.308   0.971   8.004 -1.5937 -1.2751 -0.3865
   15MOL   H280 5908   4.028   1.281   0.100 -0.2362 -0.5853  0.3248
   15MOL   H281 5909   4.026   1.109   0.130  2.1157 -1.5472 -1.2742
   15MOL   C282 5910   4.077   1.223   0.305  0.2366 -0.2401  1.0843
   15MOL   C283 5911   4.174   1.124   0.374  0.4211  0.3865 -0.0882
   15MOL   C284 5912   4.277   1.174   0.450 -0.2570 -0.2486 -0.5632
   15MOL   C285 5913   4.365   1.090   0.517  0.0472  0.2190  0.0047
   15MOL   C286 5914   4.342   0.950   0.521 -0.4714 -0.8396 -0.4430
   15MOL   O287 5915   4.439   0.874   0.584  0.2044  0.0025 -0.2019
   15MOL   C288 5916   4.438   0.734   0.564 -0.3509 -0.6718 -0.0329
   15MOL   C289 5917   4.233   0.897   0.446  0.0448 -0.0371  0.3964
   15MOL   C290 5918   4.156   0.984   0.366  0.6130  0.1047 -0.6205
   15MOL   C291 5919   3.938   1.224   0.360 -0.2165  0.0896 -0.1001
   15MOL   H292 5920   4.118   1.321   0.324 -0.2479  0.6773 -2.1688
   15MOL   H293 5921   4.302   1.279   0.440  0.9655 -0.3065  1.5391
   15MOL   H294 5922   4.447   1.129   0.575 -0.6655 -0.0412  1.1920
   15MOL   H295 5923   4.470   0.710   0.462  0.8669 -0.6053  0.3278
   15MOL   H296 5924   4.505   0.677   0.628 -2.4459 -2.7507  0.3969
   15MOL   H297 5925   4.339   0.697   0.589  0.3652 -0.4986  3.1890
   15MOL   H298 5926   4.208   0.794   0.469  2.0137 -0.4700  0.7479
   15MOL   H299 5927   4.073   0.945   0.309 -0.2424  2.4495 -1.0422
   15MOL   H300 5928   3.876   1.271   0.284  0.5732  0.7907 -0.3106
   15MOL   H301 5929   3.899   1.122   0.363  1.8794 -0.6948  3.2327
   15MOL   C302 5930   3.941   1.292   0.502  0.1516  0.2127 -0.0093
   15MOL   C303 5931   3.959   1.442   0.502 -0.7937  0.2882 -0.7244
   15MOL   C304 5932   3.851   1.526   0.474 -0.2244  0.4535  0.2927
   15MOL   C305 5933   3.862   1.664   0.487 -1.0933  0.5644 -0.0719
   15MOL   C306 5934   3.981   1.726   0.532  0.5120 -0.5548 -0.3235
   15MOL   O307 5935   3.993   1.862   0.564  0.3954  0.1299 -0.5527
   15MOL   C308 5936   3.889   1.938   0.518  0.5113 -0.2780 -0.3452
   15MOL   C309 5937   4.091   1.638   0.564  0.4330 -0.1763  0.1450
   15MOL   C310 5938   4.082   1.498   0.542 -0.1813 -0.5802  0.1901
   15MOL   C311 5939   3.821   1.252   0.585  0.0199 -0.2828 -0.6844
   15MOL   H312 5940   4.016   1.244   0.565 -2.9560 -1.8526  2.2378
   15MOL   H313 5941   3.756   1.486   0.440 -0.0929  1.2310 -1.0246
   15MOL   H314 5942   3.771   1.718   0.470 -0.4337  1.3817 -1.0615
   15MOL   H315 5943   3.904   2.041   0.548  0.2185  0.0253 -1.2202
   15MOL   H316 5944   3.790   1.917   0.558  0.3375 -0.6610 -0.9625
   15MOL   H317 5945   3.885   1.924   0.409 -3.3004 -1.8538 -0.0824
   15MOL   H318 5946   4.175   1.682   0.617  0.5721 -2.9295  2.2909
   15MOL   H319 5947   4.166   1.435   0.566 -0.9493 -2.0571 -0.8647
   15MOL   H320 5948   3.823   1.143   0.575 -0.9352 -0.4697  1.0078
   15MOL   H321 5949   3.726   1.294   0.552 -0.0567  0.9595  1.0505
   15MOL   C322 5950   3.839   1.287   0.741  0.2266  0.1181 -0.1174
   15MOL   C323 5951   3.936   1.198   0.812 -0.7144  0.8881  0.5629
   15MOL   C324 5952   3.920   1.055   0.797  0.4643 -0.2078 -0.4616
   15MOL   C325 5953   4.011   0.962   0.860 -0.5377  0.1044 -0.1167
   15MOL   C326 5954   4.131   1.012   0.915 -0.3595 -0.4893 -0.6877
   15MOL   O327 5955   4.216   0.922   0.966 -0.0918 -0.2147  0.1663
   15MOL   C328 5956   4.355   0.964   0.986  0.0530  0.3698  0.3559
   15MOL   C329 5957   4.148   1.158   0.921  0.0786 -0.0660  0.4160
   15MOL   C330 5958   4.050   1.247   0.883 -0.1982  0.5644  0.1116
   15MOL   C331 5959   3.700   1.291   0.815 -0.5208 -0.3668  0.2386
   15MOL   H332 5960   3.872   1.391   0.737 -0.6876  0.3990 -0.5278
   15MOL   H333 5961   3.839   1.007   0.745  0.6364 -0.6442 -0.3248
   15MOL   H334 5962   4.008   0.854   0.853  0.7906  0.0332  0.3222
   15MOL   H335 5963   4.417   0.878   1.014  0.7318  0.6002 -0.4210
   15MOL   H336 5964   4.367   1.040   1.063  3.0476 -0.9025  1.2419
   15MOL   H337 5965   4.398   1.003   0.894 -0.3915  1.8726  0.7847
   15MOL   H338 5966   4.245   1.201   0.941  0.5043  0.1451 -1.9647
   15MOL   H339 5967   4.064   1.354   0.875  0.5962  0.4288 -0.4366
   15MOL   H340 5968   3.632   1.220   0.769 -1.2982  0.5038  0.0265
   15MOL   H341 5969   3.719   1.269   0.921  1.5717 -0.0173 -0.0396
   15MOL   C342 5970   3.639   1.430   0.834  0.1870  0.7370 -0.2456
   15MOL   C343 5971   3.722   1.518   0.923 -0.2310  0.2325 -0.5289
   15MOL   C344 5972   3.730   1.488   1.062 -0.1675  0.4414  0.0368
   15MOL   C345 5973   3.829   1.540   1.141  0.2670  0.5225  1.0554
   15MOL   C346 5974   3.923   1.621   1.082 -0.1932 -0.3814  0.7374
   15MOL   O347 5975   4.033   1.656   1.160  0.4092 -0.5588 -0.3103
   15MOL   C348 5976   4.153   1.690   1.100  0.4399  0.4348  0.2773
   15MOL   C349 5977   3.912   1.675   0.951 -0.1717  0.2029 -0.4389
   15MOL   C350 5978   3.809   1.620   0.866 -0.1560  0.3653 -0.1950
   15MOL   C351 5979   3.493   1.425   0.888  0.1650 -0.0943  0.1915
   15MOL   H352 5980   3.626   1.469   0.733 -0.7657  1.3867  0.1234
   15MOL   H353 5981   3.673   1.405   1.103  1.9338 -1.5575 -0.9628
   15MOL   H354 5982   3.838   1.506   1.243  0.8678 -1.3232  0.4078
   15MOL   H355 5983   4.220   1.734   1.174  0.0122  0.9316  0.3759
   15MOL   H356 5984   4.201   1.603   1.055 -1.4604 -0.3446 -0.2918
   15MOL   H357 5985   4.152   1.774   1.030 -1.3885 -1.3245 -1.8618
   15MOL   H358 5986   3.980   1.745   0.906 -2.4075  1.2567 -2.3092
   15MOL   H359 5987   3.803   1.647   0.762  0.0765 -1.9492 -0.8337
   15MOL   H360 5988   3.485   1.370   0.982 -1.2921  1.1387  0.8068
   15MOL   H361 5989   3.461   1.526   0.913  1.1910  0.6955 -1.6314
   15MOL   C362 5990   3.382   1.359   0.794  0.3766 -0.3207  0.0605
   15MOL   C363 5991   3.377   1.423   0.662 -0.5299 -0.0250 -0.0286
   15MOL   C364 5992   3.340   1.555   0.644  0.1115  0.2866 -0.4267
   15MOL   C365 5993   3.315   1.611   0.516  0.0179 -0.2205  0.0096
   15MOL   C366 5994   3.356   1.542   0.404 -0.4931  0.0864 -0.0359
   15MOL   O367 5995   3.351   1.596   0.278 -0.2065  0.0576 -0.0741
   15MOL   C368 5996   3.282   1.719   0.246 -0.4200  0.1152 -1.0440
   15MOL   C369 5997   3.406   1.412   0.418 -0.0339  0.2992  0.0005
   15MOL   C370 5998   3.421   1.352   0.547  0.1455  0.2638  0.6602
   15MOL   C371 5999   3.240   1.346   0.855  0.1951 -0.0204  0.1452
   15MOL   H372 6000   3.413   1.256   0.780  0.9234 -0.1389 -0.0529
   15MOL   H373 6001   3.297   1.604   0.730 -4.1521  5.1925 -5.0085
   15MOL   H374 6002   3.273   1.710   0.505  0.3748 -0.1409 -0.6942
   15MOL   H375 6003   3.174   1.704   0.246 -0.5904  1.3350 -1.6244
   15MOL   H376 6004   3.318   1.797   0.313  0.2265 -2.2979  1.5398
   15MOL   H377 6005   3.313   1.752   0.147 -1.1379  0.2630 -1.2231
   15MOL   H378 6006   3.439   1.360   0.330  1.1050  1.2294 -0.1354
   15MOL   H379 6007   3.445   1.247   0.560 -0.3385 -0.3038 -2.6148
   15MOL   H380 6008   3.266   1.301   0.951 -1.1083  3.3523  2.1590
   15MOL   H381 6009   3.204   1.448   0.873 -1.6060 -0.1088 -2.5397
   15MOL   C382 6010   3.134   1.249   0.788  0.0010  0.3377 -0.6152
   15MOL   C383 6011   3.031   1.198   0.894 -0.5372 -0.4366 -0.1859
   15MOL   C384 6012   3.071   1.135   1.020  0.5439 -0.0458  0.3261
   15MOL   C385 6013   2.970   1.081   1.103 -0.5255 -0.1668  0.5943
   15MOL   C386 6014   2.834   1.078   1.066  0.3625  0.0479 -0.3923
   15MOL   O387 6015   2.745   1.015   1.152  0.7968 -0.2831  0.1111
   15MOL   C388 6016   2.605   1.013   1.115 -0.4237  0.6808  0.1906
   15MOL   C389 6017   2.796   1.140   0.947  0.0318  0.4429  0.5439
   15MOL   C390 6018   2.892   1.205   0.861  0.5804  0.6712 -0.3021
   15MOL   C391 6019   3.190   1.122   0.733 -0.1266 -0.1076  0.1104
   15MOL   H392 6020   3.077   1.294   0.707 -0.3169  0.3220 -0.4001
   15MOL   H393 6021   3.168   1.099   1.050  1.4863  1.3582 -0.9447
   15MOL   H394 6022   3.003   1.025   1.190 -1.4349  0.3890  1.3068
   15MOL   H395 6023   2.604   0.953   1.024  0.5737  0.4632  0.3148
   15MOL   H396 6024   2.572   1.117   1.110  0.2992  0.8650 -0.8146
   15MOL   H397 6025   2.554   0.960   1.196 -1.1183 -0.9966 -1.3196
   15MOL   H398 6026   2.694   1.143   0.912 -0.3585 -2.2237  1.3634
   15MOL   H399 6027   2.853   1.243   0.768  0.0363 -0.4182 -0.5268
   15MOL   H400 6028   3.103   1.061   0.710 -1.2063  0.3991  2.7168
   15MOL   H401 6029   3.242   1.069   0.813  0.3370  1.7549  1.0658
   15MOL   H402 6030   3.252   1.125   0.643  0.4758 -0.2969  0.5122
   16MOL     C1 6031   1.633   3.966   4.329  0.2873  0.1974  0.0111
   16MOL     C2 6032   1.538   4.080   4.299  0.2877 -0.1722  0.8549
   16MOL     C3 6033   1.580   4.199   4.243  0.3493  0.4194  0.5506
   16MOL     C4 6034   1.491   4.300   4.204  0.8326 -0.6263  0.1538
   16MOL     C5 6035   1.351   4.278   4.223  0.5634  0.0006  0.1067
   16MOL     O6 6036   1.256   4.374   4.190 -0.2765  0.4830  0.4992
   16MOL     C7 6037   1.297   4.503   4.139  0.2483  0.5228 -0.0451
   16MOL     C8 6038   1.307   4.161   4.287  0.5101 -0.2139 -0.1321
   16MOL     C9 6039   1.404   4.067   4.329  0.1599 -0.3456 -0.0589
   16MOL    C10 6040   1.715   3.990   4.453 -0.1453 -0.0999  0.2767
   16MOL    H11 6041   1.700   3.964   4.243  1.1950  3.6580  0.5949
   16MOL    H12 6042   1.688   4.195   4.234  0.1439 -3.6980 -1.6189
   16MOL    H13 6043   1.527   4.391   4.158  1.4477 -0.1118  1.6385
   16MOL    H14 6044   1.349   4.497   4.043 -0.5839 -2.0295 -0.3948
   16MOL    H15 6045   1.215   4.574   4.137  0.7205  1.0630 -0.0768
   16MOL    H16 6046   1.364   4.561   4.202  1.4402  0.0401 -0.8465
   16MOL    H17 6047   1.201   4.148   4.302  0.2398 -0.1278 -1.7961
   16MOL    H18 6048   1.368   3.980   4.381 -0.5492  1.0109  1.7453
   16MOL    H19 6049   1.778   3.901   4.464  0.7021  0.4775  0.1126
   16MOL    H20 6050   1.780   4.072   4.425 -2.7750  1.7898 -0.4338
   16MOL    H21 6051   1.578   3.872   4.342 -0.2364  0.2719 -1.5209
   16MOL    C22 6052   1.637   4.009   4.584  0.1493 -0.0795 -0.2901
   16MOL    C23 6053   1.514   3.913   4.605  0.1103 -0.4634 -0.0847
   16MOL    C24 6054   1.525   3.771   4.579  0.0473  0.8084  0.0047
   16MOL    C25 6055   1.416   3.692   4.604 -0.9064 -0.1050  0.5379
   16MOL    C26 6056   1.300   3.739   4.663 -0.5431 -0.6216  0.5637
   16MOL    O27 6057   1.198   3.652   4.684  0.4088 -0.1094  0.1838
   16MOL    C28 6058   1.080   3.705   4.750 -0.3897 -0.4786 -0.6270
   16MOL    C29 6059   1.285   3.880   4.697 -0.6575 -0.1454  0.5602
   16MOL    C30 6060   1.396   3.965   4.668 -0.1780  0.4387 -0.0818
   16MOL    C31 6061   1.746   4.007   4.692  0.0502 -0.2880 -0.0554
   16MOL    H32 6062   1.597   4.111   4.582 -0.4038 -0.2972 -0.6063
   16MOL    H33 6063   1.614   3.740   4.528  0.4106  1.1792  0.4035
   16MOL    H34 6064   1.417   3.585   4.589  0.2517 -0.0833  0.3965
   16MOL    H35 6065   1.026   3.778   4.690  0.4594 -0.9049 -1.9354
   16MOL    H36 6066   1.104   3.754   4.844 -0.0991  0.2620 -1.0871
   16MOL    H37 6067   1.012   3.622   4.772 -0.0615 -0.4119  0.6979
   16MOL    H38 6068   1.205   3.917   4.758 -0.4492 -1.6857  1.8143
   16MOL    H39 6069   1.384   4.069   4.694 -2.2142  0.3596 -0.5909
   16MOL    H40 6070   1.800   3.913   4.687  0.9439  0.2787 -1.9190
   16MOL    H41 6071   1.813   4.092   4.677 -0.4516  0.0034 -0.6627
   16MOL    C42 6072   1.700   4.004   4.833  0.3417  0.1392 -0.5845
   16MOL    C43 6073   1.795   4.094   4.921 -1.0360  0.3929 -0.0852
   16MOL    C44 6074   1.753   4.231   4.932 -0.0854  0.2903 -0.5598
   16MOL    C45 6075   1.836   4.314   5.006  0.3414  0.3396  0.7632
   16MOL    C46 6076   1.947   4.271   5.073  0.0441 -0.0560  0.0334
   16MOL    O47 6077   2.016   4.368   5.147  0.5494  0.2198 -0.3822
   16MOL    C48 6078   2.123   4.325   5.236 -0.0934  0.2795 -0.6173
   16MOL    C49 6079   1.993   4.144   5.048 -0.0999  0.6279 -0.4654
   16MOL    C50 6080   1.923   4.056   4.973  0.2971  0.1631  0.4083
   16MOL    C51 6081   1.691   3.865   4.894 -0.4914 -0.3821  0.5305
   16MOL    H52 6082   1.604   4.054   4.843  0.2216 -0.1636 -0.2007
   16MOL    H53 6083   1.660   4.265   4.888 -0.8946  2.1696  2.4215
   16MOL    H54 6084   1.809   4.418   5.013  0.0052  0.3946 -1.0718
   16MOL    H55 6085   2.143   4.407   5.305  1.0888 -0.3371 -0.2183
   16MOL    H56 6086   2.077   4.249   5.299  1.9322  1.0727  1.8926
   16MOL    H57 6087   2.207   4.282   5.182  0.3378  3.1606 -2.3711
   16MOL    H58 6088   2.088   4.112   5.088 -0.6958  2.1600  2.2755
   16MOL    H59 6089   1.961   3.959   4.946  1.8361  0.6798  0.6602
   16MOL    H60 6090   1.786   3.817   4.869 -0.4102  0.4030 -0.7459
   16MOL    H61 6091   1.622   3.814   4.827  0.2538  1.4153 -1.7109
   16MOL    C62 6092   1.672   3.857   5.051  0.3352 -0.3091 -0.2375
   16MOL    C63 6093   1.683   3.715   5.102  0.0965  0.3395  0.4400
   16MOL    C64 6094   1.576   3.625   5.074 -0.8000  0.1356 -0.1446
   16MOL    C65 6095   1.583   3.490   5.126  0.0950  0.1359 -0.2554
   16MOL    C66 6096   1.692   3.444   5.207 -0.0900  0.1164  0.7368
   16MOL    O67 6097   1.704   3.325   5.271 -0.5805  0.0159  0.0022
   16MOL    C68 6098   1.590   3.242   5.288 -0.3361 -0.2894 -0.2984
   16MOL    C69 6099   1.797   3.533   5.228  0.7338  0.0809 -0.0168
   16MOL    C70 6100   1.790   3.667   5.181 -0.1284 -1.1256  0.5136
   16MOL    C71 6101   1.542   3.926   5.098 -1.1331  0.2197 -0.2592
   16MOL    H72 6102   1.757   3.911   5.092 -0.3637  0.3801  0.3207
   16MOL    H73 6103   1.498   3.655   5.006  1.7985  3.0664 -1.9760
   16MOL    H74 6104   1.505   3.417   5.106  1.7510 -1.9240  0.5836
   16MOL    H75 6105   1.624   3.156   5.345  0.1869  0.3862  0.4128
   16MOL    H76 6106   1.546   3.204   5.195  0.5113  0.6411 -1.0878
   16MOL    H77 6107   1.507   3.291   5.339  0.1238 -1.1056  1.2381
   16MOL    H78 6108   1.879   3.502   5.292  1.3740  2.9291  0.6457
   16MOL    H79 6109   1.879   3.724   5.203 -1.5509 -0.4401  5.0522
   16MOL    H80 6110   1.535   4.024   5.051  0.4550 -0.0639 -1.1478
   16MOL    H81 6111   1.461   3.868   5.052  0.7725 -2.0699 -0.8486
   16MOL    C82 6112   1.523   3.922   5.255  0.7119 -0.2261  0.4585
   16MOL    C83 6113   1.623   3.993   5.344 -0.7265  0.0497 -0.1225
   16MOL    C84 6114   1.648   3.945   5.476  0.5474 -0.2396  0.3137
   16MOL    C85 6115   1.740   4.013   5.555 -0.5935  0.0241 -0.1363
   16MOL    C86 6116   1.814   4.127   5.511  0.6185  0.0380  0.1978
   16MOL    O87 6117   1.906   4.186   5.590 -0.1096  0.1016  0.0184
   16MOL    C88 6118   1.929   4.137   5.725  1.0755  0.6542 -0.0492
   16MOL    C89 6119   1.792   4.165   5.379 -0.4183 -0.3951 -0.4686
   16MOL    C90 6120   1.697   4.101   5.296 -0.1377  0.6534  0.0524
   16MOL    C91 6121   1.381   3.956   5.297  0.4157 -0.0811 -0.1052
   16MOL    H92 6122   1.529   3.817   5.284 -0.5289 -0.6449 -0.7504
   16MOL    H93 6123   1.596   3.861   5.520 -2.7047  1.0064 -1.0183
   16MOL    H94 6124   1.747   3.983   5.659 -1.0052 -0.2561 -0.1862
   16MOL    H95 6125   2.019   4.188   5.760  2.1368 -1.3824  0.2606
   16MOL    H96 6126   1.961   4.033   5.729  0.4169  0.3394 -2.2110
   16MOL    H97 6127   1.847   4.157   5.795  2.9550 -0.6341  2.6075
   16MOL    H98 6128   1.851   4.241   5.330  1.6180 -1.7182 -0.1383
   16MOL    H99 6129   1.694   4.125   5.191 -0.5808 -0.4939 -0.2132
   16MOL   H100 6130   1.312   3.891   5.244 -1.0213 -0.6515  2.3855
   16MOL   H101 6131   1.358   3.928   5.400  1.2965  0.9335  0.3813
   16MOL   C102 6132   1.337   4.105   5.267  0.0462 -0.1516  0.4944
   16MOL   C103 6133   1.200   4.107   5.193  0.7956 -0.0318 -0.0967
   16MOL   C104 6134   1.079   4.116   5.258  0.5261 -0.1317  0.2922
   16MOL   C105 6135   0.955   4.103   5.186 -0.1079 -0.0380 -0.1415
   16MOL   C106 6136   0.957   4.096   5.038  0.2028 -0.5800 -0.1679
   16MOL   O107 6137   0.839   4.112   4.973 -0.1166 -0.3805  0.1514
   16MOL   C108 6138   0.848   4.130   4.831  0.7446  0.3721  0.0050
   16MOL   C109 6139   1.090   4.087   4.972  0.1706 -0.1372 -0.4748
   16MOL   C110 6140   1.202   4.090   5.054 -0.0979 -0.0931  0.0184
   16MOL   C111 6141   1.348   4.201   5.387  0.1799 -0.5208  0.2314
   16MOL   H112 6142   1.409   4.143   5.194 -0.5561 -1.1925 -0.6542
   16MOL   H113 6143   1.076   4.119   5.366 -0.6306 -0.0018  0.2626
   16MOL   H114 6144   0.862   4.109   5.240 -0.2410 -1.5870 -0.1620
   16MOL   H115 6145   0.926   4.195   4.791  0.5046 -0.4828 -1.8757
   16MOL   H116 6146   0.866   4.033   4.785  2.2040  0.9238 -0.6141
   16MOL   H117 6147   0.757   4.176   4.794  1.3053  2.1167  0.7147
   16MOL   H118 6148   1.103   4.070   4.867 -0.5321 -0.2035 -0.5519
   16MOL   H119 6149   1.302   4.072   5.017 -0.5062 -2.7145  0.1442
   16MOL   H120 6150   1.284   4.176   5.471  1.6990  0.9172  1.8484
   16MOL   H121 6151   1.448   4.205   5.428  0.6717 -1.8818 -0.8119
   16MOL   C122 6152   1.317   4.349   5.352  0.0984  0.2441 -0.3808
   16MOL   C123 6153   1.424   4.416   5.273  0.2087  0.6681  0.3538
   16MOL   C124 6154   1.552   4.446   5.326  0.6838 -0.8227  0.1984
   16MOL   C125 6155   1.647   4.514   5.245  0.4931  0.1984 -0.1475
   16MOL   C126 6156   1.613   4.552   5.112 -0.0975 -0.0013  0.3133
   16MOL   O127 6157   1.695   4.625   5.025  0.2470 -0.2342  0.2985
   16MOL   C128 6158   1.814   4.690   5.073  0.1589 -0.7425 -0.2265
   16MOL   C129 6159   1.490   4.509   5.067  0.7726 -0.1703 -0.3122
   16MOL   C130 6160   1.399   4.434   5.138  1.0784 -0.3594 -0.0637
   16MOL   C131 6161   1.296   4.429   5.482  0.3481 -0.1017 -0.6703
   16MOL   H132 6162   1.229   4.345   5.288 -0.5512  0.3970  0.4855
   16MOL   H133 6163   1.578   4.415   5.427 -0.3239  0.0085  0.7235
   16MOL   H134 6164   1.734   4.546   5.302  0.4327 -2.1571  1.3298
   16MOL   H135 6165   1.872   4.738   4.995  0.6099  0.0027  0.5558
   16MOL   H136 6166   1.794   4.766   5.149 -1.1672 -0.7143 -0.5861
   16MOL   H137 6167   1.891   4.625   5.115  2.7610  0.5659 -2.8077
   16MOL   H138 6168   1.462   4.536   4.967 -2.8165 -1.8884  0.1636
   16MOL   H139 6169   1.309   4.402   5.087  1.3118  0.5412 -1.0701
   16MOL   H140 6170   1.385   4.407   5.541  0.5580  3.0895  0.2921
   16MOL   H141 6171   1.206   4.392   5.529  0.4405  0.2992 -0.1691
   16MOL   C142 6172   1.297   4.585   5.473  0.7723 -0.1728  0.1576
   16MOL   C143 6173   1.183   4.654   5.391 -0.8521  0.1276 -0.1801
   16MOL   C144 6174   1.055   4.666   5.452 -0.4842  0.4630  0.3782
   16MOL   C145 6175   0.954   4.716   5.369  0.6275  0.1013 -0.1330
   16MOL   C146 6176   0.977   4.755   5.232  0.4776  0.0048  0.0422
   16MOL   O147 6177   0.864   4.801   5.173 -0.5391 -0.4473  0.2123
   16MOL   C148 6178   0.896   4.882   5.056  0.3805 -0.0242 -0.2123
   16MOL   C149 6179   1.106   4.734   5.180  0.7441 -0.6686  0.1629
   16MOL   C150 6180   1.211   4.689   5.258  0.0542  0.5093 -1.0988
   16MOL   C151 6181   1.307   4.638   5.616 -0.1204  0.0925  0.3166
   16MOL   H152 6182   1.387   4.618   5.421 -0.4199  0.3925 -1.5805
   16MOL   H153 6183   1.044   4.646   5.558  4.7146  1.4790  1.2034
   16MOL   H154 6184   0.857   4.728   5.414  0.8773  0.6950  0.2490
   16MOL   H155 6185   0.950   4.833   4.976  2.1820  1.2206  0.2134
   16MOL   H156 6186   0.802   4.919   5.015 -0.4703 -1.7070  0.1728
   16MOL   H157 6187   0.960   4.966   5.085  0.8696 -0.0625 -1.1755
   16MOL   H158 6188   1.123   4.761   5.077 -0.3171 -1.5176 -0.2440
   16MOL   H159 6189   1.311   4.671   5.222 -0.1266 -1.6741 -0.5522
   16MOL   H160 6190   1.391   4.582   5.657 -0.1758  1.6180  2.6549
   16MOL   H161 6191   1.222   4.596   5.670 -1.7869 -1.1121 -3.1347
   16MOL   C162 6192   1.332   4.790   5.637 -0.5472  0.5483 -0.6473
   16MOL   C163 6193   1.452   4.833   5.555  0.4633 -0.2942  0.6919
   16MOL   C164 6194   1.437   4.929   5.458  0.1230  0.0431 -0.0505
   16MOL   C165 6195   1.544   4.983   5.382  0.2408  0.2148  0.2841
   16MOL   C166 6196   1.667   4.930   5.405 -0.6271  0.5967  0.5641
   16MOL   O167 6197   1.781   4.967   5.340 -0.2315  0.1864  0.6179
   16MOL   C168 6198   1.773   5.086   5.257  0.2801  0.5095 -0.5471
   16MOL   C169 6199   1.683   4.832   5.510 -0.0364  0.8581 -0.2519
   16MOL   C170 6200   1.576   4.784   5.584  0.1644 -0.6538 -0.1633
   16MOL   C171 6201   1.356   4.832   5.785 -0.0658  0.3818  0.2798
   16MOL   H172 6202   1.245   4.849   5.608 -0.0660  1.7295  0.2547
   16MOL   H173 6203   1.337   4.971   5.450  0.5123  1.0011  0.0782
   16MOL   H174 6204   1.527   5.067   5.317 -1.9298  0.9456  1.7480
   16MOL   H175 6205   1.874   5.114   5.228  1.0350 -0.6199  0.9705
   16MOL   H176 6206   1.737   5.174   5.310  1.7963  0.7359  0.1125
   16MOL   H177 6207   1.708   5.076   5.170  0.7208 -2.4726 -0.5821
   16MOL   H178 6208   1.782   4.798   5.539  0.7754  2.3897 -1.1387
   16MOL   H179 6209   1.590   4.713   5.663 -0.2260 -1.4727 -0.8227
   16MOL   H180 6210   1.443   4.781   5.825  1.2928  2.2835 -0.1918
   16MOL   H181 6211   1.269   4.782   5.828  1.0051 -2.4169 -0.6729
   16MOL   C182 6212   1.368   4.985   5.794  0.8720  0.3742 -0.9382
   16MOL   C183 6213   1.503   5.034   5.842 -0.6450 -0.1925 -1.1309
   16MOL   C184 6214   1.551   4.988   5.964  0.1756 -0.3094 -0.5117
   16MOL   C185 6215   1.675   5.039   6.012 -0.1878  0.4811  0.1620
   16MOL   C186 6216   1.744   5.140   5.937 -0.4780 -0.1845 -0.5559
   16MOL   O187 6217   1.870   5.181   5.966 -0.2617 -0.3744  0.0924
   16MOL   C188 6218   1.927   5.142   6.090  0.1895 -0.1343  0.4648
   16MOL   C189 6219   1.695   5.175   5.814 -0.7284  0.1012  0.4908
   16MOL   C190 6220   1.573   5.131   5.770  0.1882  0.4420 -1.0639
   16MOL   C191 6221   1.263   5.050   5.888 -0.3424  0.3091  0.1859
   16MOL   H192 6222   1.354   5.030   5.696 -0.0170 -1.2091 -1.5575
   16MOL   H193 6223   1.501   4.906   6.013 -2.1633  1.1811 -0.3108
   16MOL   H194 6224   1.698   5.007   6.113 -0.2950 -0.1968 -0.0269
   16MOL   H195 6225   2.034   5.141   6.067 -0.3571  0.2301 -2.2014
   16MOL   H196 6226   1.922   5.038   6.123 -0.6299  0.3671  1.9660
   16MOL   H197 6227   1.912   5.215   6.169 -2.6217  1.4139 -1.4577
   16MOL   H198 6228   1.738   5.252   5.752 -2.3656  0.6627  0.0215
   16MOL   H199 6229   1.535   5.171   5.677  0.5384  2.8746 -0.1976
   16MOL   H200 6230   1.273   4.996   5.982 -1.1281 -1.9843 -1.0042
   16MOL   H201 6231   1.299   5.152   5.903  1.0536 -0.0385 -0.7561
   16MOL   C202 6232   1.121   5.063   5.827  0.1665  0.8852  0.4328
   16MOL   C203 6233   1.112   5.115   5.686  1.0710  0.6844 -1.5757
   16MOL   C204 6234   1.029   5.051   5.598 -0.4876 -0.5345  0.1144
   16MOL   C205 6235   1.013   5.100   5.463 -0.1671  0.0433 -1.3851
   16MOL   C206 6236   1.074   5.218   5.424  0.1957 -0.7286  0.8192
   16MOL   O207 6237   1.056   5.279   5.303  0.5299  0.8927 -0.0224
   16MOL   C208 6238   0.933   5.252   5.235  0.1941 -0.8008  0.2582
   16MOL   C209 6239   1.161   5.283   5.505  0.8365 -0.1168 -0.3683
   16MOL   C210 6240   1.183   5.231   5.640 -0.1075  0.0203  0.1591
   16MOL   C211 6241   1.041   5.145   5.924  0.2678  0.2571 -1.3152
   16MOL   H212 6242   1.082   4.962   5.822 -1.9448  1.6233  1.3375
   16MOL   H213 6243   0.983   4.954   5.613  1.3685 -1.7573 -1.6327
   16MOL   H214 6244   0.966   5.032   5.394  0.0173  0.0079 -1.4745
   16MOL   H215 6245   0.927   5.296   5.135 -0.7791 -3.0873 -0.7497
   16MOL   H216 6246   0.914   5.147   5.211 -1.0654 -0.2832 -1.1243
   16MOL   H217 6247   0.843   5.279   5.290  0.4859 -1.5997  1.1360
   16MOL   H218 6248   1.204   5.372   5.462  1.8086 -0.2693  0.2743
   16MOL   H219 6249   1.250   5.288   5.703 -0.6551  3.5236 -2.2767
   16MOL   H220 6250   1.098   5.236   5.943 -1.2352  1.6785 -3.3896
   16MOL   H221 6251   1.022   5.088   6.016  0.2799 -1.7033 -2.5075
   16MOL   C222 6252   0.889   5.186   5.893  0.0461  0.5081  0.6178
   16MOL   C223 6253   0.801   5.215   6.018 -0.2282 -0.0854  0.4242
   16MOL   C224 6254   0.791   5.345   6.065 -0.6593 -0.3818 -0.4655
   16MOL   C225 6255   0.725   5.373   6.189 -0.6588  0.4546 -0.0322
   16MOL   C226 6256   0.661   5.273   6.261 -0.4756  0.4008  0.0691
   16MOL   O227 6257   0.599   5.294   6.378 -0.0403 -0.1899 -0.7133
   16MOL   C228 6258   0.588   5.431   6.423  0.2562  0.7825  0.1013
   16MOL   C229 6259   0.670   5.139   6.212  0.2613 -0.4958  0.2696
   16MOL   C230 6260   0.736   5.117   6.093  0.4706 -0.3424  0.7345
   16MOL   C231 6261   0.876   5.308   5.791  0.1430 -0.6953 -0.0128
   16MOL   H232 6262   0.840   5.098   5.852  0.1501 -0.1467  1.8826
   16MOL   H233 6263   0.840   5.424   6.010 -0.6336 -0.3575 -0.4059
   16MOL   H234 6264   0.726   5.474   6.226  1.0667 -0.0791  1.4671
   16MOL   H235 6265   0.545   5.501   6.352 -0.0129  2.0359  1.4704
   16MOL   H236 6266   0.532   5.445   6.515  1.3936  0.7792  0.8092
   16MOL   H237 6267   0.692   5.461   6.440  0.0634  1.4600  0.0860
   16MOL   H238 6268   0.626   5.050   6.254 -0.8525  0.3192  0.8783
   16MOL   H239 6269   0.740   5.016   6.055  0.1389 -0.3231  0.6459
   16MOL   H240 6270   0.932   5.389   5.838 -1.0595 -1.5440  2.9500
   16MOL   H241 6271   0.924   5.285   5.695  0.0468 -0.6474 -0.0726
   16MOL   C242 6272   0.734   5.347   5.731 -0.8040  0.5290 -0.5652
   16MOL   C243 6273   0.732   5.496   5.675 -0.4619  0.0164  0.3939
   16MOL   C244 6274   0.832   5.554   5.598  0.2875 -0.3205 -0.9190
   16MOL   C245 6275   0.835   5.683   5.556 -0.3810  0.1409 -0.0830
   16MOL   C246 6276   0.721   5.767   5.577 -0.0305  0.4016 -0.2116
   16MOL   O247 6277   0.727   5.892   5.523 -0.6513  0.1615 -0.3817
   16MOL   C248 6278   0.624   5.979   5.535  0.3566  0.1637 -0.3036
   16MOL   C249 6279   0.609   5.711   5.649  0.1327 -0.4908 -0.1027
   16MOL   C250 6280   0.614   5.577   5.692  0.0066 -0.3876 -0.1408
   16MOL   C251 6281   0.672   5.257   5.618 -0.5871 -0.1439  0.0457
   16MOL   H252 6282   0.670   5.352   5.819 -2.1309  1.0788 -1.5395
   16MOL   H253 6283   0.921   5.495   5.583 -0.9896 -2.0323 -1.9581
   16MOL   H254 6284   0.914   5.726   5.497 -0.8675  2.1064  0.6450
   16MOL   H255 6285   0.533   5.925   5.509  1.1623 -1.7931  0.8033
   16MOL   H256 6286   0.622   6.006   5.641 -0.4021  2.6659 -0.9192
   16MOL   H257 6287   0.633   6.071   5.478 -0.3273  0.6930  0.4346
   16MOL   H258 6288   0.528   5.780   5.668 -0.8403 -1.2336 -1.4236
   16MOL   H259 6289   0.532   5.539   5.750  1.4836 -0.9692  1.6226
   16MOL   H260 6290   0.744   5.264   5.537 -0.5578 -0.2200  0.0651
   16MOL   H261 6291   0.579   5.312   5.604  1.5504  3.3656 -0.8703
   16MOL   C262 6292   0.646   5.105   5.639 -0.1227  0.2926  0.3218
   16MOL   C263 6293   0.586   5.052   5.509 -0.6374  0.5164  0.5380
   16MOL   C264 6294   0.462   5.101   5.466 -0.3452  0.3259  0.2398
   16MOL   C265 6295   0.409   5.050   5.346 -0.5039  0.2196  0.3895
   16MOL   C266 6296   0.476   4.948   5.270 -0.7283  0.1799 -0.2044
   16MOL   O267 6297   0.437   4.908   5.143 -0.2216  0.0393  0.6024
   16MOL   C268 6298   0.310   4.959   5.095 -0.8370 -0.1250 -0.0222
   16MOL   C269 6299   0.591   4.894   5.327 -0.0729 -0.2976  0.1322
   16MOL   C270 6300   0.653   4.938   5.447 -0.5109 -0.1844 -0.3215
   16MOL   C271 6301   0.569   5.069   5.773 -0.1387 -0.4220  0.5147
   16MOL   H272 6302   0.744   5.057   5.641  0.0619  0.6208 -0.7883
   16MOL   H273 6303   0.400   5.170   5.523  0.1810  1.8309 -0.9757
   16MOL   H274 6304   0.313   5.087   5.313  0.6456  4.2112  1.2906
   16MOL   H275 6305   0.236   4.917   5.164  0.1117  0.4294  1.3673
   16MOL   H276 6306   0.286   4.910   5.001 -3.3970 -1.8252  1.4206
   16MOL   H277 6307   0.305   5.068   5.088 -0.7990 -0.1685 -0.7339
   16MOL   H278 6308   0.649   4.824   5.268  1.0890  3.2086 -3.1673
   16MOL   H279 6309   0.741   4.893   5.489 -1.1637 -1.3163 -0.1420
   16MOL   H280 6310   0.626   5.105   5.858  0.3916 -1.4074  0.5780
   16MOL   H281 6311   0.481   5.132   5.757 -0.6765 -1.2146  0.3121
   16MOL   C282 6312   0.531   4.919   5.785 -0.0627  0.0383  0.0652
   16MOL   C283 6313   0.405   4.909   5.870 -0.9090  0.6328 -0.4379
   16MOL   C284 6314   0.402   4.963   6.002 -0.0504 -0.0356  0.0556
   16MOL   C285 6315   0.297   4.941   6.089 -0.3742 -1.0359  0.3367
   16MOL   C286 6316   0.181   4.876   6.040 -0.4435 -0.1729 -0.6281
   16MOL   O287 6317   0.069   4.853   6.121  0.6748 -0.1182  0.3071
   16MOL   C288 6318   0.063   4.917   6.247 -0.2143  0.5117  0.0903
   16MOL   C289 6319   0.179   4.825   5.910  0.0844  0.0365  0.3329
   16MOL   C290 6320   0.290   4.840   5.830  0.1266 -0.1847  0.4207
   16MOL   C291 6321   0.641   4.827   5.844  0.3906 -0.5013 -0.6250
   16MOL   H292 6322   0.498   4.882   5.688  0.3027  1.1079 -0.4728
   16MOL   H293 6323   0.486   5.013   6.048 -1.1707  0.9235  1.1001
   16MOL   H294 6324   0.311   4.992   6.183 -2.3402  1.4299 -0.6578
   16MOL   H295 6325   0.109   5.013   6.223 -0.5539  0.7698  0.4736
   16MOL   H296 6326   8.005   4.940   6.290 -2.6494 -4.8629 -2.1751
   16MOL   H297 6327   0.126   4.863   6.319 -0.7537 -2.0393 -1.2893
   16MOL   H298 6328   0.092   4.779   5.867  0.1087 -0.5536  0.8961
   16MOL   H299 6329   0.286   4.812   5.726  0.3904  0.4494  0.2318
   16MOL   H300 6330   0.736   4.880   5.833  0.2979 -0.1814  0.0947
   16MOL   H301 6331   0.625   4.821   5.951 -0.0197 -1.5093 -0.7332
   16MOL   C302 6332   0.662   4.685   5.776 -0.4540  0.0690  0.0577
   16MOL   C303 6333   0.752   4.601   5.873 -0.0293  0.4393  0.2505
   16MOL   C304 6334   0.887   4.577   5.834  0.5014  0.2124  0.2773
   16MOL   C305 6335   0.976   4.505   5.920 -0.2470  0.6686  0.1603
   16MOL   C306 6336   0.929   4.456   6.042 -0.5227 -0.6418  0.1196
   16MOL   O307 6337   1.015   4.385   6.118  0.3583  0.0993  0.0262
   16MOL   C308 6338   0.962   4.307   6.224  0.1742  0.1942  0.7899
   16MOL   C309 6339   0.797   4.484   6.082 -0.0055  0.9725  0.4424
   16MOL   C310 6340   0.708   4.557   6.002 -0.2942 -0.0006  0.6963
   16MOL   C311 6341   0.541   4.617   5.728 -0.3095 -0.0283  0.0672
   16MOL   H312 6342   0.719   4.702   5.684  1.3049 -3.3282  0.4670
   16MOL   H313 6343   0.924   4.610   5.738  0.2345  1.1442  0.4896
   16MOL   H314 6344   1.079   4.479   5.898 -1.2622 -2.2452 -1.3917
   16MOL   H315 6345   0.878   4.248   6.187  1.1002 -0.1704 -0.8177
   16MOL   H316 6346   0.916   4.376   6.294 -2.6792  1.3005 -2.0427
   16MOL   H317 6347   1.032   4.242   6.276 -0.2397 -1.2573 -0.4149
   16MOL   H318 6348   0.766   4.458   6.182  1.5779 -0.1288  0.6675
   16MOL   H319 6349   0.606   4.579   6.029 -0.5849  0.1491 -0.5166
   16MOL   H320 6350   0.518   4.670   5.635 -0.9138  1.1877  0.8955
   16MOL   H321 6351   0.455   4.631   5.794  0.3606 -0.2336  0.9863
   16MOL   C322 6352   0.549   4.464   5.695  0.0153  0.3770 -0.2285
   16MOL   C323 6353   0.627   4.447   5.562 -0.2065  0.4665  1.0325
   16MOL   C324 6354   0.561   4.482   5.441  0.2798  0.0704 -0.3884
   16MOL   C325 6355   0.624   4.472   5.320  0.3709  0.7885 -0.3623
   16MOL   C326 6356   0.753   4.424   5.313 -0.2211 -0.4588  0.0726
   16MOL   O327 6357   0.806   4.398   5.187 -0.4520  0.3945  0.4997
   16MOL   C328 6358   0.745   4.450   5.068 -0.2584  0.2417  0.1636
   16MOL   C329 6359   0.823   4.386   5.429  0.2133 -0.1732 -0.3718
   16MOL   C330 6360   0.756   4.393   5.554  0.1697 -0.0136 -0.1746
   16MOL   C331 6361   0.410   4.407   5.695  1.3027 -0.3182  0.7287
   16MOL   H332 6362   0.610   4.404   5.763  0.5331 -1.0420 -1.9063
   16MOL   H333 6363   0.461   4.522   5.449 -0.8611 -2.7668  0.2478
   16MOL   H334 6364   0.565   4.500   5.233  1.6417 -2.7439 -2.4615
   16MOL   H335 6365   0.802   4.432   4.977 -0.5887 -0.4316  0.0868
   16MOL   H336 6366   0.753   4.559   5.062  1.6338 -0.0080 -2.2683
   16MOL   H337 6367   0.641   4.422   5.049 -0.6349  0.4921  1.7373
   16MOL   H338 6368   0.924   4.347   5.427  0.0580 -0.5610 -3.7539
   16MOL   H339 6369   0.804   4.354   5.642 -3.4592 -1.1269  1.4330
   16MOL   H340 6370   0.346   4.469   5.633  1.9227  1.6087  1.9811
   16MOL   H341 6371   0.410   4.316   5.635 -1.4081  0.2590 -0.2220
   16MOL   C342 6372   0.347   4.373   5.832  0.0886  0.3447  0.2518
   16MOL   C343 6373   0.415   4.243   5.880 -0.6309 -0.3326  0.3515
   16MOL   C344 6374   0.524   4.248   5.966 -0.3773  0.2618 -0.1524
   16MOL   C345 6375   0.579   4.124   6.023  0.3167 -0.0277 -0.2980
   16MOL   C346 6376   0.506   4.008   5.998  0.2935 -0.0611 -0.4366
   16MOL   O347 6377   0.544   3.885   6.040  0.0077 -0.1948  0.1617
   16MOL   C348 6378   0.675   3.864   6.100  0.4604 -0.3820 -0.5326
   16MOL   C349 6379   0.385   4.004   5.920 -0.7045  0.8601 -0.8341
   16MOL   C350 6380   0.347   4.122   5.862 -0.1288  0.4586 -0.0735
   16MOL   C351 6381   0.194   4.386   5.826 -0.1127  0.1607 -1.0094
   16MOL   H352 6382   0.362   4.454   5.903  0.0872 -0.2823  0.9666
   16MOL   H353 6383   0.574   4.343   5.981 -0.2985 -0.0556  1.7288
   16MOL   H354 6384   0.672   4.141   6.074 -0.0319  0.3616  0.2171
   16MOL   H355 6385   0.705   3.759   6.095  6.3141  1.1361 -1.0796
   16MOL   H356 6386   0.752   3.910   6.038  0.6636 -1.6319 -1.2349
   16MOL   H357 6387   0.678   3.906   6.200 -3.2908  0.7078 -0.7820
   16MOL   H358 6388   0.332   3.912   5.906  0.4764  0.0452 -0.0132
   16MOL   H359 6389   0.250   4.123   5.815 -0.0382 -0.0906 -0.2750
   16MOL   H360 6390   0.174   4.478   5.772 -0.7259  0.7446  0.1952
   16MOL   H361 6391   0.164   4.312   5.751 -0.5823  0.7004 -1.3526
   16MOL   C362 6392   0.116   4.382   5.961  0.3543  0.7045 -0.0301
   16MOL   C363 6393   8.003   4.373   5.940 -0.3337  0.0927 -0.6013
   16MOL   C364 6394   7.936   4.396   5.818 -1.2432 -0.4226 -0.4006
   16MOL   C365 6395   7.796   4.404   5.812  0.4226  0.5007  0.2980
   16MOL   C366 6396   7.720   4.371   5.924  0.3315 -0.5820 -0.5077
   16MOL   O367 6397   7.588   4.382   5.903  0.0881 -0.1361 -0.0485
   16MOL   C368 6398   7.504   4.355   6.014  0.0225 -0.4208  0.2589
   16MOL   C369 6399   7.784   4.326   6.043 -0.5884  0.3539  0.7190
   16MOL   C370 6400   7.923   4.323   6.047 -0.8698  0.6879 -0.3908
   16MOL   C371 6401   0.154   4.501   6.058  0.2204 -0.3916  0.3754
   16MOL   H372 6402   0.134   4.287   6.012 -0.5864  0.2886 -0.4631
   16MOL   H373 6403   7.988   4.427   5.728 -0.3455 -0.6647  0.0263
   16MOL   H374 6404   7.748   4.435   5.721  0.0880 -0.7260  0.0494
   16MOL   H375 6405   7.520   4.423   6.098  2.9506 -1.3221  0.4729
   16MOL   H376 6406   7.404   4.383   5.981  0.2586  0.5678  0.3414
   16MOL   H377 6407   7.501   4.249   6.037 -0.2454 -0.4195  0.2304
   16MOL   H378 6408   7.731   4.283   6.127  2.9328 -2.3794  1.6399
   16MOL   H379 6409   7.968   4.288   6.139  0.6093 -0.1050 -1.3929
   16MOL   H380 6410   0.194   4.583   5.999 -2.4045  0.4259 -0.3241
   16MOL   H381 6411   0.069   4.543   6.112  1.1298  0.6919  1.0090
   16MOL   C382 6412   0.255   4.469   6.169 -0.1706 -0.4745 -0.0498
   16MOL   C383 6413   0.192   4.385   6.279 -0.3913  1.0720 -0.3719
   16MOL   C384 6414   0.223   4.251   6.303  0.5453 -0.5896 -0.2564
   16MOL   C385 6415   0.167   4.181   6.410  0.3100 -0.5887 -0.4808
   16MOL   C386 6416   0.065   4.238   6.490  0.8077 -0.5949  0.4299
   16MOL   O387 6417   8.039   4.171   6.591  0.2367  0.3150 -0.1752
   16MOL   C388 6418   0.046   4.046   6.633 -0.9914 -0.3612  0.1699
   16MOL   C389 6419   0.030   4.370   6.465  0.1406  0.1004  0.6962
   16MOL   C390 6420   0.090   4.437   6.360 -0.1017  0.6985  0.0463
   16MOL   C391 6421   0.334   4.597   6.220 -0.1072  0.6672 -0.0844
   16MOL   H392 6422   0.323   4.395   6.128 -4.0648 -4.4595  0.2781
   16MOL   H393 6423   0.311   4.208   6.259  0.6653 -1.9419  1.2766
   16MOL   H394 6424   0.201   4.081   6.428  1.7449 -0.0421 -0.1133
   16MOL   H395 6425   0.022   4.010   6.733  0.7385 -3.8732 -0.6056
   16MOL   H396 6426   0.154   4.061   6.643 -0.8274 -0.4631 -1.2733
   16MOL   H397 6427   0.027   3.968   6.560 -0.4973 -0.9054  0.6230
   16MOL   H398 6428   7.997   4.417   6.530  0.3113 -0.3086  1.1824
   16MOL   H399 6429   0.071   4.542   6.348  0.2627  0.6259 -1.2483
   16MOL   H400 6430   0.251   4.655   6.260  0.0308  0.8393 -0.0458
   16MOL   H401 6431   0.372   4.659   6.139 -1.6919  1.2643 -0.4018
   16MOL   H402 6432   0.413   4.584   6.294  0.1783 -1.5540 -0.7303
   17MOL     C1 6433   1.413   5.475   2.160 -0.1861  0.5516  0.6186
   17MOL     C2 6434   1.307   5.540   2.066 -0.7910  1.1856 -0.1199
   17MOL     C3 6435   1.307   5.681   2.045 -0.6188 -0.6823 -0.0885
   17MOL     C4 6436   1.215   5.742   1.968 -0.2444  0.1627 -0.3591
   17MOL     C5 6437   1.117   5.668   1.898  0.4846  0.4889 -0.0565
   17MOL     O6 6438   1.016   5.720   1.818 -0.0206 -0.0290 -0.3921
   17MOL     C7 6439   1.013   5.863   1.816 -0.5608 -0.4295  0.4864
   17MOL     C8 6440   1.116   5.529   1.917 -0.6497 -0.4198 -0.0332
   17MOL     C9 6441   1.214   5.463   1.997 -0.5294 -1.0874  0.2767
   17MOL    C10 6442   1.500   5.379   2.076  0.8091  0.0678 -0.2062
   17MOL    H11 6443   1.354   5.423   2.236 -1.1181  1.4654  0.5316
   17MOL    H12 6444   1.374   5.749   2.096 -2.5250  1.3359 -0.1790
   17MOL    H13 6445   1.227   5.848   1.955  0.6079 -0.1149 -1.9456
   17MOL    H14 6446   1.113   5.898   1.790 -0.3517 -2.0456 -0.9363
   17MOL    H15 6447   0.943   5.906   1.745 -0.3939 -0.3196  0.3869
   17MOL    H16 6448   0.984   5.895   1.916  0.1228 -2.1200  1.2440
   17MOL    H17 6449   1.041   5.470   1.868  0.1353 -1.6615  0.2327
   17MOL    H18 6450   1.216   5.357   2.018  4.6120 -1.0748  0.4022
   17MOL    H19 6451   1.451   5.285   2.051  1.2825 -1.3670  3.9418
   17MOL    H20 6452   1.525   5.425   1.980 -1.2088 -0.1698 -0.8673
   17MOL    H21 6453   1.469   5.559   2.200  0.0117  0.6074  0.2257
   17MOL    C22 6454   1.632   5.358   2.150  0.2156  0.1415  0.4066
   17MOL    C23 6455   1.598   5.299   2.290 -0.3953 -0.4979  0.3657
   17MOL    C24 6456   1.534   5.174   2.310 -0.4490  0.3604  1.0200
   17MOL    C25 6457   1.520   5.123   2.436  0.3170 -0.2813 -0.3494
   17MOL    C26 6458   1.573   5.187   2.551  0.8901  0.2429  0.9753
   17MOL    O27 6459   1.569   5.115   2.666 -0.3355 -0.0396 -0.4081
   17MOL    C28 6460   1.557   5.190   2.787 -1.0768 -0.3869  0.2887
   17MOL    C29 6461   1.637   5.313   2.535  1.0837 -0.2831  0.7490
   17MOL    C30 6462   1.638   5.372   2.405  0.7796 -0.0170 -0.5408
   17MOL    C31 6463   1.726   5.271   2.069 -0.3464 -0.4557 -0.8759
   17MOL    H32 6464   1.681   5.455   2.163  0.3850  0.3716 -1.8323
   17MOL    H33 6465   1.499   5.109   2.230 -0.2211 -0.1668  1.3493
   17MOL    H34 6466   1.456   5.037   2.448  0.1838  0.2056  2.6276
   17MOL    H35 6467   1.658   5.222   2.811 -1.9426  3.2407 -0.5760
   17MOL    H36 6468   1.511   5.132   2.866 -0.5747 -0.7616  0.3085
   17MOL    H37 6469   1.504   5.285   2.779 -1.4097 -0.5655  0.3536
   17MOL    H38 6470   1.694   5.363   2.612  0.8652  0.8049  0.2166
   17MOL    H39 6471   1.698   5.461   2.405  1.0796 -0.1907  1.5648
   17MOL    H40 6472   1.683   5.172   2.054 -0.4878 -0.4042 -0.8132
   17MOL    H41 6473   1.726   5.318   1.970  1.3564  0.1338 -0.6100
   17MOL    C42 6474   1.877   5.255   2.108 -0.2223 -1.1040  0.2313
   17MOL    C43 6475   1.966   5.381   2.115 -0.1894 -0.0805 -0.2625
   17MOL    C44 6476   2.077   5.384   2.208  0.4477 -0.6389 -0.0684
   17MOL    C45 6477   2.162   5.499   2.215 -0.0552 -0.5809 -0.2035
   17MOL    C46 6478   2.143   5.606   2.132  0.7170 -0.2723  0.4148
   17MOL    O47 6479   2.231   5.712   2.130  0.3205 -0.4646 -0.1380
   17MOL    C48 6480   2.366   5.696   2.174 -0.8826 -0.1856  0.3203
   17MOL    C49 6481   2.028   5.609   2.048 -0.2877 -0.5274  0.0847
   17MOL    C50 6482   1.943   5.497   2.035  0.0946  0.2221 -0.1468
   17MOL    C51 6483   1.961   5.152   2.019 -0.2771 -0.3438 -0.1467
   17MOL    H52 6484   1.878   5.219   2.211  4.3475 -0.5288  0.4758
   17MOL    H53 6485   2.091   5.301   2.275 -0.9870  0.3648  1.5188
   17MOL    H54 6486   2.241   5.512   2.287 -2.1492 -2.0428  2.4645
   17MOL    H55 6487   2.415   5.613   2.125  1.1573  0.4011  1.3148
   17MOL    H56 6488   2.412   5.787   2.135 -0.3698 -1.3645 -1.8415
   17MOL    H57 6489   2.373   5.686   2.283 -0.1008 -2.7041  0.0456
   17MOL    H58 6490   2.000   5.695   1.989  0.5978 -0.7682 -0.7057
   17MOL    H59 6491   1.853   5.505   1.977 -0.2739  2.0298  0.6393
   17MOL    H60 6492   2.067   5.167   2.041 -0.4581  1.1561 -0.2238
   17MOL    H61 6493   1.951   5.169   1.912 -2.7187 -0.7408 -0.0147
   17MOL    C62 6494   1.925   5.005   2.054 -0.1506 -0.5519 -0.4949
   17MOL    C63 6495   1.981   4.974   2.191  0.2537  0.0200 -0.1286
   17MOL    C64 6496   1.884   4.959   2.295 -0.5433 -0.0466 -0.7364
   17MOL    C65 6497   1.928   4.935   2.427  0.9411  0.2291  0.0109
   17MOL    C66 6498   2.064   4.929   2.456 -0.2792  0.7803  0.2965
   17MOL    O67 6499   2.100   4.896   2.584  0.1748 -0.3584  0.4419
   17MOL    C68 6500   2.239   4.919   2.628  0.4141  0.1930  0.3471
   17MOL    C69 6501   2.158   4.944   2.351 -0.3629 -0.0367 -0.1352
   17MOL    C70 6502   2.115   4.975   2.221  0.1995  0.1765 -0.2287
   17MOL    C71 6503   1.968   4.903   1.946 -0.8400 -0.7456  0.2017
   17MOL    H72 6504   1.816   4.999   2.056 -0.1543 -0.2594  0.0654
   17MOL    H73 6505   1.778   4.966   2.275 -1.4457 -1.6130  3.0409
   17MOL    H74 6506   1.852   4.927   2.503  0.0891  0.7337 -0.7808
   17MOL    H75 6507   2.308   4.840   2.600  0.4391 -0.3840  1.9771
   17MOL    H76 6508   2.241   4.910   2.737 -0.8399 -0.9122  0.2810
   17MOL    H77 6509   2.279   5.013   2.588  0.2538 -0.4023 -1.2491
   17MOL    H78 6510   2.265   4.948   2.364 -0.2466 -1.8375 -0.3499
   17MOL    H79 6511   2.186   4.993   2.141 -0.1254 -1.5321 -0.9083
   17MOL    H80 6512   2.077   4.912   1.937 -0.7900 -0.1440  1.2497
   17MOL    H81 6513   1.951   4.811   2.003 -0.0573 -0.1712  1.4095
   17MOL    C82 6514   1.885   4.901   1.817 -0.0252 -0.3093  0.5868
   17MOL    C83 6515   1.946   4.982   1.705 -0.4926  0.3860  0.3364
   17MOL    C84 6516   2.075   4.950   1.646 -0.0244  0.1992 -0.5225
   17MOL    C85 6517   2.129   5.012   1.534 -0.1501  0.4691  0.1262
   17MOL    C86 6518   2.051   5.113   1.474  0.1533  0.2169 -0.3653
   17MOL    O87 6519   2.076   5.169   1.352 -0.0387  0.4093 -0.3396
   17MOL    C88 6520   2.176   5.124   1.265 -0.8872  0.4796 -0.0901
   17MOL    C89 6521   1.923   5.145   1.524  0.6374 -0.4587 -0.0680
   17MOL    C90 6522   1.872   5.086   1.638 -0.0551 -0.3211 -0.2448
   17MOL    C91 6523   1.858   4.756   1.770 -0.3126 -0.6831 -0.2629
   17MOL    H92 6524   1.794   4.955   1.841 -0.6620 -0.7931 -0.6889
   17MOL    H93 6525   2.140   4.872   1.682  0.7690  1.1191  0.0881
   17MOL    H94 6526   2.226   4.975   1.503 -0.9131 -1.2312 -0.3193
   17MOL    H95 6527   2.176   5.018   1.241 -0.9873  0.0990  1.5811
   17MOL    H96 6528   2.271   5.168   1.296 -0.6010 -0.6201  0.5930
   17MOL    H97 6529   2.163   5.167   1.165  0.0065  0.2251 -0.3285
   17MOL    H98 6530   1.868   5.220   1.469  0.6202 -0.5301 -0.1477
   17MOL    H99 6531   1.771   5.099   1.673  0.2891  0.6308  0.4119
   17MOL   H100 6532   1.809   4.772   1.674 -1.2054  0.6470  0.4116
   17MOL   H101 6533   1.948   4.698   1.747 -0.0430 -0.5299  0.4059
   17MOL   C102 6534   1.763   4.662   1.851  0.3779 -0.5533  0.6312
   17MOL   C103 6535   1.647   4.739   1.913  0.4249 -0.9425  0.0572
   17MOL   C104 6536   1.540   4.790   1.827  0.3913  0.1969 -0.6520
   17MOL   C105 6537   1.433   4.848   1.890 -0.6826  0.1650  0.5899
   17MOL   C106 6538   1.447   4.902   2.018 -0.2240  0.1557  0.2187
   17MOL   O107 6539   1.353   4.996   2.073  0.4933 -0.1494  0.3329
   17MOL   C108 6540   1.220   4.989   2.022 -0.3674 -0.1601 -0.2756
   17MOL   C109 6541   1.555   4.863   2.096 -0.2301 -0.4907 -0.1293
   17MOL   C110 6542   1.649   4.773   2.044  0.6429  0.4988 -0.2961
   17MOL   C111 6543   1.720   4.530   1.782 -0.6605  0.1153 -0.1942
   17MOL   H112 6544   1.821   4.628   1.937  1.0379  0.0805  0.4480
   17MOL   H113 6545   1.550   4.778   1.721 -0.0328  0.5565 -0.7340
   17MOL   H114 6546   1.351   4.873   1.824 -0.9912 -0.7983  0.6048
   17MOL   H115 6547   1.192   4.889   1.990 -2.1804 -0.3337  1.7473
   17MOL   H116 6548   1.148   5.014   2.100  0.5152 -2.2993  1.2841
   17MOL   H117 6549   1.209   5.056   1.937 -0.0937  1.0453  0.6341
   17MOL   H118 6550   1.565   4.891   2.200  0.7421 -2.8255  0.4169
   17MOL   H119 6551   1.726   4.735   2.110  0.8903 -0.0531 -0.8921
   17MOL   H120 6552   1.677   4.552   1.684  0.3520  4.2851  0.2116
   17MOL   H121 6553   1.817   4.489   1.753 -0.6146 -0.2873  0.5153
   17MOL   C122 6554   1.635   4.425   1.861  0.2858 -0.5213  0.4113
   17MOL   C123 6555   1.698   4.387   1.999  0.9665  0.3670  0.5289
   17MOL   C124 6556   1.619   4.345   2.110 -0.1102 -0.0489  0.2490
   17MOL   C125 6557   1.681   4.300   2.229  0.0325  0.2866  0.3959
   17MOL   C126 6558   1.820   4.292   2.239 -0.3424  0.2916 -0.4327
   17MOL   O127 6559   1.891   4.242   2.353 -0.5223  0.2424  0.5347
   17MOL   C128 6560   1.830   4.192   2.475 -0.1995 -0.1802 -0.9089
   17MOL   C129 6561   1.898   4.337   2.135  0.0299 -0.5030 -0.0648
   17MOL   C130 6562   1.840   4.373   2.014 -0.2684 -0.0791  0.0829
   17MOL   C131 6563   1.607   4.295   1.793 -0.3912 -0.0518 -0.0211
   17MOL   H132 6564   1.539   4.471   1.882 -0.8805 -1.2023 -3.0595
   17MOL   H133 6565   1.511   4.346   2.119 -0.0665 -0.5959  0.8222
   17MOL   H134 6566   1.624   4.264   2.313  1.7424 -1.6905  0.7317
   17MOL   H135 6567   1.786   4.094   2.461 -0.0971 -0.6597  1.9720
   17MOL   H136 6568   1.915   4.178   2.542 -0.4583 -0.5203 -0.6564
   17MOL   H137 6569   1.763   4.270   2.512  0.9434 -0.1183  1.0839
   17MOL   H138 6570   2.006   4.328   2.140  0.4085  3.1859 -0.5249
   17MOL   H139 6571   1.905   4.410   1.936  1.7603 -0.6548  1.4492
   17MOL   H140 6572   1.546   4.243   1.868 -0.6567  0.4322  0.1018
   17MOL   H141 6573   1.701   4.242   1.783 -0.4929 -0.0120 -1.2925
   17MOL   C142 6574   1.539   4.304   1.661  0.1807 -0.0214 -0.6108
   17MOL   C143 6575   1.560   4.169   1.592  0.5419  0.3455  0.6755
   17MOL   C144 6576   1.543   4.048   1.651 -0.1214 -0.6634 -0.2371
   17MOL   C145 6577   1.577   3.930   1.585  0.0865 -0.0411  0.4916
   17MOL   C146 6578   1.619   3.935   1.452 -0.4727 -0.4991  0.6973
   17MOL   O147 6579   1.640   3.813   1.395  0.0618  0.1992 -0.0372
   17MOL   C148 6580   1.662   3.801   1.253 -0.2216  0.5756 -0.6697
   17MOL   C149 6581   1.633   4.062   1.390  0.5240 -0.5901 -0.2614
   17MOL   C150 6582   1.598   4.179   1.458 -0.1094  0.0707  0.3316
   17MOL   C151 6583   1.392   4.358   1.663  0.3783  0.2968  0.8492
   17MOL   H152 6584   1.586   4.378   1.597 -0.9364 -0.8113 -2.3562
   17MOL   H153 6585   1.513   4.033   1.754 -1.5772 -2.3349 -0.8590
   17MOL   H154 6586   1.562   3.837   1.638 -0.5682  0.2880  0.8936
   17MOL   H155 6587   1.656   3.695   1.230 -3.2268  0.5988 -0.1838
   17MOL   H156 6588   1.588   3.850   1.189  0.1371  0.1841 -1.3813
   17MOL   H157 6589   1.763   3.838   1.233 -0.1916  1.5553  1.1911
   17MOL   H158 6590   1.642   4.062   1.282 -1.3443 -1.7104 -0.4498
   17MOL   H159 6591   1.600   4.272   1.403 -2.7891  1.0136  1.7148
   17MOL   H160 6592   1.378   4.444   1.728 -0.3778  2.2438 -1.8444
   17MOL   H161 6593   1.336   4.271   1.697  0.1532  1.0038  2.2974
   17MOL   C162 6594   1.334   4.400   1.522 -0.0715  0.2087  0.2896
   17MOL   C163 6595   1.374   4.543   1.506  1.0523 -0.0125  0.2493
   17MOL   C164 6596   1.498   4.581   1.446 -0.0180 -0.2313  0.3605
   17MOL   C165 6597   1.541   4.717   1.432  0.1984 -0.6545  0.1563
   17MOL   C166 6598   1.451   4.822   1.469 -0.0186  0.2690 -0.7702
   17MOL   O167 6599   1.479   4.956   1.449  0.2747  0.3985 -0.2245
   17MOL   C168 6600   1.611   4.994   1.410  0.4839  0.3655 -0.5899
   17MOL   C169 6601   1.326   4.779   1.518 -0.5040 -0.1906  0.8071
   17MOL   C170 6602   1.285   4.650   1.541 -0.3003  0.2037 -0.0164
   17MOL   C171 6603   1.183   4.368   1.505  0.4496  0.0941  0.3436
   17MOL   H172 6604   1.375   4.336   1.444  0.1970  0.9032 -0.1439
   17MOL   H173 6605   1.556   4.502   1.401 -0.9449 -0.3172 -0.7051
   17MOL   H174 6606   1.643   4.742   1.408 -0.0054 -2.1026 -2.4083
   17MOL   H175 6607   1.617   4.962   1.306  1.6636  0.3679 -0.5300
   17MOL   H176 6608   1.682   4.962   1.486  1.3039  1.4372 -0.8980
   17MOL   H177 6609   1.620   5.102   1.404  2.6664  0.1495 -1.5457
   17MOL   H178 6610   1.268   4.864   1.550 -0.5653 -0.0416  0.2917
   17MOL   H179 6611   1.182   4.630   1.567  0.3419 -1.2969  1.4493
   17MOL   H180 6612   1.127   4.425   1.579  0.0400  1.3385 -0.8862
   17MOL   H181 6613   1.141   4.273   1.537 -0.0058  0.6463  1.4151
   17MOL   C182 6614   1.120   4.420   1.365 -0.1393  0.0503 -0.6327
   17MOL   C183 6615   0.968   4.415   1.364 -0.6515  0.1349  0.0108
   17MOL   C184 6616   0.898   4.307   1.407 -0.6399 -0.2538 -0.4640
   17MOL   C185 6617   0.758   4.298   1.402  0.2955  0.5482 -0.4336
   17MOL   C186 6618   0.683   4.402   1.344  0.5100 -0.0877 -0.0362
   17MOL   O187 6619   0.547   4.385   1.340 -0.8016 -0.0525 -0.0288
   17MOL   C188 6620   0.477   4.486   1.267 -0.8233  0.2051  0.6923
   17MOL   C189 6621   0.753   4.515   1.292 -0.2128 -0.1807 -0.8118
   17MOL   C190 6622   0.897   4.521   1.305  0.5470  0.0440 -0.3751
   17MOL   C191 6623   1.175   4.332   1.250  0.3847 -0.6448 -0.0289
   17MOL   H192 6624   1.154   4.521   1.345 -0.3121  0.3196  0.3805
   17MOL   H193 6625   0.957   4.229   1.453 -0.9539  0.8576  1.8797
   17MOL   H194 6626   0.704   4.212   1.440  0.5122  0.7903  0.4133
   17MOL   H195 6627   0.520   4.501   1.168  0.0044  1.5842  1.2529
   17MOL   H196 6628   0.474   4.584   1.313  0.0936  1.8111 -2.5319
   17MOL   H197 6629   0.374   4.458   1.245 -1.4800  1.7805  1.7370
   17MOL   H198 6630   0.705   4.605   1.257 -2.4813  0.3487  3.4025
   17MOL   H199 6631   0.944   4.604   1.256 -1.0256 -0.2282 -2.3729
   17MOL   H200 6632   1.234   4.248   1.286  0.2558 -1.7370 -2.3008
   17MOL   H201 6633   1.085   4.280   1.218  0.8425 -0.7222 -1.1861
   17MOL   C202 6634   1.260   4.409   1.147  0.2125 -0.3806  1.1312
   17MOL   C203 6635   1.185   4.520   1.080 -0.2605  0.0406 -0.1185
   17MOL   C204 6636   1.069   4.495   1.005  0.5122 -0.0139 -0.0391
   17MOL   C205 6637   0.987   4.597   0.952 -0.5351 -0.4631  0.3536
   17MOL   C206 6638   1.024   4.732   0.970 -0.1845  0.5201 -0.2751
   17MOL   O207 6639   0.960   4.837   0.914  0.1068  0.5722  0.1742
   17MOL   C208 6640   0.813   4.834   0.923  0.1813 -0.5727 -0.4082
   17MOL   C209 6641   1.141   4.758   1.044  0.3657 -0.1468  0.0839
   17MOL   C210 6642   1.218   4.652   1.105 -0.1086  1.0735  0.0241
   17MOL   C211 6643   1.324   4.322   1.039 -0.1333  0.6829  0.5005
   17MOL   H212 6644   1.335   4.463   1.205  3.4360 -1.9409 -1.4448
   17MOL   H213 6645   1.027   4.396   1.005  0.5760 -0.0595 -1.5612
   17MOL   H214 6646   0.901   4.575   0.891 -0.8061 -0.9100  0.8864
   17MOL   H215 6647   0.776   4.828   0.820  1.3154  0.8823 -0.9146
   17MOL   H216 6648   0.775   4.760   0.993 -1.2286  0.3032 -0.2203
   17MOL   H217 6649   0.782   4.932   0.961  1.7561  0.6048 -2.0679
   17MOL   H218 6650   1.170   4.861   1.058 -0.4501  0.5200 -2.8287
   17MOL   H219 6651   1.319   4.669   1.139 -0.1958  0.3390  0.6593
   17MOL   H220 6652   1.239   4.285   0.983  0.9057 -2.5781  0.9997
   17MOL   H221 6653   1.364   4.226   1.070  0.5373  1.3233  1.6813
   17MOL   C222 6654   1.420   4.400   0.941  0.0788  0.1472  0.4515
   17MOL   C223 6655   1.530   4.461   1.012  0.3295 -0.2437  0.6684
   17MOL   C224 6656   1.548   4.601   1.018  0.0944  0.8775  0.1077
   17MOL   C225 6657   1.646   4.647   1.101 -0.1100  0.1663  0.6266
   17MOL   C226 6658   1.736   4.560   1.174  0.3299 -0.2673  0.0440
   17MOL   O227 6659   1.839   4.619   1.253  0.2022  0.4639  0.0992
   17MOL   C228 6660   1.940   4.532   1.308  0.7321 -0.2676  0.2058
   17MOL   C229 6661   1.726   4.421   1.156 -0.2341 -0.1880 -0.2493
   17MOL   C230 6662   1.618   4.374   1.082  0.1494 -0.3765 -0.3221
   17MOL   C231 6663   1.478   4.322   0.826  0.3213  0.0675 -0.7672
   17MOL   H232 6664   1.372   4.488   0.898 -1.4614 -0.8339  0.1049
   17MOL   H233 6665   1.476   4.660   0.961  1.2234  1.0735 -1.1345
   17MOL   H234 6666   1.660   4.754   1.105 -1.2672  0.3812 -0.5634
   17MOL   H235 6667   2.013   4.494   1.236  0.4182 -0.3028 -0.0977
   17MOL   H236 6668   2.000   4.590   1.377 -0.7333  1.6238 -0.0666
   17MOL   H237 6669   1.898   4.448   1.364  0.5750 -0.4945 -0.2463
   17MOL   H238 6670   1.783   4.347   1.211 -3.0311 -1.7390  0.6480
   17MOL   H239 6671   1.609   4.267   1.093  1.3695 -0.4028  0.4505
   17MOL   H240 6672   1.542   4.397   0.778  1.6219  1.0140  2.3034
   17MOL   H241 6673   1.558   4.254   0.855  0.3775  0.0860 -0.8767
   17MOL   C242 6674   1.387   4.243   0.729  0.0765  0.8049  0.2113
   17MOL   C243 6675   1.259   4.316   0.689 -0.1618 -0.8586 -0.3817
   17MOL   C244 6676   1.134   4.255   0.714  0.3680  0.2224 -0.2981
   17MOL   C245 6677   1.013   4.320   0.677 -0.2671 -0.2363 -0.8675
   17MOL   C246 6678   1.018   4.453   0.626 -0.0994  0.0471 -0.6134
   17MOL   O247 6679   0.907   4.532   0.599 -0.0400  0.2903 -0.0396
   17MOL   C248 6680   0.773   4.475   0.593  0.2067  0.7299  0.0645
   17MOL   C249 6681   1.144   4.514   0.616 -0.0362  0.3084 -0.0878
   17MOL   C250 6682   1.259   4.447   0.648 -0.1518  0.5037  1.1314
   17MOL   C251 6683   1.464   4.209   0.594 -0.1592 -0.1860  0.3787
   17MOL   H252 6684   1.353   4.150   0.774  0.6084 -1.2292 -3.3586
   17MOL   H253 6685   1.123   4.160   0.763 -0.8377  1.1786  1.3226
   17MOL   H254 6686   0.927   4.263   0.709  1.1784 -1.8078  0.3496
   17MOL   H255 6687   0.695   4.549   0.576 -1.1669 -0.8545 -0.6134
   17MOL   H256 6688   0.779   4.399   0.515 -0.7760  2.8068 -2.1152
   17MOL   H257 6689   0.744   4.429   0.688  0.2264  0.2483 -0.1633
   17MOL   H258 6690   1.143   4.616   0.578  0.5227  0.2237 -0.3265
   17MOL   H259 6691   1.362   4.476   0.633  0.0805 -1.9965 -2.5927
   17MOL   H260 6692   1.515   4.299   0.560 -0.1722  1.0145  3.3303
   17MOL   H261 6693   1.385   4.180   0.525  0.4501 -1.2240  0.1154
   17MOL   C262 6694   1.563   4.087   0.598  0.1502 -0.5457 -0.1999
   17MOL   C263 6695   1.668   4.096   0.704 -0.6302  0.2142  0.0400
   17MOL   C264 6696   1.676   4.006   0.812  0.1488 -0.1435 -0.2320
   17MOL   C265 6697   1.762   4.022   0.923 -0.1176  0.8118  0.8839
   17MOL   C266 6698   1.856   4.131   0.919  0.1763 -0.1985  0.4039
   17MOL   O267 6699   1.938   4.156   1.025  0.7892 -0.9278  0.5042
   17MOL   C268 6700   1.983   4.050   1.110  0.3336  0.5252 -0.2405
   17MOL   C269 6701   1.838   4.228   0.821 -0.6768 -0.5867  0.6813
   17MOL   C270 6702   1.755   4.212   0.710  0.1273 -0.4921 -0.0818
   17MOL   C271 6703   1.623   4.046   0.461 -0.1299 -0.3423  0.5605
   17MOL   H272 6704   1.502   4.005   0.636 -0.5648  0.4722  0.8467
   17MOL   H273 6705   1.605   3.924   0.807  0.6361 -0.7682  2.3186
   17MOL   H274 6706   1.744   3.950   1.001  1.9303 -0.7801 -0.0646
   17MOL   H275 6707   2.032   3.979   1.043 -2.1437  0.0386 -1.6047
   17MOL   H276 6708   1.906   3.995   1.165 -1.1120  2.2438 -0.5074
   17MOL   H277 6709   2.052   4.085   1.186  1.7648 -1.4382 -0.5995
   17MOL   H278 6710   1.892   4.322   0.823 -1.0009 -0.3952  0.5593
   17MOL   H279 6711   1.756   4.286   0.631 -0.7374  0.9233  1.1885
   17MOL   H280 6712   1.531   4.043   0.403 -0.8850 -0.7018  1.7437
   17MOL   H281 6713   1.668   4.131   0.410 -1.9369  2.0076  2.7738
   17MOL   C282 6714   1.703   3.911   0.456 -0.4339  0.4461 -0.1750
   17MOL   C283 6715   1.798   3.906   0.343 -1.0036  0.0756  0.0953
   17MOL   C284 6716   1.758   3.911   0.206  0.3961 -0.9015 -0.2752
   17MOL   C285 6717   1.854   3.917   0.101 -0.3006 -0.2611  0.5504
   17MOL   C286 6718   1.996   3.906   0.130  0.8857 -0.0836  0.3881
   17MOL   O287 6719   2.094   3.922   0.032 -0.3558 -0.4315 -0.3428
   17MOL   C288 6720   2.058   3.936   7.934 -0.3237 -0.7949 -1.1855
   17MOL   C289 6721   2.029   3.899   0.266 -0.3337 -0.0956 -0.3269
   17MOL   C290 6722   1.936   3.895   0.371  0.7294 -0.3998 -0.0578
   17MOL   C291 6723   1.608   3.790   0.456  0.3814  0.3583 -0.7436
   17MOL   H292 6724   1.765   3.913   0.545  0.2327 -1.5015 -0.5545
   17MOL   H293 6725   1.656   3.919   0.170  0.6943 -0.4713 -1.0344
   17MOL   H294 6726   1.815   3.915   0.001  0.5187 -2.0917  0.2490
   17MOL   H295 6727   1.993   4.023   7.926 -3.1802 -2.8352 -0.9103
   17MOL   H296 6728   2.156   3.951   7.887 -0.4151  2.2241 -0.4953
   17MOL   H297 6729   2.004   3.848   7.897 -1.0061 -0.7526 -0.3029
   17MOL   H298 6730   2.131   3.883   0.299 -0.3830  0.3109  0.0267
   17MOL   H299 6731   1.975   3.884   0.471 -0.9002  1.7399  0.8673
   17MOL   H300 6732   1.521   3.794   0.521 -1.2467  0.1726 -2.8412
   17MOL   H301 6733   1.563   3.772   0.358 -0.9577 -0.2652 -0.0210
   17MOL   C302 6734   1.699   3.662   0.483  0.4228 -1.4984  0.2868
   17MOL   C303 6735   1.740   3.660   0.633  0.4993 -0.3238 -0.5239
   17MOL   C304 6736   1.872   3.670   0.668  0.2872 -0.6570  0.1318
   17MOL   C305 6737   1.916   3.684   0.800 -0.1592  0.0728 -0.1878
   17MOL   C306 6738   1.823   3.683   0.904  0.3308  0.1589  0.3227
   17MOL   O307 6739   1.864   3.706   1.035  0.1447  0.6190 -0.1227
   17MOL   C308 6740   2.001   3.701   1.070  0.2050 -0.7189  0.2991
   17MOL   C309 6741   1.684   3.679   0.869 -0.5726 -0.2808  0.9775
   17MOL   C310 6742   1.643   3.655   0.736  0.0455 -0.2929  0.3161
   17MOL   C311 6743   1.635   3.528   0.427 -0.7112 -0.1653 -0.1984
   17MOL   H312 6744   1.786   3.674   0.419  0.0911 -0.4784  0.0252
   17MOL   H313 6745   1.948   3.679   0.591 -0.9739  3.1707 -0.7729
   17MOL   H314 6746   2.020   3.695   0.826 -0.1346  0.8213 -0.5993
   17MOL   H315 6747   2.068   3.775   1.027  0.1086 -0.3222  0.8287
   17MOL   H316 6748   2.054   3.606   1.064  1.9060  0.2847 -1.0168
   17MOL   H317 6749   2.010   3.727   1.175  1.4832 -0.0984  0.0331
   17MOL   H318 6750   1.613   3.684   0.950 -2.5606 -1.4703 -0.6478
   17MOL   H319 6751   1.540   3.642   0.705 -0.2842 -1.3225  1.7988
   17MOL   H320 6752   1.598   3.549   0.326 -1.3889  0.1389  0.1098
   17MOL   H321 6753   1.553   3.496   0.491 -1.0942  0.0979 -0.5509
   17MOL   C322 6754   1.732   3.407   0.423  0.1352 -0.0270  0.6076
   17MOL   C323 6755   1.865   3.411   0.346 -0.1244 -0.6750  0.3423
   17MOL   C324 6756   1.983   3.449   0.414 -0.9173  0.0892 -0.2130
   17MOL   C325 6757   2.112   3.442   0.354 -0.2265 -0.2668 -0.1673
   17MOL   C326 6758   2.118   3.396   0.219  0.4425  1.0471  0.3228
   17MOL   O327 6759   2.236   3.356   0.166 -0.1854  0.0205  0.3784
   17MOL   C328 6760   2.348   3.437   0.190 -0.5759 -0.1305 -0.8096
   17MOL   C329 6761   2.002   3.357   0.154  0.3112 -0.0524  0.2992
   17MOL   C330 6762   1.876   3.376   0.209 -0.2637  0.3093  0.1126
   17MOL   C331 6763   1.650   3.283   0.393 -0.8664 -0.1020 -0.2532
   17MOL   H332 6764   1.758   3.402   0.529 -0.4887 -1.1553  0.7181
   17MOL   H333 6765   1.981   3.488   0.514 -1.1284 -1.7582  0.5167
   17MOL   H334 6766   2.204   3.463   0.406 -0.6874  0.3093  0.4205
   17MOL   H335 6767   2.409   3.418   0.102  0.7173 -0.0191  0.0577
   17MOL   H336 6768   2.383   3.408   0.289 -0.9744  1.5622 -0.1654
   17MOL   H337 6769   2.328   3.544   0.190  0.8587  0.1666  1.2544
   17MOL   H338 6770   1.995   3.305   0.060 -0.4546  0.1308  0.2491
   17MOL   H339 6771   1.787   3.360   0.151  0.9000  1.4749 -2.0648
   17MOL   H340 6772   1.563   3.278   0.459 -0.6944 -0.9591 -0.0888
   17MOL   H341 6773   1.621   3.289   0.288  0.3133 -1.1385 -0.6500
   17MOL   C342 6774   1.719   3.146   0.395 -0.5301 -0.1349  0.2580
   17MOL   C343 6775   1.635   3.040   0.328 -0.5263 -0.1324  0.0338
   17MOL   C344 6776   1.513   3.006   0.393  0.3958 -0.2602 -0.4527
   17MOL   C345 6777   1.424   2.909   0.346  0.2994 -0.5788 -0.2299
   17MOL   C346 6778   1.465   2.837   0.230  0.3435  0.5283 -1.0004
   17MOL   O347 6779   1.393   2.734   0.174 -0.1195 -0.2236  0.3001
   17MOL   C348 6780   1.275   2.688   0.238  0.6559 -0.6161 -1.0113
   17MOL   C349 6781   1.586   2.854   0.172 -0.1675 -0.5960  0.0881
   17MOL   C350 6782   1.671   2.958   0.223  0.4449 -0.6961  0.1027
   17MOL   C351 6783   1.759   3.096   0.535 -0.1810 -0.0374 -0.9409
   17MOL   H352 6784   1.813   3.147   0.340 -1.0446 -0.9200 -0.6468
   17MOL   H353 6785   1.483   3.058   0.483 -2.3064 -1.4589 -0.5988
   17MOL   H354 6786   1.326   2.899   0.391  0.2482 -2.3423 -0.6769
   17MOL   H355 6787   1.269   2.582   0.210 -1.2880 -0.0575 -2.9587
   17MOL   H356 6788   1.279   2.693   0.346 -1.4079 -2.5697 -0.7969
   17MOL   H357 6789   1.181   2.739   0.213  0.1859 -0.5477  0.8652
   17MOL   H358 6790   1.605   2.802   0.079  0.4134  1.5561 -1.0213
   17MOL   H359 6791   1.761   2.980   0.167 -0.3823  0.4490 -0.8012
   17MOL   H360 6792   1.683   3.129   0.606  1.0236  2.5856 -0.8267
   17MOL   H361 6793   1.751   2.987   0.535  0.6442 -0.1015  0.0364
   17MOL   C362 6794   1.898   3.128   0.586  0.5029 -0.1989 -0.6223
   17MOL   C363 6795   1.991   3.009   0.554  0.8835 -0.3651 -0.0508
   17MOL   C364 6796   1.973   2.876   0.598 -0.7913 -0.5103  0.4081
   17MOL   C365 6797   2.057   2.777   0.545  0.2019  0.0359  0.7821
   17MOL   C366 6798   2.163   2.810   0.451  0.0558 -0.0382 -0.6503
   17MOL   O367 6799   2.243   2.722   0.392  0.3280 -0.8435 -0.0515
   17MOL   C368 6800   2.258   2.593   0.444 -0.2904  0.5489 -0.1556
   17MOL   C369 6801   2.178   2.944   0.408 -0.3087 -0.0307 -0.4327
   17MOL   C370 6802   2.089   3.038   0.450  0.3094 -0.0998 -0.0028
   17MOL   C371 6803   1.885   3.161   0.731 -0.0765  0.1359 -0.3406
   17MOL   H372 6804   1.953   3.210   0.540  1.4047 -0.2337  0.3632
   17MOL   H373 6805   1.900   2.846   0.671 -1.6665 -0.9356 -0.6383
   17MOL   H374 6806   2.034   2.677   0.577 -3.1358  0.1953 -0.9296
   17MOL   H375 6807   2.324   2.583   0.530 -0.0065  2.7593 -0.1037
   17MOL   H376 6808   2.164   2.548   0.477 -2.1314  4.5764  0.3572
   17MOL   H377 6809   2.294   2.524   0.367 -1.2338  0.9064 -0.9296
   17MOL   H378 6810   2.247   2.975   0.331  1.9551 -0.2624  1.4692
   17MOL   H379 6811   2.083   3.138   0.409 -0.4713 -0.2299 -0.1980
   17MOL   H380 6812   1.823   3.251   0.731 -1.0215 -0.5026  0.4685
   17MOL   H381 6813   1.825   3.083   0.779  2.0561 -1.0369  0.5162
   17MOL   C382 6814   2.014   3.187   0.812 -0.9373 -0.6539 -0.0726
   17MOL   C383 6815   1.978   3.240   0.959 -0.3094  0.5625 -0.6583
   17MOL   C384 6816   1.881   3.343   0.978  0.4701 -0.1495 -0.0381
   17MOL   C385 6817   1.850   3.388   1.111 -0.0141  0.1148  0.4423
   17MOL   C386 6818   1.924   3.335   1.224 -0.1502 -0.0219  0.0463
   17MOL   O387 6819   1.896   3.373   1.356  0.1365 -0.3129  0.6052
   17MOL   C388 6820   1.835   3.496   1.376 -0.0380  0.0520 -0.6355
   17MOL   C389 6821   2.030   3.242   1.197 -0.4653  0.1599  0.1941
   17MOL   C390 6822   2.053   3.192   1.070  0.4979 -0.5099  0.2402
   17MOL   C391 6823   2.103   3.298   0.753  0.8496 -0.0138 -0.1664
   17MOL   H392 6824   2.073   3.096   0.808  0.7574  0.4894 -1.9506
   17MOL   H393 6825   1.837   3.387   0.890 -2.4035  0.0657  1.4672
   17MOL   H394 6826   1.769   3.457   1.128  0.0288  0.5730 -1.1339
   17MOL   H395 6827   1.898   3.581   1.349  0.2247 -0.0602 -0.3883
   17MOL   H396 6828   1.792   3.508   1.475  0.0818  3.1477 -0.9130
   17MOL   H397 6829   1.746   3.508   1.315 -0.5106  1.0049  0.2364
   17MOL   H398 6830   2.075   3.200   1.286 -0.4460 -0.2019  0.0137
   17MOL   H399 6831   2.129   3.119   1.048  0.2073 -0.6260 -0.3843
   17MOL   H400 6832   2.047   3.390   0.734 -1.3037 -0.5774  3.0101
   17MOL   H401 6833   2.141   3.251   0.663  1.2665  0.3985 -0.2038
   17MOL   H402 6834   2.194   3.313   0.810  0.3306 -1.6150  1.1293
   18MOL     C1 6835   5.892   1.080   5.046  1.1496 -0.1381 -0.1121
   18MOL     C2 6836   5.762   1.152   5.046 -0.3886 -0.5212  0.5705
   18MOL     C3 6837   5.746   1.277   5.115 -0.1210  0.0515  0.1262
   18MOL     C4 6838   5.618   1.342   5.108  0.0435  0.2457  0.7698
   18MOL     C5 6839   5.516   1.292   5.022 -0.2226 -0.1247  0.7685
   18MOL     O6 6840   5.396   1.363   5.014  0.0455  0.7886 -0.3373
   18MOL     C7 6841   5.337   1.376   4.887 -0.0551  0.1919 -0.2027
   18MOL     C8 6842   5.537   1.168   4.959 -0.5420 -0.1472  0.1681
   18MOL     C9 6843   5.657   1.097   4.971  0.0200  0.4675  0.2811
   18MOL    C10 6844   5.946   1.022   5.175 -0.3205  0.1676 -0.6057
   18MOL    H11 6845   5.952   1.159   5.000  0.2436 -0.1156 -1.2887
   18MOL    H12 6846   5.824   1.327   5.170 -0.6550  1.2765 -0.2358
   18MOL    H13 6847   5.589   1.432   5.161 -3.2700 -0.2662 -0.0224
   18MOL    H14 6848   5.235   1.413   4.886  0.8673  2.8051 -0.8847
   18MOL    H15 6849   5.398   1.452   4.838  0.2956 -0.4989 -0.8706
   18MOL    H16 6850   5.346   1.290   4.820  0.7027 -0.9533  1.3237
   18MOL    H17 6851   5.459   1.123   4.898 -1.2903 -1.2563  1.9022
   18MOL    H18 6852   5.672   1.008   4.911 -0.6295  2.9745 -3.8063
   18MOL    H19 6853   5.938   1.095   5.256  0.5936 -0.9766  0.5564
   18MOL    H20 6854   5.871   0.947   5.200  0.5248 -0.9373 -1.2855
   18MOL    H21 6855   5.890   0.993   4.981  0.1845  0.6335 -1.1338
   18MOL    C22 6856   6.096   0.977   5.164  0.2978 -0.3748 -0.6237
   18MOL    C23 6857   6.183   1.103   5.158 -0.1449  0.1099  0.3969
   18MOL    C24 6858   6.232   1.148   5.036 -0.1838  0.5874 -0.2939
   18MOL    C25 6859   6.330   1.246   5.025  0.0619 -0.4617 -0.7663
   18MOL    C26 6860   6.365   1.334   5.137  0.4846  0.4699 -1.2486
   18MOL    O27 6861   6.442   1.445   5.136 -0.4060  0.2225  0.1775
   18MOL    C28 6862   6.453   1.523   5.018  0.7532  0.1732 -0.5473
   18MOL    C29 6863   6.303   1.297   5.265 -1.0441 -0.1607  0.0494
   18MOL    C30 6864   6.212   1.184   5.272 -0.1234 -0.5335 -0.6336
   18MOL    C31 6865   6.132   0.882   5.283  0.0505 -0.3495  0.1965
   18MOL    H32 6866   6.117   0.920   5.073  1.5381 -0.2489 -0.4219
   18MOL    H33 6867   6.198   1.104   4.943 -0.3342  0.5381 -0.2141
   18MOL    H34 6868   6.376   1.275   4.932 -0.2066  1.2156 -0.3903
   18MOL    H35 6869   6.359   1.554   4.972  0.3605  1.2639  0.9505
   18MOL    H36 6870   6.516   1.474   4.944  1.2981  0.9145 -0.5816
   18MOL    H37 6871   6.501   1.617   5.046  2.3857 -0.9788  0.6120
   18MOL    H38 6872   6.327   1.350   5.356 -0.7557 -0.9180  0.4217
   18MOL    H39 6873   6.180   1.145   5.367  0.1656  1.6362  0.3800
   18MOL    H40 6874   6.237   0.898   5.305  0.6841 -1.5086 -1.8162
   18MOL    H41 6875   6.080   0.926   5.368  1.0227 -0.0081  0.6139
   18MOL    C42 6876   6.117   0.732   5.261  0.1332 -0.1942  0.9163
   18MOL    C43 6877   6.146   0.685   5.406  0.0664 -0.3416 -0.1726
   18MOL    C44 6878   6.275   0.671   5.456  0.6293  1.2051 -0.2947
   18MOL    C45 6879   6.292   0.658   5.597 -0.0674 -0.1011 -0.0175
   18MOL    C46 6880   6.183   0.638   5.685 -0.9966  0.8887  0.5960
   18MOL    O47 6881   6.211   0.629   5.816 -0.3565  0.7516 -0.5025
   18MOL    C48 6882   6.124   0.546   5.898 -0.1334  0.6693  0.0657
   18MOL    C49 6883   6.046   0.621   5.631  0.4557 -0.3441 -0.7657
   18MOL    C50 6884   6.031   0.659   5.492  0.4834 -0.5484 -0.4393
   18MOL    C51 6885   6.217   0.672   5.158 -0.3808  0.2257 -0.1194
   18MOL    H52 6886   6.014   0.707   5.235  0.4835 -0.3214 -0.3879
   18MOL    H53 6887   6.368   0.679   5.402  1.6407 -0.4346  1.1537
   18MOL    H54 6888   6.396   0.664   5.627  0.5001 -3.3010 -1.1868
   18MOL    H55 6889   6.178   0.533   5.992  1.9483  2.3814 -0.8562
   18MOL    H56 6890   6.027   0.594   5.913 -0.0700  1.3533 -1.6370
   18MOL    H57 6891   6.104   0.444   5.865 -0.6486  0.5650  0.6931
   18MOL    H58 6892   5.968   0.589   5.699 -0.0295  0.9646 -0.6903
   18MOL    H59 6893   5.930   0.662   5.453  0.4298  1.1007 -0.1995
   18MOL    H60 6894   6.261   0.584   5.205  1.5732 -0.4398 -3.0557
   18MOL    H61 6895   6.304   0.734   5.137 -0.4593  0.0709 -0.9144
   18MOL    C62 6896   6.145   0.619   5.029 -0.9385 -0.5887  0.0701
   18MOL    C63 6897   6.023   0.521   5.055 -0.4213  0.3870  0.0063
   18MOL    C64 6898   5.891   0.562   5.036  0.1400 -1.0561 -0.1356
   18MOL    C65 6899   5.779   0.481   5.051  0.1860  0.3829 -0.1658
   18MOL    C66 6900   5.801   0.352   5.100  0.0539 -0.3344  0.4726
   18MOL    O67 6901   5.697   0.262   5.120  0.1351 -0.3959 -0.1535
   18MOL    C68 6902   5.565   0.318   5.135 -0.6657  0.0524  0.2679
   18MOL    C69 6903   5.932   0.306   5.140  0.2117 -0.5588  0.1086
   18MOL    C70 6904   6.040   0.393   5.115 -0.2870  0.4059  0.0409
   18MOL    C71 6905   6.238   0.571   4.917 -0.1685 -0.6073 -0.7048
   18MOL    H72 6906   6.096   0.710   4.994  1.6001  1.0676  0.7439
   18MOL    H73 6907   5.871   0.647   4.973 -1.6313 -0.9603  0.5274
   18MOL    H74 6908   5.687   0.517   5.008 -0.7738 -1.7194  0.0607
   18MOL    H75 6909   5.540   0.337   5.030  1.1533  0.0707 -0.1828
   18MOL    H76 6910   5.570   0.414   5.186  0.5254  0.7209 -1.0501
   18MOL    H77 6911   5.500   0.244   5.180  0.1422 -2.3493 -2.3182
   18MOL    H78 6912   5.938   0.202   5.168  1.9032 -0.2367  1.0510
   18MOL    H79 6913   6.141   0.358   5.130 -0.1794 -0.4205 -2.2937
   18MOL    H80 6914   6.314   0.649   4.919 -1.2312  0.4349  1.2968
   18MOL    H81 6915   6.289   0.479   4.945  0.2783  0.2107  1.2594
   18MOL    C82 6916   6.179   0.567   4.773  0.1606  0.4754 -0.6031
   18MOL    C83 6917   6.102   0.695   4.744  0.0006 -0.0668  0.2930
   18MOL    C84 6918   5.970   0.687   4.706  0.0613 -0.1056 -0.4366
   18MOL    C85 6919   5.903   0.805   4.672  0.5566  0.5032  0.1063
   18MOL    C86 6920   5.963   0.933   4.683  0.0600  0.5593  0.2019
   18MOL    O87 6921   5.892   1.044   4.647 -0.2432 -0.4934  0.0062
   18MOL    C88 6922   5.963   1.170   4.645  0.4631  0.1077  0.1355
   18MOL    C89 6923   6.098   0.936   4.721  0.2034 -0.0377 -0.0543
   18MOL    C90 6924   6.167   0.823   4.748  0.1143 -0.2554 -0.2620
   18MOL    C91 6925   6.297   0.539   4.679  0.0284  0.4074 -0.3993
   18MOL    H92 6926   6.108   0.484   4.765  0.6657 -0.6237  4.3731
   18MOL    H93 6927   5.919   0.592   4.694  0.2388 -0.1043 -1.2712
   18MOL    H94 6928   5.799   0.794   4.645  0.6050 -1.9203  0.7816
   18MOL    H95 6929   6.006   1.185   4.744 -0.1971 -0.0420  0.4486
   18MOL    H96 6930   5.886   1.246   4.636  1.2241  0.9470  0.6632
   18MOL    H97 6931   6.029   1.178   4.559 -1.3542  0.1144 -1.2961
   18MOL    H98 6932   6.148   1.032   4.720  1.2314 -0.5560 -2.1151
   18MOL    H99 6933   6.272   0.833   4.771  0.2859 -0.0616 -1.0936
   18MOL   H100 6934   6.261   0.564   4.579  0.6820  1.6342 -0.3346
   18MOL   H101 6935   6.377   0.609   4.701  2.3106 -2.0032 -0.8763
   18MOL   C102 6936   6.370   0.404   4.680  0.2233 -0.7094 -0.4413
   18MOL   C103 6937   6.292   0.299   4.606  0.7089 -0.3044 -0.4268
   18MOL   C104 6938   6.243   0.182   4.663  0.1892 -0.3304 -0.0003
   18MOL   C105 6939   6.174   0.092   4.580  0.1364  0.3510 -0.7898
   18MOL   C106 6940   6.155   0.120   4.445  0.4089  0.0480  1.2504
   18MOL   O107 6941   6.108   0.011   4.369 -0.8802  0.4782 -0.0775
   18MOL   C108 6942   6.188   7.989   4.271 -0.9765  0.1322 -0.0169
   18MOL   C109 6943   6.203   0.238   4.383  0.1036  0.8810 -0.2725
   18MOL   C110 6944   6.273   0.326   4.465  0.9883  0.3514 -0.3742
   18MOL   C111 6945   6.516   0.404   4.625 -0.0696  0.1138  0.2354
   18MOL   H112 6946   6.376   0.369   4.783  1.4548 -0.8706 -0.5608
   18MOL   H113 6947   6.247   0.166   4.770  0.6078  1.9785  0.3469
   18MOL   H114 6948   6.138   0.002   4.627  0.1011  1.4449  1.3569
   18MOL   H115 6949   6.154   7.890   4.239  1.3487  0.2961 -3.1801
   18MOL   H116 6950   6.191   0.002   4.176  1.2471 -1.9890 -1.1900
   18MOL   H117 6951   6.293   7.986   4.298 -1.3188  0.0458  1.3913
   18MOL   H118 6952   6.196   0.243   4.275  0.0049 -3.5224 -0.5800
   18MOL   H119 6953   6.327   0.407   4.420  2.2885 -1.2594 -1.7902
   18MOL   H120 6954   6.542   0.300   4.607  0.5412  0.1343  1.0078
   18MOL   H121 6955   6.524   0.457   4.530 -0.2531  2.7562  1.6272
   18MOL   C122 6956   6.635   0.453   4.715 -0.2598 -0.5833  0.2219
   18MOL   C123 6957   6.608   0.576   4.800 -0.4883 -0.4803 -0.3369
   18MOL   C124 6958   6.605   0.570   4.946  0.3683 -0.0491 -0.1676
   18MOL   C125 6959   6.585   0.681   5.028 -0.1852 -0.2184 -0.1455
   18MOL   C126 6960   6.575   0.806   4.972  0.6605 -0.6089 -0.8030
   18MOL   O127 6961   6.559   0.926   5.041  0.1922  0.3146  0.6346
   18MOL   C128 6962   6.545   0.926   5.181 -0.5019  0.0250  0.1207
   18MOL   C129 6963   6.588   0.816   4.834  0.2944 -0.8904 -0.5227
   18MOL   C130 6964   6.610   0.709   4.750  0.1546  0.4776  0.8693
   18MOL   C131 6965   6.769   0.460   4.635  0.2116  0.7423 -0.1723
   18MOL   H132 6966   6.662   0.375   4.787  0.7097  0.5098  1.0737
   18MOL   H133 6967   6.624   0.475   4.994  0.8197 -0.1244 -0.4946
   18MOL   H134 6968   6.581   0.663   5.135 -2.1739  1.0295  0.0123
   18MOL   H135 6969   6.541   1.028   5.217  1.0576  0.6365 -1.4083
   18MOL   H136 6970   6.454   0.869   5.201 -3.1707  2.9934 -3.0258
   18MOL   H137 6971   6.634   0.881   5.225  0.5445  1.4405 -0.5187
   18MOL   H138 6972   6.566   0.911   4.789 -0.6118 -0.8300  0.0316
   18MOL   H139 6973   6.630   0.731   4.646 -2.5349  3.7988  0.9532
   18MOL   H140 6974   6.762   0.536   4.557  0.8932 -0.8144 -1.7475
   18MOL   H141 6975   6.781   0.373   4.571  1.1905  1.9888 -1.7218
   18MOL   C142 6976   6.900   0.492   4.726  0.2830 -0.2832  0.0042
   18MOL   C143 6977   6.956   0.363   4.779  0.0545  0.3087 -0.3808
   18MOL   C144 6978   6.969   0.330   4.913  0.7811 -0.1251 -0.4770
   18MOL   C145 6979   7.038   0.213   4.961 -1.1257 -0.2419  0.3135
   18MOL   C146 6980   7.108   0.132   4.870 -0.1649 -0.2449 -1.0101
   18MOL   O147 6981   7.194   0.030   4.905 -0.2930 -0.6460 -0.1117
   18MOL   C148 6982   7.277   0.051   5.011  0.5667 -0.7673 -0.1854
   18MOL   C149 6983   7.103   0.166   4.736 -0.1826  0.0862 -0.1260
   18MOL   C150 6984   7.020   0.272   4.688  0.6497 -0.6757 -0.3175
   18MOL   C151 6985   7.014   0.568   4.651  0.1155 -0.6151  0.1916
   18MOL   H152 6986   6.874   0.550   4.814 -0.0312  0.8892 -0.8542
   18MOL   H153 6987   6.923   0.387   4.992  1.4132  0.1029 -0.2697
   18MOL   H154 6988   7.027   0.178   5.062  1.8375 -1.0639  0.3951
   18MOL   H155 6989   7.361   8.023   4.996 -1.2890 -3.0756 -0.4057
   18MOL   H156 6990   7.322   0.151   5.005 -0.7747 -0.2362 -1.6528
   18MOL   H157 6991   7.238   0.017   5.107  0.9543 -0.6160  0.0262
   18MOL   H158 6992   7.161   0.103   4.670 -0.4420 -0.7961  0.4830
   18MOL   H159 6993   7.014   0.286   4.581  1.7575  1.1544 -0.1519
   18MOL   H160 6994   7.021   0.526   4.551 -1.2258 -1.2823  0.3655
   18MOL   H161 6995   7.110   0.533   4.688  0.8450  2.0667  0.9790
   18MOL   C162 6996   7.011   0.725   4.664  0.4409  0.3114 -0.0709
   18MOL   C163 6997   6.965   0.796   4.537  0.3069  0.5776 -0.0671
   18MOL   C164 6998   7.035   0.788   4.418 -0.3259  0.7357 -0.3323
   18MOL   C165 6999   6.989   0.852   4.300  0.2902  0.3524  0.0862
   18MOL   C166 7000   6.874   0.937   4.303 -0.7896 -0.0883  1.0760
   18MOL   O167 7001   6.838   1.007   4.187 -0.0547 -0.1430 -0.4150
   18MOL   C168 7002   6.749   1.114   4.206  0.1834  0.0448 -0.4940
   18MOL   C169 7003   6.809   0.948   4.429 -0.0641 -0.1896  0.2673
   18MOL   C170 7004   6.852   0.877   4.546 -0.8646  0.0585 -0.0737
   18MOL   C171 7005   7.141   0.787   4.713  0.0033  0.4233  0.0086
   18MOL   H172 7006   6.936   0.748   4.740  0.6853 -1.0230  0.5753
   18MOL   H173 7007   7.130   0.736   4.423 -0.0279  1.2392 -0.6955
   18MOL   H174 7008   7.058   0.845   4.217  1.5340  0.9183  1.0464
   18MOL   H175 7009   6.787   1.188   4.277 -2.7718 -0.0191  1.2416
   18MOL   H176 7010   6.647   1.104   4.243 -0.6739  2.0714 -2.2084
   18MOL   H177 7011   6.731   1.156   4.107  0.7615 -0.4256 -0.7961
   18MOL   H178 7012   6.731   1.016   4.458  1.0530  0.2466  2.3489
   18MOL   H179 7013   6.815   0.900   4.645 -2.2435 -1.6741 -0.1550
   18MOL   H180 7014   7.222   0.738   4.658  0.1287 -0.7314  1.1917
   18MOL   H181 7015   7.152   0.757   4.817 -1.8836 -1.4875 -0.3203
   18MOL   C182 7016   7.177   0.942   4.683 -0.2331  0.1423 -0.0505
   18MOL   C183 7017   7.326   0.966   4.696 -0.5614 -0.3724  0.0764
   18MOL   C184 7018   7.398   0.957   4.820 -0.1995  0.2298 -0.0666
   18MOL   C185 7019   7.527   1.011   4.834 -0.4271 -0.3730  0.1010
   18MOL   C186 7020   7.588   1.077   4.725  0.1321 -0.2472 -0.6733
   18MOL   O187 7021   7.707   1.150   4.741 -0.0734 -0.3481  0.1362
   18MOL   C188 7022   7.698   1.259   4.836  0.2592 -0.1435 -0.2507
   18MOL   C189 7023   7.526   1.082   4.602  0.0655  0.2256  0.0350
   18MOL   C190 7024   7.397   1.023   4.589 -0.2792  0.5899  0.1016
   18MOL   C191 7025   7.102   1.033   4.783  0.0700 -0.0597  0.4832
   18MOL   H192 7026   7.141   0.966   4.583  1.7001  1.7291 -0.3951
   18MOL   H193 7027   7.354   0.908   4.906  0.4771  0.0544  0.1852
   18MOL   H194 7028   7.575   1.002   4.930 -0.7913  0.2903  0.3492
   18MOL   H195 7029   7.677   1.217   4.934 -1.5287 -1.3479 -1.1129
   18MOL   H196 7030   7.622   1.333   4.810 -2.1918 -2.2283  0.7246
   18MOL   H197 7031   7.796   1.304   4.848 -0.1380  0.6283  0.1416
   18MOL   H198 7032   7.564   1.134   4.515 -2.7848 -0.4304 -1.6698
   18MOL   H199 7033   7.365   1.021   4.486 -1.1719  3.0812  0.2756
   18MOL   H200 7034   7.028   0.970   4.833  0.7833 -1.2285  0.0865
   18MOL   H201 7035   7.169   1.075   4.858 -0.3814  0.1759  0.7524
   18MOL   C202 7036   7.053   1.160   4.725 -0.2931  0.4680  0.0585
   18MOL   C203 7037   7.142   1.238   4.625 -0.2637 -0.1557  1.2188
   18MOL   C204 7038   7.234   1.335   4.668 -0.6208 -0.0650  0.7716
   18MOL   C205 7039   7.299   1.419   4.573 -0.8226 -0.1744  0.3939
   18MOL   C206 7040   7.286   1.394   4.433 -0.2428  0.7899 -0.0729
   18MOL   O207 7041   7.355   1.471   4.341 -0.4405 -0.1003 -0.4414
   18MOL   C208 7042   7.350   1.616   4.355 -0.3510  0.0107 -0.1566
   18MOL   C209 7043   7.204   1.285   4.390 -0.2140 -0.2228 -0.1167
   18MOL   C210 7044   7.131   1.214   4.488  0.1604 -0.7249 -0.2963
   18MOL   C211 7045   6.978   1.251   4.825  0.2406  1.0629  0.1277
   18MOL   H212 7046   6.968   1.126   4.666 -1.5963 -0.7738  2.5561
   18MOL   H213 7047   7.256   1.355   4.772 -0.9688  0.6839  0.7075
   18MOL   H214 7048   7.374   1.490   4.604 -2.1585  0.4233  2.2991
   18MOL   H215 7049   7.255   1.637   4.305 -2.2967 -1.6945  2.6367
   18MOL   H216 7050   7.356   1.665   4.452  2.5618  0.4221 -0.5010
   18MOL   H217 7051   7.427   1.661   4.293 -0.3967  0.7709  0.3289
   18MOL   H218 7052   7.192   1.271   4.283  0.2683 -0.0456 -0.1936
   18MOL   H219 7053   7.069   1.132   4.454  0.5002 -1.3647  0.5934
   18MOL   H220 7054   7.066   1.287   4.879  1.8253 -2.2923 -0.0705
   18MOL   H221 7055   6.909   1.187   4.881  0.4178 -1.8184 -2.7754
   18MOL   C222 7056   6.891   1.364   4.759 -0.1726 -0.0093  0.1102
   18MOL   C223 7057   6.756   1.304   4.701 -0.0266 -0.4424 -0.6061
   18MOL   C224 7058   6.672   1.234   4.791  0.5649 -0.1501 -0.5309
   18MOL   C225 7059   6.554   1.173   4.737 -0.1626 -0.1978  0.0006
   18MOL   C226 7060   6.521   1.168   4.599  0.2986 -0.0278 -0.3683
   18MOL   O227 7061   6.412   1.092   4.560  0.4148  0.1235 -0.0101
   18MOL   C228 7062   6.368   1.097   4.424 -0.0813  0.3781 -0.5020
   18MOL   C229 7063   6.611   1.236   4.510 -0.5108 -0.0289  0.9408
   18MOL   C230 7064   6.731   1.297   4.556  0.3016 -0.2963 -0.0967
   18MOL   C231 7065   6.854   1.486   4.841 -0.6040  0.7577 -0.0720
   18MOL   H232 7066   6.953   1.400   4.677  0.5916 -0.7010  0.3723
   18MOL   H233 7067   6.695   1.248   4.895  0.5144  1.5271 -0.7320
   18MOL   H234 7068   6.494   1.125   4.813  1.5381 -1.6499  0.4583
   18MOL   H235 7069   6.408   1.023   4.354  1.1376  0.2574  0.3132
   18MOL   H236 7070   6.259   1.085   4.429 -0.3108  1.8809 -1.4267
   18MOL   H237 7071   6.381   1.198   4.384  1.6966  0.3003 -0.1475
   18MOL   H238 7072   6.588   1.241   4.405 -2.2953 -1.3628  1.2434
   18MOL   H239 7073   6.793   1.353   4.487  0.1842  0.1527  0.1617
   18MOL   H240 7074   6.770   1.456   4.904 -0.6851 -0.7821 -0.8907
   18MOL   H241 7075   6.930   1.510   4.915  2.6493 -0.6871 -2.7937
   18MOL   C242 7076   6.826   1.609   4.756 -0.2323  0.5393 -0.3815
   18MOL   C243 7077   6.720   1.703   4.817  0.6817 -0.4823 -0.4903
   18MOL   C244 7078   6.590   1.702   4.757 -0.1204  1.0596  0.3882
   18MOL   C245 7079   6.488   1.786   4.807 -0.3397  0.6202 -0.6476
   18MOL   C246 7080   6.513   1.864   4.922  0.4506 -0.2606 -0.1482
   18MOL   O247 7081   6.427   1.953   4.979 -0.1948  0.2058  0.6224
   18MOL   C248 7082   6.298   1.971   4.918  0.2406  0.3878  0.6801
   18MOL   C249 7083   6.641   1.866   4.977  0.5064 -0.3069  0.9396
   18MOL   C250 7084   6.740   1.781   4.929 -0.5158 -0.1425 -0.0708
   18MOL   C251 7085   6.953   1.689   4.703  0.0693  0.0344 -0.4294
   18MOL   H252 7086   6.782   1.558   4.670 -0.0075 -0.3611  0.0237
   18MOL   H253 7087   6.576   1.636   4.672  1.5437  0.8766  0.2344
   18MOL   H254 7088   6.397   1.782   4.749  0.0228 -1.6235 -1.1253
   18MOL   H255 7089   6.229   2.036   4.972 -0.1510 -0.4340  1.1692
   18MOL   H256 7090   6.325   2.010   4.819  4.6853 -1.5112  1.0182
   18MOL   H257 7091   6.247   1.876   4.903  0.9039  0.4350 -2.2440
   18MOL   H258 7092   6.656   1.932   5.061 -0.4875  0.4174  0.5620
   18MOL   H259 7093   6.835   1.775   4.979 -1.3116 -0.9623  1.3806
   18MOL   H260 7094   7.043   1.630   4.688 -0.7093 -1.2519 -0.1443
   18MOL   H261 7095   6.987   1.758   4.780  0.2745  0.1751 -0.6468
   18MOL   C262 7096   6.923   1.764   4.564  0.4098  0.3881 -0.7209
   18MOL   C263 7097   6.881   1.666   4.456  0.3761  0.1152 -0.0145
   18MOL   C264 7098   6.753   1.676   4.405 -0.0016 -0.3874 -0.0925
   18MOL   C265 7099   6.702   1.609   4.299 -0.4851  0.7957  0.9333
   18MOL   C266 7100   6.789   1.508   4.238  0.2219 -0.1426 -0.6785
   18MOL   O267 7101   6.748   1.431   4.136  0.6540 -0.3872  0.3738
   18MOL   C268 7102   6.644   1.485   4.060 -0.1767 -0.0244 -1.9491
   18MOL   C269 7103   6.921   1.490   4.289 -0.1995  0.5479  0.3698
   18MOL   C270 7104   6.969   1.572   4.397 -0.8141 -0.3058 -0.5848
   18MOL   C271 7105   7.045   1.842   4.517 -0.5183  0.1382 -0.3542
   18MOL   H272 7106   6.837   1.827   4.587  0.7335  0.1399  1.3218
   18MOL   H273 7107   6.686   1.751   4.446  0.4134 -1.1194  1.9784
   18MOL   H274 7108   6.601   1.629   4.265 -0.6904  0.3155  1.2647
   18MOL   H275 7109   6.667   1.589   4.034  2.4214 -0.0492  0.0076
   18MOL   H276 7110   6.553   1.459   4.114  2.1391 -1.9270  1.1863
   18MOL   H277 7111   6.645   1.429   3.967  1.0300 -2.3463 -0.5734
   18MOL   H278 7112   6.988   1.422   4.237  0.1674  1.3519 -0.2267
   18MOL   H279 7113   7.072   1.554   4.427 -0.8189 -0.1850 -0.5010
   18MOL   H280 7114   7.094   1.903   4.593 -0.5034 -0.7831  0.3842
   18MOL   H281 7115   7.108   1.760   4.483 -0.2838  1.4315 -3.2069
   18MOL   C282 7116   7.021   1.929   4.388 -0.2552 -0.5802 -0.4050
   18MOL   C283 7117   7.150   1.954   4.316 -0.1749  0.4356 -0.1104
   18MOL   C284 7118   7.255   2.036   4.358  0.0000  0.0104  0.2636
   18MOL   C285 7119   7.381   2.038   4.292  0.4667 -0.5432 -0.1267
   18MOL   C286 7120   7.401   1.957   4.183  0.2967 -0.1221 -0.1214
   18MOL   O287 7121   7.528   1.959   4.131  0.4002  0.0108  0.6051
   18MOL   C288 7122   7.551   1.876   4.013 -0.1682  0.1007 -0.4468
   18MOL   C289 7123   7.299   1.874   4.137  0.0459  0.2519  0.2659
   18MOL   C290 7124   7.172   1.877   4.202 -0.3146 -0.1745  0.4287
   18MOL   C291 7125   6.963   2.066   4.421 -0.2409 -0.0456 -0.3032
   18MOL   H292 7126   6.955   1.869   4.326 -0.0519 -0.5107 -0.6928
   18MOL   H293 7127   7.240   2.081   4.455  0.0822  1.8347 -0.5500
   18MOL   H294 7128   7.450   2.112   4.330 -3.0769  1.7250  2.2235
   18MOL   H295 7129   7.567   1.773   4.044 -1.1921  0.2653  0.6719
   18MOL   H296 7130   7.466   1.891   3.946 -1.0874  1.1594  0.9304
   18MOL   H297 7131   7.645   1.910   3.970 -0.3793  0.2317 -0.8087
   18MOL   H298 7132   7.314   1.813   4.049  1.1381  1.2411 -0.2442
   18MOL   H299 7133   7.095   1.813   4.161 -1.3839  1.4588 -0.1212
   18MOL   H300 7134   6.886   2.044   4.496  1.2834  0.8710  1.5694
   18MOL   H301 7135   7.041   2.117   4.477 -0.4919  0.3937 -0.3466
   18MOL   C302 7136   6.908   2.149   4.302  0.2783  0.5522 -0.5810
   18MOL   C303 7137   6.816   2.061   4.210 -0.9011 -0.0988 -0.4192
   18MOL   C304 7138   6.853   2.026   4.080  0.0818  0.2692 -0.1371
   18MOL   C305 7139   6.782   1.937   3.999  0.8743 -0.0912 -0.2782
   18MOL   C306 7140   6.662   1.890   4.049 -0.0745 -0.3271  0.5748
   18MOL   O307 7141   6.578   1.811   3.975 -0.3446  0.0059 -0.3543
   18MOL   C308 7142   6.600   1.814   3.836  0.4286  0.2116  0.1239
   18MOL   C309 7143   6.623   1.918   4.186  0.0043 -0.0180  0.3750
   18MOL   C310 7144   6.708   1.992   4.262 -0.7628  0.1790  0.0924
   18MOL   C311 7145   6.832   2.274   4.354 -0.5597 -0.3743  0.0433
   18MOL   H312 7146   6.985   2.184   4.233  1.6594  0.5096  0.9076
   18MOL   H313 7147   6.941   2.072   4.036 -0.4195  0.7172 -0.6724
   18MOL   H314 7148   6.813   1.925   3.897  0.6451 -0.2055 -0.3341
   18MOL   H315 7149   6.696   1.778   3.801  0.2169 -0.3593  0.1188
   18MOL   H316 7150   6.587   1.909   3.785  1.2242  0.3944  0.2650
   18MOL   H317 7151   6.530   1.743   3.792 -0.1665  1.1531 -0.4559
   18MOL   H318 7152   6.537   1.864   4.221  0.3340 -2.4488 -2.3483
   18MOL   H319 7153   6.680   2.014   4.364  0.1228  1.2820  0.1088
   18MOL   H320 7154   6.910   2.331   4.405  0.2491 -1.7632  0.3903
   18MOL   H321 7155   6.766   2.236   4.431 -2.1980 -0.8167 -1.5391
   18MOL   C322 7156   6.731   2.350   4.262 -0.2391  0.2237 -0.1244
   18MOL   C323 7157   6.804   2.417   4.151 -0.1797  0.2446  0.0130
   18MOL   C324 7158   6.889   2.529   4.172 -0.5149  0.5425 -0.3078
   18MOL   C325 7159   6.974   2.575   4.071 -0.2956 -0.8425  0.7122
   18MOL   C326 7160   6.965   2.513   3.946  0.3222  0.0319  0.1188
   18MOL   O327 7161   7.041   2.550   3.834 -0.6349  0.4593 -0.0501
   18MOL   C328 7162   7.130   2.656   3.844 -0.2935  0.4149  0.1285
   18MOL   C329 7163   6.874   2.407   3.926  0.1099 -0.1182  0.8030
   18MOL   C330 7164   6.796   2.356   4.026 -0.1252  0.9923  0.9280
   18MOL   C331 7165   6.653   2.445   4.347 -0.1834 -0.4069 -0.2779
   18MOL   H332 7166   6.658   2.278   4.225 -2.4707  2.2486  0.2545
   18MOL   H333 7167   6.888   2.567   4.273  0.0096 -3.0040  1.1097
   18MOL   H334 7168   7.037   2.660   4.089 -1.0258  0.0990 -1.0450
   18MOL   H335 7169   7.210   2.643   3.917 -0.9026  0.3256  0.7795
   18MOL   H336 7170   7.067   2.741   3.870 -1.0416 -0.0417 -0.1802
   18MOL   H337 7171   7.186   2.664   3.750 -1.8883 -0.1203 -0.8798
   18MOL   H338 7172   6.861   2.373   3.824  4.8188 -1.2813  0.5031
   18MOL   H339 7173   6.725   2.278   4.004 -1.3331  2.4014 -0.3229
   18MOL   H340 7174   6.596   2.384   4.417  0.4374  1.1856  1.6683
   18MOL   H341 7175   6.722   2.511   4.400 -0.9289 -0.1328  0.3595
   18MOL   C342 7176   6.550   2.544   4.279  0.8080  0.1651 -0.0058
   18MOL   C343 7177   6.501   2.644   4.383 -0.5448 -0.3080  0.1430
   18MOL   C344 7178   6.485   2.774   4.333  0.0274 -0.0271 -0.5107
   18MOL   C345 7179   6.441   2.882   4.412 -0.0767 -0.2147  0.2426
   18MOL   C346 7180   6.412   2.853   4.546 -0.0393 -0.0936 -0.0078
   18MOL   O347 7181   6.373   2.965   4.620 -0.3520 -0.0971  0.3874
   18MOL   C348 7182   6.452   2.982   4.730  0.5869  0.0157 -0.3114
   18MOL   C349 7183   6.425   2.724   4.596  0.0798 -0.0200 -0.4052
   18MOL   C350 7184   6.470   2.613   4.521  0.6740 -0.3200 -0.1102
   18MOL   C351 7185   6.441   2.461   4.209  0.0648 -0.1260 -0.2208
   18MOL   H352 7186   6.613   2.598   4.208  0.6961  1.0610  0.5689
   18MOL   H353 7187   6.505   2.787   4.228  0.2836  0.3403 -0.4178
   18MOL   H354 7188   6.446   2.977   4.363 -1.0117 -0.4997 -0.4089
   18MOL   H355 7189   6.529   3.051   4.699  1.3696 -0.9132 -0.4601
   18MOL   H356 7190   6.383   3.026   4.803 -0.6355  0.6042 -1.7896
   18MOL   H357 7191   6.489   2.898   4.789  0.9839  1.0135  0.8841
   18MOL   H358 7192   6.400   2.706   4.700 -0.2497 -2.9821 -0.9690
   18MOL   H359 7193   6.476   2.514   4.565 -1.0732 -0.1282  0.6183
   18MOL   H360 7194   6.431   2.362   4.254  1.2324 -1.2141 -2.2784
   18MOL   H361 7195   6.354   2.515   4.246  0.8242 -1.1976  3.2734
   18MOL   C362 7196   6.439   2.465   4.060 -0.2868 -0.1659  0.3412
   18MOL   C363 7197   6.420   2.604   4.007 -0.2019 -0.3381 -0.0479
   18MOL   C364 7198   6.293   2.653   3.996 -0.3767  0.0731 -0.1195
   18MOL   C365 7199   6.259   2.780   3.937  0.0799 -0.4570  0.2725
   18MOL   C366 7200   6.367   2.862   3.914  0.0514 -0.6277  0.6035
   18MOL   O367 7201   6.336   2.989   3.867 -0.4012  0.1400 -0.7227
   18MOL   C368 7202   6.422   3.057   3.778 -0.1078  0.0511  0.4446
   18MOL   C369 7203   6.505   2.817   3.926  0.8933  0.2185  0.3060
   18MOL   C370 7204   6.526   2.687   3.970  0.1029 -0.2450  0.1912
   18MOL   C371 7205   6.350   2.348   3.996  0.2770  0.6859  0.2921
   18MOL   H372 7206   6.542   2.443   4.033  0.7523  1.0445  3.1723
   18MOL   H373 7207   6.214   2.587   4.030 -2.2016  1.3898 -1.6943
   18MOL   H374 7208   6.156   2.806   3.919 -0.5810 -2.6411  0.7862
   18MOL   H375 7209   6.480   2.997   3.708 -1.2525 -0.0296 -0.4407
   18MOL   H376 7210   6.352   3.129   3.735  0.0365 -0.2244 -0.2600
   18MOL   H377 7211   6.493   3.126   3.825 -0.5658  1.7708 -1.3064
   18MOL   H378 7212   6.589   2.877   3.894  2.7209 -2.5194 -0.2307
   18MOL   H379 7213   6.627   2.649   3.975 -0.6702 -2.1269  2.9151
   18MOL   H380 7214   6.376   2.252   4.039 -0.1690  0.0508 -0.8489
   18MOL   H381 7215   6.255   2.366   4.048  0.2342 -0.9443  0.7882
   18MOL   C382 7216   6.350   2.343   3.840  0.5912 -0.3281  0.1625
   18MOL   C383 7217   6.237   2.242   3.795  0.1892 -0.2442 -0.4187
   18MOL   C384 7218   6.262   2.109   3.757 -0.2427 -0.6908  0.4587
   18MOL   C385 7219   6.154   2.024   3.735  0.3604 -0.0196  0.8418
   18MOL   C386 7220   6.021   2.074   3.741 -0.7428 -0.5005  0.1420
   18MOL   O387 7221   5.908   1.996   3.720  0.4326  0.4875  0.1387
   18MOL   C388 7222   5.924   1.861   3.676 -0.1530  0.0234 -0.1263
   18MOL   C389 7223   6.001   2.206   3.783  0.5957  0.2394  0.6784
   18MOL   C390 7224   6.109   2.290   3.805  0.2106  0.6346 -0.5286
   18MOL   C391 7225   6.483   2.305   3.773  0.0629 -0.3654 -0.9149
   18MOL   H392 7226   6.313   2.436   3.797 -0.9912  0.1772  2.5081
   18MOL   H393 7227   6.361   2.069   3.771 -1.6118 -3.5939  2.2141
   18MOL   H394 7228   6.166   1.917   3.730 -2.3544 -0.3352 -0.0390
   18MOL   H395 7229   5.833   1.802   3.668 -0.7011  0.5998  1.5725
   18MOL   H396 7230   5.994   1.805   3.739  1.6982  2.0460 -0.3020
   18MOL   H397 7231   5.963   1.863   3.575  2.6750 -0.8343  0.8920
   18MOL   H398 7232   5.897   2.232   3.794  1.1588  2.9490 -0.1969
   18MOL   H399 7233   6.090   2.390   3.840  1.6106  1.2219 -1.4333
   18MOL   H400 7234   6.463   2.303   3.666  0.9072  1.7245 -1.1343
   18MOL   H401 7235   6.527   2.210   3.805 -0.6924  0.0076  1.3869
   18MOL   H402 7236   6.566   2.371   3.799 -1.7168  1.3406  0.5873
   19MOL     C1 7237   4.737   5.255   0.081 -0.1705  0.7249 -0.1944
   19MOL     C2 7238   4.659   5.327   0.194 -0.1199  0.3467  0.8134
   19MOL     C3 7239   4.545   5.408   0.158  0.3851  0.0173  0.6947
   19MOL     C4 7240   4.490   5.486   0.257  0.5917 -0.0973 -0.0278
   19MOL     C5 7241   4.521   5.481   0.393  0.4012 -0.5814 -0.7759
   19MOL     O6 7242   4.441   5.551   0.479 -0.4610 -0.3052  0.3670
   19MOL     C7 7243   4.462   5.533   0.619 -0.9231 -0.7558  0.1294
   19MOL     C8 7244   4.640   5.408   0.427 -0.5726 -0.1677 -0.2523
   19MOL     C9 7245   4.705   5.328   0.326  0.0048 -0.8652 -0.9102
   19MOL    C10 7246   4.695   5.106   0.043 -0.0009  0.0693  0.1348
   19MOL    H11 7247   4.841   5.257   0.112 -0.2689 -1.1623  0.3059
   19MOL    H12 7248   4.500   5.422   0.061 -1.4984 -1.8715  1.2873
   19MOL    H13 7249   4.400   5.538   0.227 -0.5932 -0.5994  2.4767
   19MOL    H14 7250   4.555   5.581   0.647 -0.3103 -0.7655 -1.8065
   19MOL    H15 7251   4.384   5.593   0.667 -0.2596  0.1098  0.1309
   19MOL    H16 7252   4.455   5.430   0.655  0.1356 -0.8130  0.1766
   19MOL    H17 7253   4.667   5.397   0.531 -0.8846  2.3404  0.1237
   19MOL    H18 7254   4.797   5.276   0.351 -0.1503 -0.8560 -0.3122
   19MOL    H19 7255   4.677   5.047   0.133  0.0786 -0.6439 -0.3137
   19MOL    H20 7256   4.597   5.107   8.037 -0.0581 -0.5000  0.2384
   19MOL    H21 7257   4.734   5.319   8.032 -1.3470 -0.5084 -1.0663
   19MOL    C22 7258   4.793   5.017   7.995 -0.1201  0.1601  0.5259
   19MOL    C23 7259   4.915   4.996   0.029 -0.1393  0.5611 -0.3066
   19MOL    C24 7260   4.927   4.924   0.149 -0.2453 -1.0449 -0.0443
   19MOL    C25 7261   5.055   4.911   0.209  0.3551  0.0669  0.2373
   19MOL    C26 7262   5.174   4.953   0.142 -0.4216  0.4627  0.2047
   19MOL    O27 7263   5.303   4.936   0.187 -0.3326 -0.0050 -0.1355
   19MOL    C28 7264   5.308   4.865   0.314 -0.5513  0.5473  0.3020
   19MOL    C29 7265   5.159   5.008   0.015 -0.6414 -0.0305  0.9262
   19MOL    C30 7266   5.035   5.033   8.000 -0.3973  0.1450 -0.6626
   19MOL    C31 7267   4.729   4.888   7.937 -0.2342 -0.0260 -0.2496
   19MOL    H32 7268   4.820   5.079   7.910 -1.6090  1.2404  0.8191
   19MOL    H33 7269   4.834   4.902   0.198 -0.2187 -1.6051 -0.2409
   19MOL    H34 7270   5.065   4.873   0.310 -0.7497 -2.1062 -0.4429
   19MOL    H35 7271   5.411   4.840   0.339 -0.1820  2.2562  0.5724
   19MOL    H36 7272   5.259   4.768   0.307 -0.7911  0.6431  0.6675
   19MOL    H37 7273   5.269   4.918   0.400 -1.2136 -0.3583  0.5664
   19MOL    H38 7274   5.246   5.036   7.996 -1.1640  1.9315  1.0831
   19MOL    H39 7275   5.030   5.069   7.898  0.6802  0.2195 -0.6990
   19MOL    H40 7276   4.686   4.835   8.022  2.9583 -3.3999 -0.6125
   19MOL    H41 7277   4.642   4.905   7.873 -0.0323  1.7691 -0.0666
   19MOL    C42 7278   4.821   4.791   7.859  1.2398 -0.0636 -0.0413
   19MOL    C43 7279   4.899   4.853   7.742  1.0015  0.1234  0.2972
   19MOL    C44 7280   4.832   4.915   7.634 -0.3063 -0.0578  0.8524
   19MOL    C45 7281   4.908   4.971   7.527 -0.2446  0.6822  1.1254
   19MOL    C46 7282   5.050   4.969   7.525 -0.1069 -0.6558 -0.4762
   19MOL    O47 7283   5.136   5.031   7.434  0.2956  0.5789  0.1475
   19MOL    C48 7284   5.077   5.105   7.327 -0.9713 -0.1384 -0.2503
   19MOL    C49 7285   5.114   4.890   7.623  0.4526 -0.5904  0.0852
   19MOL    C50 7286   5.035   4.828   7.731  0.6498  0.4008  1.4620
   19MOL    C51 7287   4.734   4.672   7.815  0.4244 -0.1811 -0.2212
   19MOL    H52 7288   4.893   4.754   7.932  1.7873 -0.1834 -0.6408
   19MOL    H53 7289   4.725   4.928   7.638 -0.5153 -1.4086 -0.2581
   19MOL    H54 7290   4.853   5.025   7.452  1.6803 -0.3026 -1.0509
   19MOL    H55 7291   5.152   5.176   7.292 -0.9500  1.5035  3.0386
   19MOL    H56 7292   5.070   5.046   7.235  2.6970  1.9181 -1.9823
   19MOL    H57 7293   4.995   5.170   7.356 -0.8647 -1.1451  2.4359
   19MOL    H58 7294   5.222   4.889   7.622  0.4602 -0.0465 -0.7509
   19MOL    H59 7295   5.093   4.787   7.812 -0.0639 -1.0431  1.2444
   19MOL    H60 7296   4.661   4.701   7.740  1.0805  3.2310  0.3812
   19MOL    H61 7297   4.679   4.643   7.905  0.8675 -1.8006 -0.4634
   19MOL    C62 7298   4.818   4.548   7.771  0.0513  0.4087  0.3154
   19MOL    C63 7299   4.745   4.469   7.663  0.2990 -0.3704 -0.2183
   19MOL    C64 7300   4.634   4.386   7.692  0.5448  0.6414  0.3120
   19MOL    C65 7301   4.565   4.318   7.582 -0.0642 -0.2611  0.1700
   19MOL    C66 7302   4.607   4.340   7.449 -0.3348 -0.3647 -0.5802
   19MOL    O67 7303   4.535   4.275   7.353  0.0924  0.3375  0.6310
   19MOL    C68 7304   4.574   4.291   7.223 -0.3369 -0.2347  0.2468
   19MOL    C69 7305   4.722   4.424   7.426 -0.0417  0.0332 -0.1180
   19MOL    C70 7306   4.789   4.495   7.529  0.8518  0.5337 -0.2994
   19MOL    C71 7307   4.876   4.476   7.902  0.1407 -0.5021 -0.5383
   19MOL    H72 7308   4.910   4.581   7.723 -0.3492 -2.4495 -2.6126
   19MOL    H73 7309   4.614   4.376   7.798 -0.7589 -0.5826 -0.0379
   19MOL    H74 7310   4.473   4.265   7.599 -0.6670  0.4174 -0.8728
   19MOL    H75 7311   4.518   4.217   7.168 -0.9453  0.7537 -0.4675
   19MOL    H76 7312   4.682   4.278   7.213 -0.1769  0.2051  1.2776
   19MOL    H77 7313   4.546   4.391   7.190 -1.4613 -0.8553 -0.6809
   19MOL    H78 7314   4.761   4.450   7.329  1.1207  2.9565  1.0534
   19MOL    H79 7315   4.866   4.567   7.505 -1.2206  3.3058  1.0427
   19MOL    H80 7316   4.931   4.549   7.962 -0.9145  2.2160 -2.7319
   19MOL    H81 7317   4.791   4.450   7.965  0.4602  1.2065  0.6559
   19MOL    C82 7318   4.976   4.365   7.872  0.6722 -0.7261  0.5327
   19MOL    C83 7319   5.088   4.423   7.782  0.6986  0.7641  0.8997
   19MOL    C84 7320   5.179   4.516   7.831  0.0330 -0.5752 -0.3336
   19MOL    C85 7321   5.280   4.570   7.750  0.0415  0.2947  0.3871
   19MOL    C86 7322   5.288   4.540   7.610  0.4174  0.4464 -0.8132
   19MOL    O87 7323   5.365   4.614   7.520  0.5712 -0.1154 -0.0730
   19MOL    C88 7324   5.462   4.706   7.565 -0.4614 -0.4166 -0.5469
   19MOL    C89 7325   5.192   4.451   7.561  0.3968 -0.4943  0.3061
   19MOL    C90 7326   5.100   4.385   7.640  0.4379  1.2082  0.1371
   19MOL    C91 7327   5.034   4.292   7.995 -0.2496 -0.2484  0.3946
   19MOL    H92 7328   4.922   4.285   7.821 -0.2982 -0.1608  0.6573
   19MOL    H93 7329   5.167   4.543   7.935 -0.6078  2.5306 -1.1578
   19MOL    H94 7330   5.336   4.656   7.784 -1.5047  1.8421 -0.9069
   19MOL    H95 7331   5.527   4.737   7.483 -2.5051  0.4650 -1.8885
   19MOL    H96 7332   5.527   4.665   7.642  0.4910 -0.3464 -1.2968
   19MOL    H97 7333   5.420   4.791   7.618  0.7070 -0.0507 -0.1988
   19MOL    H98 7334   5.192   4.425   7.456 -0.0325 -0.8018  0.3823
   19MOL    H99 7335   5.034   4.307   7.605 -0.9480  1.5358  1.8881
   19MOL   H100 7336   5.115   4.225   7.967 -0.6593  0.3349 -2.2298
   19MOL   H101 7337   5.082   4.364   0.021  0.1994 -0.0238 -0.1746
   19MOL   C102 7338   4.930   4.217   0.046 -0.5303 -0.5526  0.0728
   19MOL   C103 7339   4.823   4.146   8.000  0.2806  0.0870 -0.7433
   19MOL   C104 7340   4.863   4.052   7.904 -0.1191  0.1386  0.0895
   19MOL   C105 7341   4.755   3.974   7.841 -0.3036 -0.4102  0.3348
   19MOL   C106 7342   4.621   3.996   7.873 -0.3007 -0.5434  0.2699
   19MOL   O107 7343   4.521   3.933   7.813  0.6671  0.0894  0.4952
   19MOL   C108 7344   4.536   3.838   7.709  0.0633  0.1455  0.4539
   19MOL   C109 7345   4.589   4.090   7.976  0.2036 -0.0690  1.0863
   19MOL   C110 7346   4.689   4.164   0.002 -0.5413 -0.8722  0.8280
   19MOL   C111 7347   5.006   4.118   0.129  0.0413  0.1108  0.2560
   19MOL   H112 7348   4.886   4.286   0.117  0.4938 -1.1544  1.3002
   19MOL   H113 7349   4.967   4.043   7.878 -0.4048 -2.1096 -0.3674
   19MOL   H114 7350   4.780   3.904   7.763 -4.4326  0.1632 -1.6370
   19MOL   H115 7351   4.586   3.747   7.743  1.2042  0.3100 -0.7112
   19MOL   H116 7352   4.432   3.831   7.677  0.1439 -0.4099  0.3054
   19MOL   H117 7353   4.595   3.881   7.627 -0.2249 -0.0026  0.1691
   19MOL   H118 7354   4.488   4.121   8.000 -0.1532  1.0146 -1.5253
   19MOL   H119 7355   4.663   4.239   0.076 -1.2631 -0.7073  0.4148
   19MOL   H120 7356   5.061   4.045   0.070  1.9648  0.3705  1.6688
   19MOL   H121 7357   5.087   4.174   0.175 -1.5841 -0.5532  4.1720
   19MOL   C122 7358   4.925   4.043   0.240  0.1311  0.6636  0.0641
   19MOL   C123 7359   5.018   4.001   0.355  0.0502 -0.8534 -0.2807
   19MOL   C124 7360   5.007   4.078   0.474 -1.3228 -0.1726  0.2227
   19MOL   C125 7361   5.094   4.049   0.577  0.0199  0.4566 -0.3691
   19MOL   C126 7362   5.202   3.953   0.567  0.1452  0.2770 -0.2716
   19MOL   O127 7363   5.289   3.944   0.679  0.0207  0.5918 -0.5636
   19MOL   C128 7364   5.404   3.858   0.666  0.4136 -0.5490  0.1834
   19MOL   C129 7365   5.210   3.878   0.447 -0.0463  0.0742  0.6303
   19MOL   C130 7366   5.120   3.907   0.334 -0.8056  0.6206 -0.5563
   19MOL   C131 7367   4.846   3.920   0.193 -0.3452  0.4378 -0.7987
   19MOL   H132 7368   4.846   4.109   0.275  0.0825  0.5224  0.2195
   19MOL   H133 7369   4.932   4.154   0.489 -1.6443 -0.0555 -1.9381
   19MOL   H134 7370   5.076   4.101   0.670  2.1237  1.0864 -0.2779
   19MOL   H135 7371   5.373   3.760   0.630 -0.9819 -0.8102  2.0075
   19MOL   H136 7372   5.468   3.916   0.600 -1.0857  0.5191 -0.3625
   19MOL   H137 7373   5.460   3.844   0.758  2.6777 -0.5141 -1.1426
   19MOL   H138 7374   5.289   3.807   0.431 -1.8512 -2.0202  0.6951
   19MOL   H139 7375   5.132   3.859   0.237  1.8098  0.6598 -0.2861
   19MOL   H140 7376   4.914   3.856   0.136 -2.7765 -0.3649 -2.9277
   19MOL   H141 7377   4.780   3.953   0.112  1.2440 -0.1313 -2.3799
   19MOL   C142 7378   4.768   3.836   0.300  0.3575  0.4254 -0.1574
   19MOL   C143 7379   4.646   3.914   0.350 -0.5561  0.7386 -0.2203
   19MOL   C144 7380   4.536   3.940   0.256 -0.7515 -0.1966  0.1329
   19MOL   C145 7381   4.418   3.997   0.301 -0.1173 -0.2072 -0.2941
   19MOL   C146 7382   4.411   4.050   0.432 -0.1955  0.7510 -0.4063
   19MOL   O147 7383   4.293   4.114   0.474  0.0562  0.2270  0.0115
   19MOL   C148 7384   4.298   4.183   0.598 -0.5211 -0.5941  0.8104
   19MOL   C149 7385   4.519   4.026   0.521  0.0478 -0.1515  0.2698
   19MOL   C150 7386   4.634   3.965   0.475  0.5061 -0.5391  0.1392
   19MOL   C151 7387   4.732   3.695   0.247 -0.3182 -0.2700  0.0978
   19MOL   H152 7388   4.833   3.815   0.385  0.8425  0.4682 -0.5148
   19MOL   H153 7389   4.535   3.909   0.153  1.5361 -1.1309  0.3683
   19MOL   H154 7390   4.342   4.025   0.229 -1.0240  0.7870  1.0026
   19MOL   H155 7391   4.211   4.243   0.622 -1.4955 -1.5151 -0.3693
   19MOL   H156 7392   4.311   4.113   0.680 -3.0065 -1.5327  0.4413
   19MOL   H157 7393   4.369   4.265   0.608 -1.3064  0.3448 -1.1156
   19MOL   H158 7394   4.525   4.043   0.628  0.5617 -2.6876  0.6813
   19MOL   H159 7395   4.711   3.942   0.546  1.3626  2.6286  0.2878
   19MOL   H160 7396   4.658   3.696   0.167 -0.4013  0.3147  0.1766
   19MOL   H161 7397   4.664   3.648   0.318 -1.5986  1.2122 -0.1107
   19MOL   C162 7398   4.853   3.604   0.222  0.7986 -0.9831  1.1022
   19MOL   C163 7399   4.863   3.551   0.074 -0.3726  0.1620 -0.4017
   19MOL   C164 7400   4.965   3.601   8.034  0.2490  0.3787 -0.5594
   19MOL   C165 7401   4.983   3.554   7.902  0.3613 -0.0263  0.4183
   19MOL   C166 7402   4.889   3.465   7.844 -0.4618 -1.0957 -0.6397
   19MOL   O167 7403   4.885   3.424   7.712 -0.5138  0.1268 -0.0698
   19MOL   C168 7404   4.962   3.501   7.618  0.2793  0.4241 -0.2092
   19MOL   C169 7405   4.787   3.414   7.928 -0.3672  0.5677  0.3331
   19MOL   C170 7406   4.771   3.461   0.021 -0.9718  0.4244  0.0861
   19MOL   C171 7407   4.873   3.496   0.329 -0.3464 -0.1519  0.9583
   19MOL   H172 7408   4.938   3.671   0.235  1.0452 -0.4346 -2.7386
   19MOL   H173 7409   5.031   3.675   0.036  0.9796 -1.3704  1.5225
   19MOL   H174 7410   5.070   3.587   7.847  0.4022 -2.9740 -1.4443
   19MOL   H175 7411   4.924   3.477   7.519 -1.0565  0.1062  0.3771
   19MOL   H176 7412   5.068   3.477   7.628 -0.5860 -3.1686  1.4841
   19MOL   H177 7413   4.953   3.609   7.616 -1.1656  0.2757 -2.6222
   19MOL   H178 7414   4.711   3.349   7.886 -1.8071  1.9609  0.7581
   19MOL   H179 7415   4.696   3.418   0.085  0.5326 -1.0925  0.8722
   19MOL   H180 7416   4.788   3.435   0.357  0.7540 -1.4657  1.4895
   19MOL   H181 7417   4.875   3.550   0.424  0.6713  0.0309  0.8406
   19MOL   C182 7418   5.005   3.400   0.319  0.0811  0.3967  0.2147
   19MOL   C183 7419   5.000   3.280   0.411  0.3409 -0.0415  0.3871
   19MOL   C184 7420   5.045   3.149   0.368 -0.0264  0.1202  0.1342
   19MOL   C185 7421   5.049   3.047   0.461  0.2882  0.4020 -0.1210
   19MOL   C186 7422   4.996   3.065   0.593 -0.5698  0.8759 -0.1343
   19MOL   O187 7423   5.013   2.969   0.686  0.4820  0.0655 -0.5086
   19MOL   C188 7424   5.106   2.866   0.656  0.2583 -0.1458  0.6648
   19MOL   C189 7425   4.952   3.198   0.636 -0.0395 -0.6102 -0.1166
   19MOL   C190 7426   4.959   3.300   0.543  0.1506 -0.5558 -0.5676
   19MOL   C191 7427   5.131   3.486   0.332  0.4873  0.2226  0.1842
   19MOL   H192 7428   5.010   3.354   0.220  0.1117  0.1696  0.3230
   19MOL   H193 7429   5.074   3.127   0.266  2.5937  0.3478  0.8147
   19MOL   H194 7430   5.093   2.958   0.419 -0.9901 -0.1562 -0.2883
   19MOL   H195 7431   5.073   2.810   0.568  2.8236  1.3018 -1.3018
   19MOL   H196 7432   5.130   2.795   0.735 -2.4236 -2.4284 -0.4812
   19MOL   H197 7433   5.196   2.918   0.625  0.3278 -1.8888 -2.3208
   19MOL   H198 7434   4.916   3.207   0.738 -1.5873 -1.5676 -0.5599
   19MOL   H199 7435   4.939   3.400   0.578 -1.3720 -1.3532  0.9102
   19MOL   H200 7436   5.130   3.583   0.282  0.0668  0.6498  1.0202
   19MOL   H201 7437   5.127   3.510   0.438 -0.7864  0.0641  0.1891
   19MOL   C202 7438   5.260   3.412   0.299 -0.1905 -0.0989 -0.7735
   19MOL   C203 7439   5.379   3.487   0.357  0.4670 -0.0051  0.8376
   19MOL   C204 7440   5.451   3.445   0.471  0.0937 -0.2908  0.4857
   19MOL   C205 7441   5.550   3.518   0.539  0.1980 -0.2140 -0.4669
   19MOL   C206 7442   5.605   3.634   0.480 -0.7039 -0.1262 -0.5793
   19MOL   O207 7443   5.697   3.702   0.552  0.1497  0.4641 -0.2593
   19MOL   C208 7444   5.776   3.799   0.486 -0.2601  0.0354  0.5966
   19MOL   C209 7445   5.538   3.688   0.363 -0.2832  0.7221 -0.1931
   19MOL   C210 7446   5.427   3.615   0.308  0.0713 -0.3733 -0.4257
   19MOL   C211 7447   5.281   3.384   0.148  0.0925  0.4377 -0.4883
   19MOL   H212 7448   5.258   3.313   0.345 -0.1022  0.6295  0.8512
   19MOL   H213 7449   5.422   3.348   0.510 -1.7357 -1.4165 -3.3959
   19MOL   H214 7450   5.598   3.478   0.627 -1.1511  1.7151  1.2098
   19MOL   H215 7451   5.818   3.755   0.396 -3.2087 -0.1855 -0.7586
   19MOL   H216 7452   5.727   3.892   0.458 -1.2112  0.1152  2.3792
   19MOL   H217 7453   5.854   3.829   0.556  1.5635 -2.1905 -0.4283
   19MOL   H218 7454   5.579   3.783   0.331 -2.1931  2.0248  1.1156
   19MOL   H219 7455   5.374   3.653   0.222 -1.0996 -0.5651  0.2023
   19MOL   H220 7456   5.291   3.478   0.094  0.0784  0.0754 -1.1259
   19MOL   H221 7457   5.188   3.346   0.104 -0.5017 -1.1604  2.0257
   19MOL   C222 7458   5.399   3.279   0.120 -0.4125  0.5527 -0.1029
   19MOL   C223 7459   5.359   3.141   0.176  0.0433 -0.2588 -0.6729
   19MOL   C224 7460   5.410   3.104   0.307  0.3755 -0.9715 -1.0312
   19MOL   C225 7461   5.381   2.977   0.356 -0.3164 -0.4211 -0.1509
   19MOL   C226 7462   5.312   2.883   0.284 -0.5925  0.8821 -0.0328
   19MOL   O227 7463   5.295   2.756   0.344 -0.8556  0.1075 -0.4569
   19MOL   C228 7464   5.237   2.661   0.266 -0.6160 -0.6008  0.1444
   19MOL   C229 7465   5.262   2.924   0.161  0.0457  0.2278  0.4186
   19MOL   C230 7466   5.286   3.050   0.100  1.0381  0.1841 -0.3102
   19MOL   C231 7467   5.439   3.271   8.011  0.4666 -0.5069  0.6233
   19MOL   H232 7468   5.483   3.315   0.178 -1.4047 -0.1287  1.7837
   19MOL   H233 7469   5.463   3.176   0.367 -2.9659  0.8098 -0.0823
   19MOL   H234 7470   5.427   2.944   0.448  0.7970 -0.4615 -0.7143
   19MOL   H235 7471   5.132   2.685   0.248 -0.7630  0.6629  2.4704
   19MOL   H236 7472   5.283   2.653   0.168  2.1220  0.2223  1.3131
   19MOL   H237 7473   5.251   2.564   0.314  0.2919 -0.1140  0.8788
   19MOL   H238 7474   5.205   2.850   0.106  1.0671 -1.2126  1.2657
   19MOL   H239 7475   5.256   3.067   8.038  0.4999  1.4160  0.0436
   19MOL   H240 7476   5.507   3.187   7.999  1.3210  0.4614 -1.7830
   19MOL   H241 7477   5.353   3.247   7.949  1.7741 -1.1228 -0.9825
   19MOL   C242 7478   5.491   3.404   7.950  0.3108 -0.4643 -1.1811
   19MOL   C243 7479   5.638   3.388   7.908  0.4783  0.3286 -0.5271
   19MOL   C244 7480   5.674   3.352   7.779 -0.0029 -0.2698  0.5004
   19MOL   C245 7481   5.804   3.321   7.740 -0.0769 -0.0639 -0.1701
   19MOL   C246 7482   5.907   3.340   7.831  0.1915 -0.9226  0.3411
   19MOL   O247 7483   6.035   3.318   7.785 -0.4611  0.3398  0.2941
   19MOL   C248 7484   6.140   3.337   7.879 -0.0160 -0.3653  0.0781
   19MOL   C249 7485   5.875   3.381   7.963 -0.4372  0.1778 -0.1211
   19MOL   C250 7486   5.743   3.395   8.004  0.2264 -0.2734  0.2133
   19MOL   C251 7487   5.409   3.471   7.841 -0.2317  0.1312  0.1792
   19MOL   H252 7488   5.492   3.486   8.021  0.0982 -2.1954  0.8839
   19MOL   H253 7489   5.591   3.348   7.709 -0.8252 -0.2240  1.4648
   19MOL   H254 7490   5.821   3.282   7.640  0.3238 -2.2364  0.7251
   19MOL   H255 7491   6.236   3.311   7.833 -0.3908 -1.2286 -0.2227
   19MOL   H256 7492   6.143   3.442   7.907 -1.9180 -0.2729 -0.0528
   19MOL   H257 7493   6.130   3.264   7.960 -0.4448  2.0626  2.2645
   19MOL   H258 7494   5.947   3.396   0.002 -0.4805  0.9914 -0.2320
   19MOL   H259 7495   5.716   3.422   0.065 -0.9895 -0.8782  0.0613
   19MOL   H260 7496   5.320   3.503   7.896  1.1045 -1.4400  3.3886
   19MOL   H261 7497   5.373   3.388   7.779  0.5803 -0.9894  1.1786
   19MOL   C262 7498   5.458   3.603   7.771 -0.2054  0.2993 -0.0534
   19MOL   C263 7499   5.485   3.704   7.879 -0.2390 -0.1949  0.4106
   19MOL   C264 7500   5.612   3.724   7.932  0.3439 -0.1783 -0.1454
   19MOL   C265 7501   5.631   3.814   8.038  0.0235 -0.0901 -0.3959
   19MOL   C266 7502   5.526   3.882   0.062 -0.2816 -0.1125  0.7003
   19MOL   O267 7503   5.544   3.961   0.174 -0.4616  0.9880 -0.3287
   19MOL   C268 7504   5.668   4.024   0.200 -0.1652  0.0405  0.2975
   19MOL   C269 7505   5.396   3.855   0.019  0.1825 -0.2518  0.9877
   19MOL   C270 7506   5.372   3.767   7.951  0.7326  0.4945 -0.3472
   19MOL   C271 7507   5.352   3.646   7.661 -0.7955  0.0789 -0.0779
   19MOL   H272 7508   5.549   3.588   7.711 -2.0062 -0.3713 -2.7213
   19MOL   H273 7509   5.697   3.674   7.889 -0.7807 -1.7016 -0.6216
   19MOL   H274 7510   5.731   3.835   0.033  0.1405 -0.3828 -0.5586
   19MOL   H275 7511   5.656   4.095   0.282 -0.1041 -0.6399  0.9008
   19MOL   H276 7512   5.699   4.086   0.117  3.0389  0.0139  1.4088
   19MOL   H277 7513   5.747   3.953   0.226 -0.2134 -0.6594 -1.4464
   19MOL   H278 7514   5.311   3.904   0.064 -1.9257 -0.4600 -2.5176
   19MOL   H279 7515   5.275   3.751   7.907 -0.3265 -1.7872  2.5871
   19MOL   H280 7516   5.356   3.578   7.576  1.4321 -0.3504  0.3225
   19MOL   H281 7517   5.250   3.655   7.698 -1.4888 -0.6944 -1.7416
   19MOL   C282 7518   5.374   3.780   7.605  0.0465  0.0074 -0.1349
   19MOL   C283 7519   5.238   3.825   7.549 -0.5534  0.6006  0.0326
   19MOL   C284 7520   5.160   3.913   7.622  0.1850 -0.2554 -0.4099
   19MOL   C285 7521   5.039   3.966   7.571  0.3169 -0.7026  1.1686
   19MOL   C286 7522   4.999   3.931   7.439 -0.1581  0.4305 -0.3866
   19MOL   O287 7523   4.877   3.963   7.393  0.0468 -0.3906 -0.4018
   19MOL   C288 7524   4.818   4.086   7.434  0.1467 -0.1526 -0.1208
   19MOL   C289 7525   5.079   3.845   7.365 -0.1504  0.4629 -0.1343
   19MOL   C290 7526   5.197   3.793   7.419  0.1340 -0.3283  0.0716
   19MOL   C291 7527   5.484   3.794   7.502  0.1552  0.0389 -0.7055
   19MOL   H292 7528   5.400   3.852   7.683 -0.3557 -0.1147  0.1088
   19MOL   H293 7529   5.197   3.932   7.722  2.5939 -1.7957 -0.9517
   19MOL   H294 7530   4.977   4.033   7.629 -0.8928  0.9082 -1.8952
   19MOL   H295 7531   4.736   4.105   7.365  0.1027  1.3516  0.3313
   19MOL   H296 7532   4.775   4.077   7.534  4.1714 -1.9006  1.5438
   19MOL   H297 7533   4.890   4.167   7.422  1.3911 -1.2895 -0.4429
   19MOL   H298 7534   5.045   3.820   7.266 -1.8579 -0.3144  0.6407
   19MOL   H299 7535   5.264   3.746   7.347  0.2257  0.3857 -0.3150
   19MOL   H300 7536   5.567   3.736   7.541  0.2088  1.0288  0.6826
   19MOL   H301 7537   5.472   3.746   7.405 -2.2346  2.4659 -1.6880
   19MOL   C302 7538   5.526   3.941   7.467 -0.0678 -0.3854 -0.1212
   19MOL   C303 7539   5.538   4.034   7.590 -0.3663 -0.6793  0.4611
   19MOL   C304 7540   5.449   4.143   7.609  0.1297 -0.7551 -0.4526
   19MOL   C305 7541   5.464   4.225   7.719  0.2395  0.7199  0.0039
   19MOL   C306 7542   5.573   4.207   7.809  0.8447  0.0427  0.8046
   19MOL   O307 7543   5.608   4.295   7.909  0.0945  0.3632  0.4791
   19MOL   C308 7544   5.533   4.415   7.917 -0.3133  0.1914  0.2925
   19MOL   C309 7545   5.662   4.099   7.792 -0.1993  0.6073 -1.4447
   19MOL   C310 7546   5.647   4.014   7.683  0.8003  1.2471  0.6499
   19MOL   C311 7547   5.634   3.954   7.353 -0.1335 -0.2525  0.1192
   19MOL   H312 7548   5.441   3.990   7.419 -0.9369 -2.0103 -0.2577
   19MOL   H313 7549   5.374   4.172   7.536 -1.8515 -2.3668  0.8813
   19MOL   H314 7550   5.399   4.312   7.716 -1.5110 -0.5643  0.0643
   19MOL   H315 7551   5.432   4.406   7.959 -0.3173  2.0583  0.7336
   19MOL   H316 7552   5.536   4.456   7.816  2.3549 -0.2984  0.1478
   19MOL   H317 7553   5.601   4.477   7.974  2.5541 -0.7768 -1.9624
   19MOL   H318 7554   5.747   4.089   7.858 -2.2888 -0.6784  1.1969
   19MOL   H319 7555   5.711   3.930   7.663  0.4464  1.6556 -2.4342
   19MOL   H320 7556   5.610   3.891   7.267  1.5125 -1.0853  0.2692
   19MOL   H321 7557   5.720   3.898   7.389 -0.0222  0.6016  1.2048
   19MOL   C322 7558   5.673   4.101   7.302 -0.6483 -0.3680 -0.0962
   19MOL   C323 7559   5.543   4.175   7.263 -0.5829 -0.4853  0.3671
   19MOL   C324 7560   5.513   4.302   7.318 -0.2526 -0.0177  0.6707
   19MOL   C325 7561   5.398   4.376   7.282 -0.5813 -0.4833 -0.0264
   19MOL   C326 7562   5.309   4.318   7.191 -0.4228 -0.0310  0.3719
   19MOL   O327 7563   5.184   4.375   7.163 -0.4976 -0.3623  0.2353
   19MOL   C328 7564   5.169   4.518   7.180 -0.1052  0.8818  0.4363
   19MOL   C329 7565   5.339   4.195   7.140  0.5582 -0.3219  0.4968
   19MOL   C330 7566   5.455   4.124   7.172  0.3118 -0.2047 -0.1415
   19MOL   C331 7567   5.789   4.104   7.201  0.0733 -0.1243  0.5542
   19MOL   H332 7568   5.710   4.152   7.391  0.7939 -0.6654 -0.5142
   19MOL   H333 7569   5.583   4.328   7.396  2.6710 -1.1378 -1.4920
   19MOL   H334 7570   5.389   4.471   7.332 -1.1820 -1.0320  0.9123
   19MOL   H335 7571   5.068   4.552   7.157  0.1498  2.2326  1.2675
   19MOL   H336 7572   5.243   4.565   7.116 -0.1239 -1.1523 -1.1371
   19MOL   H337 7573   5.183   4.555   7.281 -0.9404  2.6989 -0.1043
   19MOL   H338 7574   5.264   4.156   7.073  1.1966 -1.4829  0.4488
   19MOL   H339 7575   5.466   4.026   7.129 -2.8360 -1.6115  2.1702
   19MOL   H340 7576   5.862   4.029   7.231 -1.6568 -0.6371  3.6773
   19MOL   H341 7577   5.743   4.042   7.123  2.6411 -0.9294 -0.3892
   19MOL   C342 7578   5.842   4.242   7.140 -0.2896  0.4608  0.5514
   19MOL   C343 7579   5.765   4.284   7.012 -0.6326 -0.3342  0.0639
   19MOL   C344 7580   5.768   4.208   6.895  0.1703  0.0314  0.1435
   19MOL   C345 7581   5.690   4.240   6.780  0.1950  0.1075  0.2529
   19MOL   C346 7582   5.620   4.358   6.771  0.3962  0.1949 -0.8297
   19MOL   O347 7583   5.553   4.397   6.658 -0.6336 -0.6735  0.9162
   19MOL   C348 7584   5.516   4.294   6.561 -0.7451  0.1291 -0.0992
   19MOL   C349 7585   5.614   4.446   6.888 -1.0180  0.1177  0.4573
   19MOL   C350 7586   5.673   4.394   7.009 -1.8604  0.3373  0.9731
   19MOL   C351 7587   5.994   4.249   7.118  0.2305 -0.1054 -0.1094
   19MOL   H352 7588   5.816   4.323   7.208  1.5478  4.0595 -2.7974
   19MOL   H353 7589   5.825   4.116   6.894 -0.2878 -0.2919  2.1867
   19MOL   H354 7590   5.707   4.165   6.704  0.5762 -0.3579  0.7922
   19MOL   H355 7591   5.447   4.218   6.596 -0.6953  0.1437  0.0287
   19MOL   H356 7592   5.452   4.330   6.480  0.7490 -0.7528 -1.7198
   19MOL   H357 7593   5.610   4.250   6.528 -0.9462 -1.9232  1.9790
   19MOL   H358 7594   5.564   4.541   6.883  0.5259  0.8338 -2.0206
   19MOL   H359 7595   5.667   4.459   7.094 -3.0641  0.5655  0.7181
   19MOL   H360 7596   6.052   4.162   7.088 -0.5785 -0.2392 -1.3140
   19MOL   H361 7597   6.017   4.317   7.036 -1.6299  1.2924  0.4843
   19MOL   C362 7598   6.066   4.318   7.249  0.2045 -0.5398  0.2466
   19MOL   C363 7599   6.205   4.363   7.222  0.1866  0.4678 -0.2818
   19MOL   C364 7600   6.302   4.267   7.184 -0.6408 -0.7116  0.0094
   19MOL   C365 7601   6.436   4.302   7.160 -0.3098 -0.6908 -0.2383
   19MOL   C366 7602   6.480   4.435   7.180 -0.8004  0.2976  0.9579
   19MOL   O367 7603   6.608   4.472   7.161 -0.1527 -0.1501 -0.0460
   19MOL   C368 7604   6.702   4.379   7.206  0.0211  1.0073 -0.4588
   19MOL   C369 7605   6.383   4.532   7.220 -0.1148 -0.3347 -0.1842
   19MOL   C370 7606   6.249   4.503   7.235  0.3167 -0.0094 -0.6598
   19MOL   C371 7607   6.049   4.221   7.366  0.3330  0.2836  0.9401
   19MOL   H372 7608   6.010   4.407   7.280  0.3802  0.9817 -3.4735
   19MOL   H373 7609   6.274   4.165   7.162 -1.0386 -0.8780  1.2960
   19MOL   H374 7610   6.508   4.232   7.120  0.4903 -0.2325  0.4074
   19MOL   H375 7611   6.682   4.349   7.309 -2.0867 -1.2758 -1.4867
   19MOL   H376 7612   6.724   4.302   7.132 -3.6001 -2.2520  1.6854
   19MOL   H377 7613   6.797   4.431   7.205  1.2669 -1.2105 -2.4340
   19MOL   H378 7614   6.420   4.633   7.234 -0.2733  0.0625 -2.4650
   19MOL   H379 7615   6.193   4.588   7.273 -1.0177 -0.3938 -1.7122
   19MOL   H380 7616   5.943   4.212   7.391  0.0137  0.6570 -0.2753
   19MOL   H381 7617   6.078   4.126   7.321  0.0168  0.9204 -0.6526
   19MOL   C382 7618   6.141   4.238   7.488  0.3318  0.0726 -0.8053
   19MOL   C383 7619   6.150   4.101   7.559 -0.0622 -0.0564 -0.0242
   19MOL   C384 7620   6.266   4.027   7.534  0.6151  0.8057 -0.8608
   19MOL   C385 7621   6.282   3.899   7.591 -0.0449 -0.1621  0.7801
   19MOL   C386 7622   6.184   3.843   7.675 -0.2811  0.0379  0.0102
   19MOL   O387 7623   6.192   3.720   7.730  1.0170 -0.2044  0.1003
   19MOL   C388 7624   6.320   3.655   7.738  0.0971 -0.6938 -0.2653
   19MOL   C389 7625   6.063   3.913   7.690  0.1551 -0.3715 -0.0110
   19MOL   C390 7626   6.050   4.041   7.639 -1.1090  0.2611  0.5957
   19MOL   C391 7627   6.087   4.334   7.594  0.9782  0.2580 -0.1213
   19MOL   H392 7628   6.239   4.277   7.459  0.3253  0.4325 -0.3529
   19MOL   H393 7629   6.342   4.070   7.471  1.0377  0.5189 -0.5521
   19MOL   H394 7630   6.369   3.842   7.563 -1.7761 -2.0979 -0.8513
   19MOL   H395 7631   6.321   3.572   7.808  0.0831 -0.4152  0.0647
   19MOL   H396 7632   6.405   3.722   7.752 -1.8080  1.6203  0.5632
   19MOL   H397 7633   6.326   3.629   7.632  1.3287  0.3754 -0.4749
   19MOL   H398 7634   5.979   3.873   7.743 -0.8522 -1.1404 -2.1469
   19MOL   H399 7635   5.954   4.087   7.655 -1.6506 -0.2278 -1.2333
   19MOL   H400 7636   5.979   4.329   7.608  1.1900 -2.8775  0.8302
   19MOL   H401 7637   6.105   4.434   7.556  0.8984  0.5004  0.4815
   19MOL   H402 7638   6.130   4.330   7.694  0.2952  2.2287  0.2786
   20MOL     C1 7639   3.737   6.461   5.355  0.0661 -0.0218 -0.0409
   20MOL     C2 7640   3.706   6.556   5.244 -0.6002 -0.6496  0.5061
   20MOL     C3 7641   3.715   6.520   5.108 -0.3477  0.6558  0.5861
   20MOL     C4 7642   3.647   6.601   5.009  0.6289 -0.4950 -0.1471
   20MOL     C5 7643   3.593   6.734   5.039  0.1184  0.2964 -0.4967
   20MOL     O6 7644   3.554   6.816   4.934 -0.1019  0.2352 -0.3273
   20MOL     C7 7645   3.536   6.953   4.965 -0.0086  0.3213 -0.0576
   20MOL     C8 7646   3.604   6.770   5.178 -0.0541  0.6477  1.0159
   20MOL     C9 7647   3.665   6.687   5.273  0.0974 -0.2824  0.4616
   20MOL    C10 7648   3.609   6.392   5.414  0.0822 -0.3448  0.5926
   20MOL    H11 7649   3.777   6.514   5.442 -0.8951 -0.7214  0.8477
   20MOL    H12 7650   3.757   6.427   5.073 -0.6170  1.2019 -1.2461
   20MOL    H13 7651   3.651   6.569   4.906  0.7501 -1.8990  0.2812
   20MOL    H14 7652   3.603   7.001   5.036 -0.7533 -0.7619  1.4151
   20MOL    H15 7653   3.550   7.011   4.874  3.2832 -0.2154  0.0216
   20MOL    H16 7654   3.435   6.962   5.004  0.6856  1.2511  1.5903
   20MOL    H17 7655   3.560   6.864   5.210  3.4705  2.5085  0.6666
   20MOL    H18 7656   3.667   6.713   5.378  2.7632  3.5197 -0.4288
   20MOL    H19 7657   3.553   6.469   5.467 -0.3017 -0.3372  0.1764
   20MOL    H20 7658   3.544   6.357   5.334  1.6631 -1.6250 -0.1623
   20MOL    H21 7659   3.811   6.386   5.330  0.3819  0.3310 -0.1688
   20MOL    C22 7660   3.635   6.275   5.510 -1.0855  1.0627 -0.1674
   20MOL    C23 7661   3.722   6.321   5.632 -0.1533 -0.2232  0.2887
   20MOL    C24 7662   3.839   6.255   5.662 -0.2448 -0.0470  0.5961
   20MOL    C25 7663   3.915   6.305   5.766  0.6676 -0.6485  0.1129
   20MOL    C26 7664   3.877   6.421   5.847  0.3093 -0.1064  0.0598
   20MOL    O27 7665   3.949   6.470   5.948 -0.6738  0.2556  0.1614
   20MOL    C28 7666   4.082   6.430   5.967 -0.1659 -0.1454  0.3083
   20MOL    C29 7667   3.760   6.487   5.810  0.1324 -0.2677 -0.9494
   20MOL    C30 7668   3.685   6.436   5.707 -0.2703  0.3116  0.2235
   20MOL    C31 7669   3.495   6.217   5.554  0.7855 -0.0959  0.1842
   20MOL    H32 7670   3.683   6.189   5.464 -0.5746  1.7974 -1.0387
   20MOL    H33 7671   3.855   6.158   5.618 -2.6115  0.1622 -0.7894
   20MOL    H34 7672   4.007   6.255   5.794  1.4156  1.3404  1.2790
   20MOL    H35 7673   4.098   6.337   6.021 -0.2680  0.4380  1.3425
   20MOL    H36 7674   4.123   6.496   6.043  1.5703 -2.5585  1.5371
   20MOL    H37 7675   4.150   6.434   5.882 -1.3177  2.3162 -0.5618
   20MOL    H38 7676   3.718   6.570   5.864 -0.9446 -1.4426  0.0369
   20MOL    H39 7677   3.590   6.479   5.682  0.0549 -0.1946 -2.0145
   20MOL    H40 7678   3.446   6.296   5.611 -0.7667 -0.5841 -0.4245
   20MOL    H41 7679   3.437   6.191   5.466  0.4353 -0.9582  0.6529
   20MOL    C42 7680   3.504   6.087   5.641  1.4064 -0.9836 -1.3485
   20MOL    C43 7681   3.517   5.955   5.568  0.3581  0.2568 -0.5519
   20MOL    C44 7682   3.403   5.870   5.549 -0.3321 -0.4219  0.3436
   20MOL    C45 7683   3.413   5.754   5.472  0.0353  0.2303 -0.1700
   20MOL    C46 7684   3.532   5.729   5.403  0.2726  0.1150  0.9077
   20MOL    O47 7685   3.539   5.630   5.313 -0.0146 -0.0749  0.0075
   20MOL    C48 7686   3.646   5.611   5.222 -0.0512 -0.3482  0.0104
   20MOL    C49 7687   3.646   5.807   5.428  0.4823 -0.5592  0.6698
   20MOL    C50 7688   3.640   5.923   5.511  0.0295 -0.2238  0.1174
   20MOL    C51 7689   3.387   6.091   5.742  0.1103  0.2728 -0.3838
   20MOL    H52 7690   3.588   6.092   5.711 -0.0888  2.3241  0.3474
   20MOL    H53 7691   3.314   5.892   5.606 -0.0547  1.7571 -0.0088
   20MOL    H54 7692   3.324   5.695   5.455  0.8485 -0.6612 -1.4037
   20MOL    H55 7693   3.724   5.551   5.268  0.5421  1.1346  0.9854
   20MOL    H56 7694   3.610   5.554   5.137  1.6549  1.0054 -1.6767
   20MOL    H57 7695   3.685   5.710   5.199  0.1078 -0.5268 -0.4959
   20MOL    H58 7696   3.741   5.781   5.383 -0.0683  1.9965 -2.1306
   20MOL    H59 7697   3.728   5.984   5.526 -0.5937  0.4910  0.9404
   20MOL    H60 7698   3.367   5.992   5.783  0.5346 -1.3442 -3.8599
   20MOL    H61 7699   3.296   6.120   5.689 -1.7503 -2.5514  1.1267
   20MOL    C62 7700   3.395   6.186   5.865 -0.5978  0.6567  0.2852
   20MOL    C63 7701   3.499   6.125   5.967 -0.1011 -0.1878 -0.0143
   20MOL    C64 7702   3.466   6.002   6.037  0.5289  0.0085  0.2694
   20MOL    C65 7703   3.562   5.939   6.122  0.3298 -0.3467  0.0141
   20MOL    C66 7704   3.689   5.997   6.136 -0.4989 -0.1984 -0.5833
   20MOL    O67 7705   3.795   5.937   6.198  0.4208  0.0852 -0.3968
   20MOL    C68 7706   3.791   5.795   6.223 -0.1498  0.0094  0.1056
   20MOL    C69 7707   3.718   6.121   6.067  0.5331  0.3180 -0.9599
   20MOL    C70 7708   3.623   6.186   5.990  0.4553 -0.0782  0.4524
   20MOL    C71 7709   3.263   6.218   5.940 -0.3027  0.4710  0.3013
   20MOL    H72 7710   3.432   6.279   5.823  1.1854  0.0790  0.5517
   20MOL    H73 7711   3.369   5.953   6.032 -0.0086  1.0386  0.4554
   20MOL    H74 7712   3.545   5.843   6.170  0.3054 -1.2272 -1.6934
   20MOL    H75 7713   3.712   5.750   6.284 -0.2033  0.1671  0.1522
   20MOL    H76 7714   3.883   5.765   6.272 -1.6485  0.1645  3.1295
   20MOL    H77 7715   3.780   5.737   6.132  0.1443  1.6517 -1.0001
   20MOL    H78 7716   3.814   6.167   6.083 -0.6633  1.8918  2.1802
   20MOL    H79 7717   3.643   6.285   5.952  0.6537 -0.6718 -1.0292
   20MOL    H80 7718   3.181   6.174   5.884 -1.6807  0.9966  1.8572
   20MOL    H81 7719   3.247   6.162   6.032 -1.6445 -0.2485 -0.3549
   20MOL    C82 7720   3.229   6.367   5.950  0.4074 -0.1456 -0.2111
   20MOL    C83 7721   3.244   6.453   5.824  0.1568  0.4395  1.2758
   20MOL    C84 7722   3.335   6.555   5.824  0.4701  0.0592 -0.5954
   20MOL    C85 7723   3.361   6.626   5.706 -0.0378  0.1786  0.7853
   20MOL    C86 7724   3.287   6.594   5.587  0.4126 -0.0717 -0.2160
   20MOL    O87 7725   3.322   6.650   5.466  0.4928  0.3706 -0.5915
   20MOL    C88 7726   3.389   6.770   5.466 -0.3098 -0.7597 -0.6349
   20MOL    C89 7727   3.197   6.490   5.586 -0.2958 -0.0969 -0.0285
   20MOL    C90 7728   3.172   6.421   5.703 -0.1537  0.2113  0.8801
   20MOL    C91 7729   3.092   6.392   6.004  0.2269 -0.2645 -0.6826
   20MOL    H92 7730   3.303   6.411   6.017 -0.9070  0.8890  0.5952
   20MOL    H93 7731   3.401   6.570   5.909  1.5021 -1.2010 -1.1561
   20MOL    H94 7732   3.439   6.700   5.703  0.0985  0.0228  0.3639
   20MOL    H95 7733   3.384   6.827   5.373 -1.2469 -0.9045 -0.6829
   20MOL    H96 7734   3.494   6.747   5.481 -0.4515 -1.1685 -0.2565
   20MOL    H97 7735   3.352   6.842   5.539  0.2152 -0.7322 -0.3914
   20MOL    H98 7736   3.159   6.463   5.488 -1.4590 -0.8805  0.6201
   20MOL    H99 7737   3.092   6.348   5.707 -0.7202  0.7841  0.1839
   20MOL   H100 7738   3.038   6.478   5.963  2.8244  0.7248 -2.1093
   20MOL   H101 7739   3.029   6.324   5.946  0.2219 -0.0826 -0.8932
   20MOL   C102 7740   3.075   6.370   6.150 -0.1092  0.0770  0.1992
   20MOL   C103 7741   3.132   6.475   6.237 -0.3624 -0.2321  0.8997
   20MOL   C104 7742   3.230   6.441   6.336  0.1007 -0.3708 -0.1193
   20MOL   C105 7743   3.273   6.534   6.432  0.0604  0.3950 -0.8787
   20MOL   C106 7744   3.214   6.664   6.438 -0.4268 -0.2088  0.2853
   20MOL   O107 7745   3.254   6.764   6.519  0.1349 -0.0123 -0.1708
   20MOL   C108 7746   3.289   6.731   6.649  0.0896  0.0472  0.0735
   20MOL   C109 7747   3.120   6.697   6.339  0.3363 -0.3459 -0.2613
   20MOL   C110 7748   3.077   6.608   6.238  0.1969 -0.5377 -0.2429
   20MOL   C111 7749   2.928   6.346   6.177  0.2758 -0.1188  0.5010
   20MOL   H112 7750   3.136   6.281   6.167  0.0819  0.3482  0.9813
   20MOL   H113 7751   3.285   6.348   6.333  4.4643  2.1277 -1.9354
   20MOL   H114 7752   3.341   6.497   6.507  1.2421 -1.1862 -2.6881
   20MOL   H115 7753   3.379   6.670   6.650 -0.4737 -0.8742 -1.7181
   20MOL   H116 7754   3.305   6.818   6.713 -0.5921  0.2023  0.0423
   20MOL   H117 7755   3.199   6.687   6.692  0.3297 -0.3417  0.1729
   20MOL   H118 7756   3.074   6.795   6.332 -2.4324 -1.4797  1.1818
   20MOL   H119 7757   3.000   6.633   6.166 -2.0203  2.3858  2.9531
   20MOL   H120 7758   2.897   6.423   6.247 -1.1619 -2.1896  2.2066
   20MOL   H121 7759   2.872   6.347   6.083  1.1540  2.0938 -0.0185
   20MOL   C122 7760   2.906   6.203   6.232  0.7323 -0.1526 -0.6171
   20MOL   C123 7761   2.971   6.092   6.158 -0.3476  0.1279 -0.4785
   20MOL   C124 7762   3.082   6.032   6.221  0.2329 -0.1643 -0.0710
   20MOL   C125 7763   3.136   5.916   6.164 -0.2119 -0.1300 -0.6899
   20MOL   C126 7764   3.089   5.857   6.052  0.1598 -0.2595  0.1081
   20MOL   O127 7765   3.161   5.752   6.002 -0.0724  0.1515 -1.2296
   20MOL   C128 7766   3.113   5.693   5.883 -0.4746 -0.3912 -0.8528
   20MOL   C129 7767   2.974   5.916   5.995  0.0276  0.0332  0.2063
   20MOL   C130 7768   2.920   6.031   6.048 -0.4298 -0.2714  0.1584
   20MOL   C131 7769   2.759   6.158   6.251 -0.0303 -0.2054  0.4863
   20MOL   H132 7770   2.954   6.209   6.330  2.6006  0.1504 -1.5280
   20MOL   H133 7771   3.120   6.065   6.317 -0.0196 -0.7036  0.2216
   20MOL   H134 7772   3.232   5.886   6.202  1.0589  1.5187 -2.5232
   20MOL   H135 7773   3.134   5.762   5.802  1.0123 -0.8017 -0.8325
   20MOL   H136 7774   3.178   5.608   5.862  0.7905  0.3153  0.1481
   20MOL   H137 7775   3.014   5.652   5.902  0.3656 -1.3578  1.6272
   20MOL   H138 7776   2.937   5.875   5.902  3.7539 -0.2670 -1.2255
   20MOL   H139 7777   2.830   6.076   6.009  0.8319  2.8969  0.7014
   20MOL   H140 7778   2.747   6.051   6.267 -1.3821 -0.2800 -0.9413
   20MOL   H141 7779   2.699   6.175   6.162 -1.1102  1.3919  1.5026
   20MOL   C142 7780   2.675   6.234   6.357 -0.2154 -0.3263  0.1921
   20MOL   C143 7781   2.522   6.213   6.354 -0.4669  0.4011  0.2488
   20MOL   C144 7782   2.435   6.319   6.323  0.2532  1.2978 -0.1688
   20MOL   C145 7783   2.301   6.303   6.314  0.1123  0.3164 -0.1305
   20MOL   C146 7784   2.238   6.179   6.338  0.1397  0.2351 -0.8215
   20MOL   O147 7785   2.099   6.171   6.332  0.0261  0.1603 -0.2930
   20MOL   C148 7786   2.042   6.069   6.261  0.4308  1.0334  0.1431
   20MOL   C149 7787   2.320   6.073   6.387  1.0371 -0.4098  0.0335
   20MOL   C150 7788   2.461   6.088   6.388  0.4502  0.0838  0.1347
   20MOL   C151 7789   2.727   6.194   6.496  0.4122 -0.0902 -0.3264
   20MOL   H152 7790   2.701   6.336   6.328  0.2818 -0.4643  0.1487
   20MOL   H153 7791   2.480   6.413   6.293 -0.8296  2.5242  1.9140
   20MOL   H154 7792   2.239   6.383   6.275  1.3843  0.7350 -1.3429
   20MOL   H155 7793   2.081   6.042   6.163  0.9481  0.6758  0.4498
   20MOL   H156 7794   2.052   5.980   6.322  3.3000  2.0175  1.2175
   20MOL   H157 7795   1.936   6.094   6.261  0.4625  1.2078 -1.1468
   20MOL   H158 7796   2.282   5.975   6.409  1.0648  0.0506  2.2660
   20MOL   H159 7797   2.525   6.007   6.420  1.8847  1.9298  2.1151
   20MOL   H160 7798   2.835   6.195   6.505  0.5911 -1.8279 -1.9646
   20MOL   H161 7799   2.703   6.090   6.519  0.3837  0.1202  0.6301
   20MOL   C162 7800   2.661   6.274   6.612  1.0119 -0.4486 -0.2515
   20MOL   C163 7801   2.710   6.417   6.602  0.1735 -0.1665  0.1732
   20MOL   C164 7802   2.615   6.520   6.580 -0.2280  0.3768  0.7171
   20MOL   C165 7803   2.657   6.653   6.587  0.5082 -0.4540 -0.4506
   20MOL   C166 7804   2.796   6.688   6.605  0.7701  0.2333 -1.0418
   20MOL   O167 7805   2.848   6.814   6.617  0.0324  0.0175  0.2892
   20MOL   C168 7806   2.755   6.913   6.655 -0.3753 -1.7250 -0.2822
   20MOL   C169 7807   2.885   6.585   6.606  0.3907 -0.7231  0.1484
   20MOL   C170 7808   2.845   6.452   6.613  0.4328  0.7224  0.1646
   20MOL   C171 7809   2.688   6.228   6.756  0.6827  0.6110 -0.2006
   20MOL   H172 7810   2.554   6.281   6.593  0.7315 -3.6240 -0.0357
   20MOL   H173 7811   2.511   6.501   6.557  0.4748 -3.3604  0.1718
   20MOL   H174 7812   2.583   6.730   6.569 -0.4868 -1.8652 -2.6725
   20MOL   H175 7813   2.806   7.008   6.669  0.6312 -1.6234 -4.0427
   20MOL   H176 7814   2.701   6.867   6.738 -1.9427  0.7403  0.1206
   20MOL   H177 7815   2.690   6.932   6.569  0.4096  3.9539  0.2015
   20MOL   H178 7816   2.992   6.596   6.606  0.4661 -1.3947 -0.2424
   20MOL   H179 7817   2.922   6.378   6.626  1.0194  1.0909 -1.1849
   20MOL   H180 7818   2.662   6.308   6.826 -2.1920  0.3466 -0.9224
   20MOL   H181 7819   2.796   6.224   6.768  1.0702  0.1817 -3.5079
   20MOL   C182 7820   2.612   6.098   6.805 -0.2761 -0.2240  0.9528
   20MOL   C183 7821   2.464   6.121   6.840 -0.0713  0.6383 -0.7903
   20MOL   C184 7822   2.367   6.111   6.738 -0.0792 -0.3240 -0.0574
   20MOL   C185 7823   2.226   6.137   6.761  0.8472  0.1942 -0.2785
   20MOL   C186 7824   2.188   6.161   6.893 -0.4328 -0.1887 -0.3734
   20MOL   O187 7825   2.056   6.203   6.911 -0.3136 -0.4250  0.3985
   20MOL   C188 7826   2.007   6.220   7.041  0.0845 -0.6200  0.0424
   20MOL   C189 7827   2.282   6.161   6.997  0.2900 -0.0469  0.1003
   20MOL   C190 7828   2.418   6.149   6.971 -0.1736  0.2471  0.4705
   20MOL   C191 7829   2.691   6.013   6.917  0.7423 -0.2772  0.3209
   20MOL   H192 7830   2.617   6.029   6.720  0.9096  0.5375  0.3784
   20MOL   H193 7831   2.403   6.079   6.641  1.2188 -0.9966  0.6490
   20MOL   H194 7832   2.155   6.130   6.680 -0.5928 -1.0643  1.0551
   20MOL   H195 7833   1.901   6.229   7.022  0.4675  0.8830 -1.5127
   20MOL   H196 7834   2.049   6.314   7.078 -0.3738  0.5418 -2.2936
   20MOL   H197 7835   2.022   6.140   7.114 -2.3546  1.1682  2.6201
   20MOL   H198 7836   2.241   6.178   7.096  1.2412 -0.2441  0.5263
   20MOL   H199 7837   2.483   6.149   7.057 -0.5723 -1.1747  0.7887
   20MOL   H200 7838   2.700   6.081   7.002 -2.0972 -1.3359  1.5445
   20MOL   H201 7839   2.626   5.928   6.936  1.0659 -0.1893  1.8997
   20MOL   C202 7840   2.835   5.963   6.869 -0.8436 -0.3909  0.3880
   20MOL   C203 7841   2.822   5.869   6.745 -0.3527  0.5875 -0.1366
   20MOL   C204 7842   2.764   5.739   6.757 -0.0977 -0.2461 -0.0660
   20MOL   C205 7843   2.748   5.654   6.649 -0.4437  0.7516  0.2371
   20MOL   C206 7844   2.795   5.696   6.523  0.4088 -0.2741  0.6046
   20MOL   O207 7845   2.781   5.612   6.410 -0.2526 -0.4190  0.6773
   20MOL   C208 7846   2.705   5.487   6.425 -0.7416  0.0830 -0.2705
   20MOL   C209 7847   2.858   5.821   6.505  0.1326  0.7895  0.1416
   20MOL   C210 7848   2.878   5.904   6.621 -0.2087  0.2095 -0.2682
   20MOL   C211 7849   2.912   5.878   6.976  0.5013  0.4221  0.1608
   20MOL   H212 7850   2.905   6.044   6.847  0.0389 -0.8028  1.6272
   20MOL   H213 7851   2.740   5.696   6.853 -1.3273 -0.9828 -0.6906
   20MOL   H214 7852   2.706   5.557   6.669  1.7372 -1.1991 -3.8008
   20MOL   H215 7853   2.739   5.434   6.337  0.2283  0.9894 -0.4604
   20MOL   H216 7854   2.718   5.424   6.513  1.0628 -1.7022 -1.7956
   20MOL   H217 7855   2.600   5.514   6.412 -1.2660 -1.9665 -0.3736
   20MOL   H218 7856   2.887   5.855   6.406 -1.4297  0.5654 -0.4153
   20MOL   H219 7857   2.935   5.994   6.606  1.6361 -1.1525 -1.6017
   20MOL   H220 7858   2.974   5.805   6.923 -0.2377  1.1174 -1.7328
   20MOL   H221 7859   2.845   5.815   7.033 -0.8944  1.6249 -0.1166
   20MOL   C222 7860   3.002   5.960   7.077 -0.0272  0.1383 -0.3956
   20MOL   C223 7861   2.929   6.081   7.140  0.2087  0.2033  0.9252
   20MOL   C224 7862   2.844   6.076   7.247  0.5815  0.5075  0.0077
   20MOL   C225 7863   2.772   6.196   7.291 -0.4345  0.7026 -0.1176
   20MOL   C226 7864   2.792   6.317   7.221 -0.4126 -0.5635 -0.0358
   20MOL   O227 7865   2.716   6.434   7.242 -0.5438  0.2506  0.0043
   20MOL   C228 7866   2.659   6.439   7.372 -0.8965  0.2845 -0.8554
   20MOL   C229 7867   2.890   6.323   7.115  0.7034  0.6245  0.0987
   20MOL   C230 7868   2.947   6.205   7.077  0.1881  0.2607  0.8581
   20MOL   C231 7869   3.060   5.867   7.185 -0.0558 -0.2482 -0.2760
   20MOL   H232 7870   3.076   6.003   7.009 -1.6627  1.9827 -1.0506
   20MOL   H233 7871   2.827   5.986   7.304 -0.9477  0.2063 -0.9086
   20MOL   H234 7872   2.698   6.179   7.367  1.4233  1.5000  1.9128
   20MOL   H235 7873   2.736   6.413   7.445 -1.9463  0.5390  0.3759
   20MOL   H236 7874   2.617   6.539   7.385  1.4498  1.6101 -3.1879
   20MOL   H237 7875   2.577   6.367   7.370 -0.4773 -0.2018 -0.5181
   20MOL   H238 7876   2.917   6.415   7.066 -1.7022  1.7297  0.7361
   20MOL   H239 7877   3.010   6.207   6.989  0.1894  0.4587  0.8638
   20MOL   H240 7878   2.985   5.818   7.246 -2.1719  2.4094 -0.6614
   20MOL   H241 7879   3.116   5.789   7.133  2.3122  0.2641  1.4187
   20MOL   C242 7880   3.142   5.940   7.295 -0.1950  0.6306 -0.2406
   20MOL   C243 7881   3.166   5.858   7.426 -0.4231  0.3554  0.5582
   20MOL   C244 7882   3.250   5.737   7.423 -0.6468  0.2281 -0.0313
   20MOL   C245 7883   3.246   5.655   7.536 -0.3285 -0.2911  0.0700
   20MOL   C246 7884   3.171   5.683   7.648 -1.1451  0.3814 -0.3787
   20MOL   O247 7885   3.173   5.604   7.764 -0.0072 -0.4253  0.1689
   20MOL   C248 7886   3.278   5.506   7.774  0.9288  0.4348 -0.0336
   20MOL   C249 7887   3.097   5.804   7.653 -1.0711 -0.3421  0.5095
   20MOL   C250 7888   3.087   5.889   7.542  0.5241 -0.1126  1.0298
   20MOL   C251 7889   3.274   5.997   7.244  0.0888  0.6983 -0.2559
   20MOL   H252 7890   3.083   6.026   7.327 -1.8811  0.2273 -2.1694
   20MOL   H253 7891   3.299   5.692   7.338 -0.9315  0.1436 -0.1490
   20MOL   H254 7892   3.311   5.569   7.528  0.1224 -0.0499  1.0936
   20MOL   H255 7893   3.272   5.443   7.685 -0.5749  1.7162 -0.8579
   20MOL   H256 7894   3.373   5.558   7.782  1.5755 -0.9366  1.3835
   20MOL   H257 7895   3.275   5.441   7.862  1.9156  0.3856 -0.0277
   20MOL   H258 7896   3.036   5.822   7.740  1.3190  1.8915  1.7821
   20MOL   H259 7897   3.026   5.977   7.532  2.8194  1.4184  0.2403
   20MOL   H260 7898   3.262   6.046   7.148  1.2340  0.5333 -0.4945
   20MOL   H261 7899   3.342   5.914   7.224  0.8034  1.2303 -0.0467
   20MOL   C262 7900   3.352   6.098   7.337 -0.5213  0.1989 -0.3932
   20MOL   C263 7901   3.278   6.229   7.356  0.7433 -0.5801 -0.5094
   20MOL   C264 7902   3.235   6.312   7.251 -0.2227  0.5613 -0.4303
   20MOL   C265 7903   3.159   6.426   7.278 -0.0027 -0.3591  0.9100
   20MOL   C266 7904   3.131   6.460   7.411  0.3741  0.0763  0.2662
   20MOL   O267 7905   3.060   6.572   7.443  0.3526 -0.2361  0.7284
   20MOL   C268 7906   3.010   6.655   7.338  0.4466  0.2736  0.5183
   20MOL   C269 7907   3.173   6.374   7.516 -0.0091  0.0516  0.4511
   20MOL   C270 7908   3.248   6.255   7.487  0.0090  0.7324 -0.5150
   20MOL   C271 7909   3.489   6.136   7.275  0.0261  1.3567 -0.1319
   20MOL   H272 7910   3.366   6.042   7.430  1.3632  0.0451 -0.7371
   20MOL   H273 7911   3.247   6.279   7.149  2.7395  0.6218 -0.1509
   20MOL   H274 7912   3.123   6.485   7.195 -0.2714  0.3425  1.5174
   20MOL   H275 7913   2.937   6.607   7.273  0.6636  0.4915  0.1171
   20MOL   H276 7914   3.091   6.707   7.288  0.7416 -0.4515  0.2371
   20MOL   H277 7915   2.950   6.737   7.379  1.5392 -0.2962  3.3953
   20MOL   H278 7916   3.148   6.399   7.618  1.0575 -0.5092  0.8621
   20MOL   H279 7917   3.291   6.200   7.569  0.7477 -0.2982 -1.5769
   20MOL   H280 7918   3.480   6.142   7.167 -0.3756 -1.6589 -0.2964
   20MOL   H281 7919   3.526   6.232   7.312 -3.2201  1.9780  1.6447
   20MOL   C282 7920   3.595   6.036   7.318 -0.6328  0.2146 -0.0208
   20MOL   C283 7921   3.596   6.001   7.466 -0.8414 -0.0385 -0.7719
   20MOL   C284 7922   3.646   6.097   7.559  0.1104  0.2991  0.0912
   20MOL   C285 7923   3.656   6.068   7.690  0.3588  0.6470  0.0289
   20MOL   C286 7924   3.602   5.952   7.744  0.7707 -0.1353  0.1659
   20MOL   O287 7925   3.612   5.927   7.876 -0.7655  0.7970 -0.1525
   20MOL   C288 7926   3.584   6.036   7.964  0.2536  0.2932  0.2850
   20MOL   C289 7927   3.544   5.854   7.657 -0.7559  0.0292  0.8733
   20MOL   C290 7928   3.541   5.877   7.520 -0.2676 -0.6214 -0.4338
   20MOL   C291 7929   3.736   6.059   7.251 -0.0463 -0.0185  0.2649
   20MOL   H292 7930   3.557   5.943   7.276 -3.5302  2.1222 -1.8349
   20MOL   H293 7931   3.681   6.194   7.527  2.3023 -1.0937 -1.9432
   20MOL   H294 7932   3.721   6.125   7.756 -1.0490 -0.2685  2.2683
   20MOL   H295 7933   3.478   6.051   7.943 -0.0530 -0.1151  1.5031
   20MOL   H296 7934   3.586   6.017   0.032  1.4619  4.1938  1.0263
   20MOL   H297 7935   3.639   6.129   7.949  1.8947 -0.3333  2.1442
   20MOL   H298 7936   3.502   5.765   7.701  2.2827 -1.4944  0.7782
   20MOL   H299 7937   3.497   5.806   7.452 -1.3898  1.1818 -1.6525
   20MOL   H300 7938   3.742   6.052   7.143  1.1066 -0.3560  0.3397
   20MOL   H301 7939   3.764   6.161   7.280 -1.1177  0.2246  0.4459
   20MOL   C302 7940   3.857   5.984   7.309 -0.2531 -0.6314 -0.5083
   20MOL   C303 7941   3.858   5.838   7.278  0.2814  0.3829  0.5570
   20MOL   C304 7942   3.847   5.798   7.143  0.2438  0.7050  0.0602
   20MOL   C305 7943   3.856   5.665   7.107  0.2913  0.1231  0.0747
   20MOL   C306 7944   3.871   5.571   7.211 -0.1844 -1.3674  0.2061
   20MOL   O307 7945   3.860   5.437   7.185  0.1193  0.0740  0.0408
   20MOL   C308 7946   3.891   5.400   7.052  0.2684  0.2906  0.1747
   20MOL   C309 7947   3.889   5.612   7.344 -1.0607 -0.0583  0.0862
   20MOL   C310 7948   3.885   5.745   7.384  0.0394 -0.1116  0.2551
   20MOL   C311 7949   3.996   6.051   7.286  0.4593 -0.1196  0.4238
   20MOL   H312 7950   3.841   5.992   7.417  2.8659  4.3794 -0.2409
   20MOL   H313 7951   3.826   5.868   7.064  0.3425 -0.2852 -0.8518
   20MOL   H314 7952   3.835   5.635   7.005 -0.0283  1.2301 -0.1938
   20MOL   H315 7953   3.812   5.420   6.980 -1.4398 -0.1154  1.8886
   20MOL   H316 7954   3.900   5.291   7.049  0.7244  0.2935  1.3186
   20MOL   H317 7955   3.996   5.421   7.035  0.2359 -0.9202 -1.6689
   20MOL   H318 7956   3.894   5.551   7.433  2.3211 -0.3082 -0.2229
   20MOL   H319 7957   3.897   5.788   7.482  0.2835  0.7274 -0.1378
   20MOL   H320 7958   3.992   6.159   7.295 -1.0295 -0.0616 -0.7160
   20MOL   H321 7959   4.024   6.025   7.184 -0.6871  0.1615  0.0203
   20MOL   C322 7960   4.097   6.006   7.394 -0.2404  0.6427 -0.0986
   20MOL   C323 7961   4.057   6.061   7.532 -0.2825 -0.1571  0.0843
   20MOL   C324 7962   4.075   5.978   7.646  0.4266 -0.2537 -1.0743
   20MOL   C325 7963   4.054   6.026   7.776 -0.0814  0.6599  0.6541
   20MOL   C326 7964   3.989   6.153   7.797 -0.5266  0.1333 -0.0517
   20MOL   O327 7965   3.954   6.196   7.921 -0.1642 -0.0159 -0.2111
   20MOL   C328 7966   3.953   6.106   8.029 -0.3563  0.0224  0.2189
   20MOL   C329 7967   3.966   6.235   7.687  0.0552 -0.4391 -0.1745
   20MOL   C330 7968   4.002   6.192   7.554  0.0313  1.0387  0.6382
   20MOL   C331 7969   4.240   6.042   7.362  0.7192 -0.6942 -0.3674
   20MOL   H332 7970   4.098   5.897   7.397 -0.9047  0.5511 -2.2383
   20MOL   H333 7971   4.117   5.882   7.623  2.3939  0.9646 -2.8401
   20MOL   H334 7972   4.073   5.956   7.855  2.0201 -1.1059 -1.3277
   20MOL   H335 7973   3.908   6.010   8.005  1.4451 -0.3466 -1.8586
   20MOL   H336 7974   3.894   6.148   0.071 -1.2513  0.2292 -0.5125
   20MOL   H337 7975   4.053   6.084   0.027  0.9979  0.8823 -2.7247
   20MOL   H338 7976   3.931   6.336   7.703  2.4479  0.4495 -0.3221
   20MOL   H339 7977   4.003   6.264   7.474  1.6196 -1.1864 -1.4467
   20MOL   H340 7978   4.266   6.008   7.262  0.0495  0.3135 -0.8917
   20MOL   H341 7979   4.243   6.150   7.367  1.4130 -0.7632  1.0742
   20MOL   C342 7980   4.354   6.000   7.466  0.8018  0.1353 -0.5048
   20MOL   C343 7981   4.430   6.108   7.532 -0.2467 -0.4960  0.2668
   20MOL   C344 7982   4.384   6.177   7.650  0.5866  0.3905  0.0995
   20MOL   C345 7983   4.470   6.261   7.722  0.6419 -0.8928  0.2071
   20MOL   C346 7984   4.595   6.300   7.669  0.6011 -0.7429  0.3905
   20MOL   O347 7985   4.671   6.390   7.728  0.7719 -0.1484 -0.1727
   20MOL   C348 7986   4.598   6.503   7.798 -0.4459  0.0154 -0.2428
   20MOL   C349 7987   4.633   6.245   7.546  0.2120 -0.2483  0.0737
   20MOL   C350 7988   4.549   6.156   7.476 -0.5007  0.3013  0.0209
   20MOL   C351 7989   4.440   5.883   7.408 -0.1140  0.1341  0.0280
   20MOL   H352 7990   4.308   5.951   7.552  0.8704 -0.4027 -0.7699
   20MOL   H353 7991   4.288   6.159   7.697  0.0199 -1.2578 -1.6550
   20MOL   H354 7992   4.432   6.309   7.811  0.6209  0.5977 -0.5874
   20MOL   H355 7993   4.524   6.545   7.730  0.7648  1.1443 -0.8979
   20MOL   H356 7994   4.558   6.478   7.896 -1.7257  0.1052 -0.7299
   20MOL   H357 7995   4.672   6.576   7.830  0.3419 -1.0564  0.3762
   20MOL   H358 7996   4.728   6.279   7.507  0.8304  1.2028  2.7354
   20MOL   H359 7997   4.579   6.128   7.376  2.9317  2.0147  0.5158
   20MOL   H360 7998   4.465   5.906   7.304 -2.3279  0.7736 -0.3812
   20MOL   H361 7999   4.538   5.879   7.457  0.7212 -2.2743 -1.7412
   20MOL   C362 8000   4.380   5.743   7.408 -0.4319  0.0016 -0.1294
   20MOL   C363 8001   4.359   5.680   7.548  0.3403  0.0304  0.1473
   20MOL   C364 8002   4.242   5.608   7.567 -0.4714 -0.2086  0.1909
   20MOL   C365 8003   4.213   5.546   7.686  0.2909  0.4566  0.0803
   20MOL   C366 8004   4.301   5.560   7.801 -0.2628 -0.9036  0.0737
   20MOL   O367 8005   4.276   5.512   7.925  0.9111 -0.4528 -0.2779
   20MOL   C368 8006   4.139   5.499   7.955 -0.4368 -0.4201 -0.1070
   20MOL   C369 8007   4.426   5.624   7.769  0.2522  0.3556 -0.1295
   20MOL   C370 8008   4.458   5.685   7.649 -0.2707  0.5294  0.7215
   20MOL   C371 8009   4.468   5.641   7.322  0.0802 -0.4749 -0.1318
   20MOL   H372 8010   4.281   5.759   7.364 -0.6967  0.2275  0.5357
   20MOL   H373 8011   4.170   5.596   7.487 -0.4973  0.0334  0.1766
   20MOL   H374 8012   4.118   5.496   7.688 -0.5435  1.9529 -0.8570
   20MOL   H375 8013   4.077   5.586   7.933  1.4843  1.3405  1.2714
   20MOL   H376 8014   4.094   5.408   7.914  1.0705 -0.3216 -2.0820
   20MOL   H377 8015   4.136   5.492   0.024 -0.8765 -0.1285 -0.1005
   20MOL   H378 8016   4.510   5.608   7.835 -0.2468 -1.4229  0.1003
   20MOL   H379 8017   4.565   5.700   7.637  0.1832 -2.6280  0.3395
   20MOL   H380 8018   4.571   5.673   7.305  0.0610  0.3384  1.2922
   20MOL   H381 8019   4.484   5.549   7.378  0.0078 -0.1941  0.3453
   20MOL   C382 8020   4.408   5.604   7.190  0.6888  0.0673 -0.2411
   20MOL   C383 8021   4.344   5.716   7.109  0.2244  0.1380  0.0891
   20MOL   C384 8022   4.434   5.811   7.050  0.1483 -0.2804 -0.2278
   20MOL   C385 8023   4.389   5.915   6.970 -0.4299 -0.1108  0.0692
   20MOL   C386 8024   4.250   5.935   6.954 -0.4327  0.4821  0.3330
   20MOL   O387 8025   4.198   6.039   6.878  0.1416 -0.4803 -0.5230
   20MOL   C388 8026   4.290   6.144   6.832  0.1765  1.3090  0.0329
   20MOL   C389 8027   4.162   5.846   7.013  0.5967 -0.0583 -0.0690
   20MOL   C390 8028   4.205   5.739   7.093  0.0810  0.1689  0.8240
   20MOL   C391 8029   4.301   5.491   7.207  0.1630 -0.1608  0.4154
   20MOL   H392 8030   4.489   5.563   7.130  1.7942  1.1864  0.4682
   20MOL   H393 8031   4.538   5.808   7.077  0.0652  0.2182  0.1676
   20MOL   H394 8032   4.461   5.984   6.928 -2.2491  1.0562 -1.2123
   20MOL   H395 8033   4.237   6.224   6.780  1.2901  2.7658  1.0830
   20MOL   H396 8034   4.365   6.108   6.762 -1.1368 -0.4981 -0.4867
   20MOL   H397 8035   4.343   6.176   6.921  1.3337  0.8664 -0.4907
   20MOL   H398 8036   4.059   5.858   6.983 -0.1771 -0.6883  2.2224
   20MOL   H399 8037   4.125   5.685   7.143 -0.0747 -1.0553 -0.6997
   20MOL   H400 8038   4.214   5.533   7.257  1.4729  3.1176  0.0252
   20MOL   H401 8039   4.330   5.410   7.275 -2.0944 -0.2378  1.3309
   20MOL   H402 8040   4.255   5.439   7.123  0.0572  0.4575  0.0848
   21MOL     C1 8041   4.676   3.362   5.070  0.1126  0.7006  0.9354
   21MOL     C2 8042   4.651   3.298   5.207 -0.2253 -0.2903 -0.6924
   21MOL     C3 8043   4.543   3.210   5.217 -0.1370  0.3359  0.4486
   21MOL     C4 8044   4.505   3.163   5.346  0.2759 -0.2368  0.5062
   21MOL     C5 8045   4.582   3.189   5.458 -0.7312  0.1558 -0.0156
   21MOL     O6 8046   4.554   3.137   5.584  0.3080  0.4265  0.6814
   21MOL     C7 8047   4.471   3.024   5.598  0.2183 -0.0233 -0.1922
   21MOL     C8 8048   4.696   3.266   5.436 -0.5849  0.1783  0.5962
   21MOL     C9 8049   4.733   3.325   5.317  0.4925 -0.3912 -0.4151
   21MOL    C10 8050   4.670   3.522   5.081  0.0837  0.2284  0.4854
   21MOL    H11 8051   4.598   3.327   5.003 -1.8466 -1.4986  4.2375
   21MOL    H12 8052   4.473   3.180   5.140 -0.5156 -0.4100  1.0860
   21MOL    H13 8053   4.413   3.106   5.344 -0.4684  0.9308  0.5184
   21MOL    H14 8054   4.375   3.038   5.549  0.1208 -0.5677 -0.1597
   21MOL    H15 8055   4.508   2.931   5.553  2.0442  0.8706 -0.5961
   21MOL    H16 8056   4.452   3.013   5.705 -0.8880 -0.3439 -0.4198
   21MOL    H17 8057   4.757   3.283   5.523  1.6351  2.2591 -1.2910
   21MOL    H18 8058   4.822   3.386   5.310 -0.0992  0.4954 -0.2908
   21MOL    H19 8059   4.573   3.552   5.123  0.9334  1.8976  1.3225
   21MOL    H20 8060   4.750   3.550   5.149  0.4458  1.8612 -0.5631
   21MOL    H21 8061   4.775   3.322   5.048  0.4387  0.9944  1.8173
   21MOL    C22 8062   4.696   3.580   4.935  0.1558  0.6565 -0.8813
   21MOL    C23 8063   4.591   3.536   4.835 -0.1842  0.4799 -0.2401
   21MOL    C24 8064   4.635   3.473   4.716  0.0870  0.1497  1.1666
   21MOL    C25 8065   4.532   3.448   4.620 -0.0318 -0.4575 -0.4526
   21MOL    C26 8066   4.396   3.468   4.645 -0.4658  0.3118  0.4125
   21MOL    O27 8067   4.310   3.448   4.536 -0.3867 -0.1339 -0.1751
   21MOL    C28 8068   4.171   3.413   4.558 -0.2975  0.1738  0.1205
   21MOL    C29 8069   4.354   3.516   4.768  0.4947  0.3823  0.8696
   21MOL    C30 8070   4.449   3.549   4.861 -0.7223  0.3749  0.0564
   21MOL    C31 8071   4.706   3.737   4.929  0.8803  0.8809  0.2100
   21MOL    H32 8072   4.792   3.544   4.897 -0.1776 -0.5197 -0.6210
   21MOL    H33 8073   4.739   3.454   4.695  0.0557  1.8100 -0.6122
   21MOL    H34 8074   4.563   3.401   4.527  1.4264 -3.3616  1.4109
   21MOL    H35 8075   4.167   3.353   4.648 -1.0569 -0.3221 -0.2395
   21MOL    H36 8076   4.119   3.356   4.481 -1.2795  0.1197  0.8255
   21MOL    H37 8077   4.125   3.507   4.590  2.0850  0.4990  2.7337
   21MOL    H38 8078   4.247   3.527   4.784  0.0512 -0.3095 -1.4993
   21MOL    H39 8079   4.414   3.587   4.956 -1.4269 -0.0541 -0.0253
   21MOL    H40 8080   4.606   3.778   4.944  0.7262  0.5376  0.1507
   21MOL    H41 8081   4.758   3.761   5.021 -0.3419  1.5498  0.7365
   21MOL    C42 8082   4.768   3.795   4.807  0.0024  0.9654 -0.4134
   21MOL    C43 8083   4.845   3.917   4.845  0.4718 -0.1785  0.4469
   21MOL    C44 8084   4.985   3.935   4.818 -0.5445  0.1904 -0.8375
   21MOL    C45 8085   5.055   4.059   4.857  0.2848  0.3806  0.9116
   21MOL    C46 8086   4.982   4.173   4.901 -0.5619 -0.3705  0.5179
   21MOL    O47 8087   5.028   4.296   4.931 -0.5015 -0.0886 -0.4494
   21MOL    C48 8088   5.168   4.322   4.905  0.1757  0.4587  0.2916
   21MOL    C49 8089   4.849   4.144   4.928 -0.3738 -0.6040  0.5070
   21MOL    C50 8090   4.785   4.025   4.904 -0.2671  0.5868  0.0390
   21MOL    C51 8091   4.662   3.824   4.699  0.1241  0.3624  0.1164
   21MOL    H52 8092   4.837   3.720   4.769 -0.2059  1.1825 -1.2407
   21MOL    H53 8093   5.037   3.859   4.761 -1.8346 -1.7153  0.5199
   21MOL    H54 8094   5.157   4.070   4.824  0.5870 -0.6192  1.5212
   21MOL    H55 8095   5.192   4.316   4.799 -1.6247 -0.9710 -0.0629
   21MOL    H56 8096   5.199   4.417   4.950  1.7294 -0.0156  0.2279
   21MOL    H57 8097   5.227   4.247   4.957  0.0288  0.0891 -0.0787
   21MOL    H58 8098   4.780   4.225   4.951 -0.1765 -0.5641  0.9402
   21MOL    H59 8099   4.680   4.014   4.928 -0.3165  2.7830  0.8914
   21MOL    H60 8100   4.625   3.921   4.732  2.0624  1.1860 -0.0605
   21MOL    H61 8101   4.574   3.759   4.701 -0.4954  1.1862 -0.0362
   21MOL    C62 8102   4.715   3.847   4.557 -0.0064  0.0753 -0.1821
   21MOL    C63 8103   4.605   3.895   4.465 -1.0713  0.0876 -0.0733
   21MOL    C64 8104   4.518   3.803   4.402  0.0985 -0.3739 -0.0221
   21MOL    C65 8105   4.416   3.852   4.329 -0.5543 -0.0955  0.0319
   21MOL    C66 8106   4.400   3.986   4.290 -0.5751  0.6717  0.3185
   21MOL    O67 8107   4.308   4.011   4.196 -0.0117 -0.2392 -0.4833
   21MOL    C68 8108   4.281   4.148   4.169  0.4251  0.2049  0.1162
   21MOL    C69 8109   4.489   4.083   4.356  0.4645  0.1152  0.1428
   21MOL    C70 8110   4.593   4.037   4.443 -0.2536  0.3522 -0.3228
   21MOL    C71 8111   4.800   3.732   4.490  0.1502 -0.5758 -0.9150
   21MOL    H72 8112   4.783   3.930   4.576 -3.5082  2.6560  1.7895
   21MOL    H73 8113   4.517   3.699   4.429  1.3916  0.2119  2.4156
   21MOL    H74 8114   4.339   3.783   4.298 -2.8367  2.4783 -0.1946
   21MOL    H75 8115   4.220   4.143   4.079  2.7779  0.0993 -1.5232
   21MOL    H76 8116   4.367   4.206   4.133 -0.6811  0.0900 -2.8550
   21MOL    H77 8117   4.220   4.204   4.240 -0.2953 -1.7430  1.0732
   21MOL    H78 8118   4.477   4.187   4.330 -4.3911 -0.4191 -0.1113
   21MOL    H79 8119   4.663   4.100   4.496 -0.9987 -0.4972  1.7486
   21MOL    H80 8120   4.884   3.708   4.556 -0.5686 -0.2875  0.1152
   21MOL    H81 8121   4.747   3.638   4.476 -1.0043  0.4174 -3.3999
   21MOL    C82 8122   4.867   3.767   4.358 -0.8025  0.2724  0.8115
   21MOL    C83 8123   4.974   3.880   4.391 -0.1082  0.2335 -0.0656
   21MOL    C84 8124   5.095   3.853   4.470 -0.0538  0.8321  0.3140
   21MOL    C85 8125   5.176   3.958   4.505  0.7504  0.0532  0.0604
   21MOL    C86 8126   5.145   4.088   4.465  0.2466  0.7840  0.0568
   21MOL    O87 8127   5.225   4.188   4.515 -0.2425 -0.5867 -0.1471
   21MOL    C88 8128   5.195   4.321   4.503 -0.1447  0.0299  0.1302
   21MOL    C89 8129   5.038   4.112   4.372  0.1215 -0.1298  0.4085
   21MOL    C90 8130   4.947   4.012   4.343 -0.6168  0.5443 -0.1115
   21MOL    C91 8131   4.945   3.651   4.293  0.0997 -0.1050  0.2058
   21MOL    H92 8132   4.787   3.795   4.290  0.1556  1.8664  0.3054
   21MOL    H93 8133   5.101   3.754   4.513 -1.9287  0.8220  0.5667
   21MOL    H94 8134   5.249   3.934   4.581  1.5137  1.3420 -0.2434
   21MOL    H95 8135   5.199   4.360   4.401  0.7470  2.1419  0.9515
   21MOL    H96 8136   5.265   4.386   4.555 -0.3234 -0.3821  0.8871
   21MOL    H97 8137   5.094   4.331   4.544 -0.5655 -0.2237 -0.8140
   21MOL    H98 8138   5.016   4.217   4.357  1.2911  0.4556  2.5931
   21MOL    H99 8139   4.863   4.027   4.275  1.0487 -2.3633 -2.9494
   21MOL   H100 8140   5.007   3.603   4.370 -0.5383 -0.6518  0.3877
   21MOL   H101 8141   4.875   3.568   4.279  0.8289 -0.6342 -0.3091
   21MOL   C102 8142   5.015   3.687   4.162  0.9459  0.2212 -0.0643
   21MOL   C103 8143   5.147   3.618   4.150 -0.6790 -0.0428  0.1635
   21MOL   C104 8144   5.259   3.687   4.124 -0.2258  0.5053  0.5469
   21MOL   C105 8145   5.383   3.623   4.110 -0.1336  0.4695  0.2332
   21MOL   C106 8146   5.397   3.482   4.130 -0.2996  0.5354 -0.3667
   21MOL   O107 8147   5.523   3.430   4.105 -0.6558 -0.2470  0.3317
   21MOL   C108 8148   5.553   3.295   4.152 -0.3882 -0.0870 -0.3663
   21MOL   C109 8149   5.278   3.412   4.165 -0.4616 -0.1500 -0.2999
   21MOL   C110 8150   5.154   3.478   4.181 -0.2821 -0.1161 -0.4013
   21MOL   C111 8151   4.939   3.643   4.031 -0.2000  0.1880 -0.3127
   21MOL   H112 8152   5.031   3.795   4.160 -3.6199  0.9750 -3.0866
   21MOL   H113 8153   5.263   3.794   4.109  3.8051  0.5851  1.4720
   21MOL   H114 8154   5.467   3.689   4.097  1.7882 -1.9430 -0.0462
   21MOL   H115 8155   5.540   3.304   4.260  1.0980 -1.5166 -0.0628
   21MOL   H116 8156   5.486   3.218   4.113 -1.5966  1.1965 -0.9072
   21MOL   H117 8157   5.659   3.279   4.135 -0.8026 -1.8487 -1.3590
   21MOL   H118 8158   5.271   3.305   4.179 -0.9187  0.1647  1.9534
   21MOL   H119 8159   5.070   3.422   4.219 -0.2750  0.5901  0.6517
   21MOL   H120 8160   4.992   3.689   3.947  0.0292 -1.5219 -1.1325
   21MOL   H121 8161   4.947   3.534   4.024 -0.3542  0.1666 -0.1654
   21MOL   C122 8162   4.793   3.689   4.005 -0.4464  0.1071  0.4465
   21MOL   C123 8163   4.721   3.611   3.890 -0.1736  0.2537  1.6743
   21MOL   C124 8164   4.779   3.575   3.771 -0.4871  0.0356 -0.1084
   21MOL   C125 8165   4.702   3.502   3.678  0.1866  0.3491  0.1241
   21MOL   C126 8166   4.575   3.454   3.710  0.6065  0.3254  0.1445
   21MOL   O127 8167   4.512   3.374   3.618  0.4552  0.0220 -0.0618
   21MOL   C128 8168   4.396   3.296   3.666 -0.5040  0.8036  0.2372
   21MOL   C129 8169   4.519   3.485   3.838 -0.6274  0.8123  0.0099
   21MOL   C130 8170   4.591   3.574   3.923  0.3771  0.2423 -0.4749
   21MOL   C131 8171   4.766   3.842   4.013  0.0711  0.1732 -0.3071
   21MOL   H132 8172   4.746   3.650   4.095 -1.8134  0.9294  0.0971
   21MOL   H133 8173   4.880   3.596   3.740 -0.9151 -1.0621 -2.4027
   21MOL   H134 8174   4.738   3.480   3.579 -0.9167  1.3808 -0.5138
   21MOL   H135 8175   4.436   3.235   3.747  1.6488  3.1622  0.9972
   21MOL   H136 8176   4.305   3.345   3.701 -1.5048 -0.1618 -0.9337
   21MOL   H137 8177   4.366   3.231   3.583 -0.3759  0.1509  0.7013
   21MOL   H138 8178   4.419   3.455   3.867 -0.6805  1.5267  0.5774
   21MOL   H139 8179   4.556   3.602   4.021 -0.2681  1.3477 -1.0092
   21MOL   H140 8180   4.835   3.884   4.086  0.2234 -1.9899  0.8066
   21MOL   H141 8181   4.674   3.863   4.068 -0.7236  1.8433 -2.2184
   21MOL   C142 8182   4.754   3.927   3.886 -0.2268  0.6752  0.3314
   21MOL   C143 8183   4.707   4.075   3.922  0.0170 -0.3871 -0.4119
   21MOL   C144 8184   4.789   4.152   3.999  0.1550 -0.3343 -0.1039
   21MOL   C145 8185   4.748   4.285   4.033 -0.1757 -0.7323  0.2427
   21MOL   C146 8186   4.626   4.337   3.980 -0.3190 -0.1999 -0.3557
   21MOL   O147 8187   4.576   4.464   4.007 -0.0996 -0.2707  0.3901
   21MOL   C148 8188   4.649   4.532   4.114  0.1192  0.5127 -0.2270
   21MOL   C149 8189   4.544   4.247   3.906  0.0252 -0.0479  0.3910
   21MOL   C150 8190   4.584   4.120   3.878  0.2257 -0.1463 -0.7746
   21MOL   C151 8191   4.881   3.931   3.803  0.2081 -0.0818 -0.1023
   21MOL   H152 8192   4.672   3.878   3.834 -1.9137  1.4523  2.1922
   21MOL   H153 8193   4.869   4.097   4.046  0.3980  1.7777  2.0588
   21MOL   H154 8194   4.826   4.335   4.089  1.0151  0.1776 -2.1677
   21MOL   H155 8195   4.750   4.555   4.081 -0.1195  0.4246 -1.0467
   21MOL   H156 8196   4.620   4.637   4.122  0.8873  0.5814  2.0201
   21MOL   H157 8197   4.647   4.484   4.211 -0.6947  1.9321  0.4726
   21MOL   H158 8198   4.447   4.277   3.871 -0.4672 -1.0457  0.8883
   21MOL   H159 8199   4.527   4.063   3.806 -1.2996  1.2494 -0.6909
   21MOL   H160 8200   4.909   3.829   3.779 -1.9689 -0.8027  0.3893
   21MOL   H161 8201   4.958   3.974   3.867 -2.5355  0.4338  2.9770
   21MOL   C162 8202   4.880   4.011   3.668 -0.6167 -0.1272  0.6738
   21MOL   C163 8203   4.766   3.985   3.570 -0.0239  0.4562  0.5140
   21MOL   C164 8204   4.718   4.087   3.485 -0.8828 -0.1635 -0.1653
   21MOL   C165 8205   4.608   4.068   3.408  0.2917 -1.1743  0.3217
   21MOL   C166 8206   4.538   3.950   3.410  0.4085 -0.0172  0.1951
   21MOL   O167 8207   4.423   3.934   3.340  0.0646 -0.0221  0.2547
   21MOL   C168 8208   4.378   4.031   3.247 -0.0746 -0.4387 -0.4531
   21MOL   C169 8209   4.581   3.852   3.496  0.3648  0.6962  0.2075
   21MOL   C170 8210   4.690   3.866   3.582  0.3305 -0.1040  0.3624
   21MOL   C171 8211   5.016   4.002   3.592 -0.1388  0.3509 -0.5712
   21MOL   H172 8212   4.856   4.115   3.691 -3.8115 -0.8785  0.9339
   21MOL   H173 8213   4.771   4.181   3.486 -1.2067  0.0238 -0.5949
   21MOL   H174 8214   4.573   4.148   3.345 -0.3138 -1.1099  0.7345
   21MOL   H175 8215   4.378   4.131   3.291 -0.6185 -0.5792 -0.1256
   21MOL   H176 8216   4.273   4.009   3.227 -0.0435 -0.6661 -0.3584
   21MOL   H177 8217   4.442   4.017   3.160  0.3446  0.2088 -0.2564
   21MOL   H178 8218   4.524   3.761   3.512  2.4305 -0.4036  1.4904
   21MOL   H179 8219   4.715   3.783   3.647 -1.6836 -0.5348  0.6332
   21MOL   H180 8220   5.007   4.072   3.509 -0.5109  0.7912 -0.1610
   21MOL   H181 8221   5.018   3.904   3.545  0.6035  0.7520 -1.3964
   21MOL   C182 8222   5.150   4.024   3.672 -0.1970  0.2946  0.0365
   21MOL   C183 8223   5.148   4.147   3.767 -0.2478  0.1960  0.2217
   21MOL   C184 8224   5.197   4.142   3.899  0.3044 -0.6400 -0.7334
   21MOL   C185 8225   5.197   4.255   3.980  0.3632  0.2442  0.2427
   21MOL   C186 8226   5.139   4.375   3.937  0.7091  0.4281  0.3693
   21MOL   O187 8227   5.106   4.476   4.032 -0.5888  0.4673  0.4363
   21MOL   C188 8228   5.007   4.570   4.006  0.2041  0.0336 -0.1798
   21MOL   C189 8229   5.094   4.381   3.805  0.1163  0.1029  0.7750
   21MOL   C190 8230   5.091   4.269   3.721  0.0200 -0.5649 -0.4059
   21MOL   C191 8231   5.275   4.009   3.579 -0.1897 -0.6522 -0.2034
   21MOL   H192 8232   5.163   3.941   3.742  3.1493  1.2107  0.5553
   21MOL   H193 8233   5.235   4.051   3.944 -0.2702 -0.4209  0.2078
   21MOL   H194 8234   5.249   4.256   4.075  0.2548  2.0231  0.3065
   21MOL   H195 8235   4.925   4.527   3.949  0.5225 -0.4227 -0.2941
   21MOL   H196 8236   5.041   4.652   3.943  0.4153  0.4224  0.4336
   21MOL   H197 8237   4.972   4.611   4.101  0.1148  0.1743 -0.2722
   21MOL   H198 8238   5.050   4.473   3.771 -0.0928  0.1303  1.1204
   21MOL   H199 8239   5.046   4.271   3.623 -0.4818 -0.3938 -0.1740
   21MOL   H200 8240   5.282   3.907   3.540 -3.3657 -0.7050 -0.7501
   21MOL   H201 8241   5.247   4.075   3.497 -1.6174 -1.0735 -0.0687
   21MOL   C202 8242   5.411   4.058   3.628  0.0702  0.4645 -0.2688
   21MOL   C203 8243   5.497   4.083   3.505 -0.2675 -0.5701 -0.2659
   21MOL   C204 8244   5.536   4.216   3.462  1.0115  0.3026  0.5725
   21MOL   C205 8245   5.610   4.228   3.341  0.4479 -0.1476  0.2045
   21MOL   C206 8246   5.650   4.110   3.272 -0.5523 -0.0397 -0.5239
   21MOL   O207 8247   5.715   4.116   3.153  0.1106  0.0116  0.6896
   21MOL   C208 8248   5.778   4.241   3.118 -0.6418  0.5664  0.0646
   21MOL   C209 8249   5.623   3.986   3.325 -0.4095 -0.1859 -0.3317
   21MOL   C210 8250   5.542   3.968   3.433 -0.0640 -0.5585  0.4663
   21MOL   C211 8251   5.476   3.974   3.739 -0.6530 -1.1520 -0.5168
   21MOL   H212 8252   5.389   4.157   3.666  0.0562  1.2563 -2.2646
   21MOL   H213 8253   5.500   4.301   3.519  1.4910  0.8089  0.1186
   21MOL   H214 8254   5.628   4.328   3.304  0.8812  0.8099  2.8346
   21MOL   H215 8255   5.825   4.303   3.194  2.5860 -3.5546  1.6344
   21MOL   H216 8256   5.852   4.221   3.041 -1.5172  1.0900 -0.9244
   21MOL   H217 8257   5.708   4.310   3.071  0.4072  1.7719  0.2400
   21MOL   H218 8258   5.649   3.889   3.286  1.6114 -0.3989  1.4571
   21MOL   H219 8259   5.510   3.872   3.470  0.7861 -1.7995 -1.9165
   21MOL   H220 8260   5.489   3.869   3.712  3.1692 -0.7560 -0.4885
   21MOL   H221 8261   5.410   3.963   3.825 -1.7813  0.7381 -1.1075
   21MOL   C222 8262   5.614   4.018   3.783 -0.0849 -0.4493  0.6924
   21MOL   C223 8263   5.619   4.168   3.818  0.1831  0.5025  0.6768
   21MOL   C224 8264   5.548   4.222   3.925 -0.2774 -0.0230 -0.2528
   21MOL   C225 8265   5.556   4.357   3.960 -0.3087  0.5196  0.1911
   21MOL   C226 8266   5.650   4.437   3.884  0.2625 -0.1382 -0.7042
   21MOL   O227 8267   5.678   4.571   3.913  0.0743 -0.5966 -0.4174
   21MOL   C228 8268   5.599   4.639   4.015  0.7923 -0.9878  0.6640
   21MOL   C229 8269   5.733   4.378   3.791  0.3513 -0.0467 -0.3093
   21MOL   C230 8270   5.712   4.243   3.754 -0.3919 -0.5924 -0.1197
   21MOL   C231 8271   5.681   3.934   3.892 -0.1709  0.0908  0.7244
   21MOL   H232 8272   5.680   4.013   3.696  0.0879 -2.8765  0.9376
   21MOL   H233 8273   5.483   4.161   3.985  0.9584 -0.9099  0.1916
   21MOL   H234 8274   5.496   4.389   4.043 -0.2600 -3.4552  1.8505
   21MOL   H235 8275   5.622   4.606   4.117  1.4211  0.5448  1.0426
   21MOL   H236 8276   5.614   4.746   4.003  0.5862 -1.2823 -2.6900
   21MOL   H237 8277   5.496   4.621   3.985  1.7151  0.0024 -3.3930
   21MOL   H238 8278   5.807   4.438   3.741  1.0217  0.6357  1.4738
   21MOL   H239 8279   5.777   4.203   3.678 -0.3654  1.9272 -1.4937
   21MOL   H240 8280   5.644   3.962   3.990 -1.8205 -0.6793  0.3486
   21MOL   H241 8281   5.655   3.829   3.883 -2.0622  0.5816  0.1013
   21MOL   C242 8282   5.837   3.946   3.887  0.4982  0.0429 -0.5609
   21MOL   C243 8283   5.897   3.937   4.026  0.4659 -0.3143  0.0257
   21MOL   C244 8284   5.879   3.815   4.096 -0.6123  0.5612  0.4134
   21MOL   C245 8285   5.936   3.804   4.222  0.4605  0.1356  0.4182
   21MOL   C246 8286   6.031   3.898   4.264 -0.2599  0.5700 -0.5748
   21MOL   O247 8287   6.088   3.867   4.385  0.2483 -0.3734 -0.3414
   21MOL   C248 8288   6.203   3.942   4.429  0.8097  0.2777 -0.1063
   21MOL   C249 8289   6.060   4.022   4.188 -0.0353  0.4021 -0.0947
   21MOL   C250 8290   5.986   4.037   4.074 -1.0184  0.1544  0.1374
   21MOL   C251 8291   5.913   3.850   3.789 -0.0712 -0.1755 -0.1795
   21MOL   H252 8292   5.861   4.051   3.872  0.0819  0.3878  1.1350
   21MOL   H253 8293   5.821   3.731   4.060 -0.5829  0.7535 -0.0865
   21MOL   H254 8294   5.916   3.720   4.288 -1.4155 -1.4944 -2.1504
   21MOL   H255 8295   6.177   4.033   4.482 -0.0657 -0.0474  0.0464
   21MOL   H256 8296   6.262   3.892   4.505 -5.6466 -0.5976  4.7806
   21MOL   H257 8297   6.273   3.959   4.348 -0.8096  1.8048 -1.2285
   21MOL   H258 8298   6.137   4.088   4.225  0.3592 -0.2188  0.2230
   21MOL   H259 8299   6.000   4.123   4.011 -0.9763 -0.0615 -0.1477
   21MOL   H260 8300   5.858   3.841   3.695 -1.3830 -0.4517  0.5898
   21MOL   H261 8301   5.917   3.749   3.829  1.3135  0.2186  0.6883
   21MOL   C262 8302   6.054   3.902   3.746  0.3236 -0.1916  0.7376
   21MOL   C263 8303   6.035   4.027   3.662 -0.4698  0.2427 -0.4234
   21MOL   C264 8304   5.989   4.017   3.528 -0.5621  0.2874 -0.4110
   21MOL   C265 8305   5.964   4.127   3.449  0.5664 -0.3760  0.4151
   21MOL   C266 8306   5.981   4.255   3.502 -0.8096  0.2467 -0.0350
   21MOL   O267 8307   5.955   4.361   3.420  0.0267 -0.1110 -0.0873
   21MOL   C268 8308   5.964   4.496   3.460 -0.0896  0.6998 -0.0894
   21MOL   C269 8309   6.024   4.267   3.640 -0.0183 -0.4227  0.1116
   21MOL   C270 8310   6.050   4.156   3.721  0.6233  1.0822  0.2540
   21MOL   C271 8311   6.127   3.791   3.657 -0.4611 -0.0894  1.0239
   21MOL   H272 8312   6.109   3.931   3.836  1.6276  1.4115 -0.5405
   21MOL   H273 8313   5.978   3.924   3.474  0.4508 -0.2862  0.3479
   21MOL   H274 8314   5.921   4.128   3.350  1.4801 -0.8219  0.0024
   21MOL   H275 8315   5.917   4.557   3.382  0.3745 -0.4236 -1.2681
   21MOL   H276 8316   6.067   4.529   3.466  0.4415 -0.1001 -3.7489
   21MOL   H277 8317   5.906   4.514   3.551 -0.4302 -1.2304  0.1161
   21MOL   H278 8318   6.038   4.363   3.688  2.0538 -0.8120  0.3149
   21MOL   H279 8319   6.073   4.166   3.826 -0.2301  2.2835  0.3313
   21MOL   H280 8320   6.074   3.754   3.569 -0.3408 -1.2623  1.4398
   21MOL   H281 8321   6.207   3.837   3.599 -1.2934 -1.3080 -1.1696
   21MOL   C282 8322   6.200   3.680   3.737 -0.1865 -0.0725 -0.1560
   21MOL   C283 8323   6.281   3.726   3.853 -0.1901 -0.7990  0.4554
   21MOL   C284 8324   6.407   3.789   3.833 -0.3581  0.0852 -0.1440
   21MOL   C285 8325   6.486   3.830   3.944  0.0416 -0.1239 -0.0639
   21MOL   C286 8326   6.441   3.814   4.073  0.5442 -0.2306  0.3672
   21MOL   O287 8327   6.503   3.865   4.188  0.0455  0.3702 -0.1755
   21MOL   C288 8328   6.586   3.978   4.171 -0.3088  0.1930 -0.0370
   21MOL   C289 8329   6.320   3.748   4.098 -0.3729  0.2320  0.5368
   21MOL   C290 8330   6.243   3.701   3.988  0.5292 -0.4085  0.3014
   21MOL   C291 8331   6.293   3.588   3.653 -0.0832  0.4337  0.1469
   21MOL   H292 8332   6.115   3.624   3.777 -1.6653  2.1009 -0.1747
   21MOL   H293 8333   6.445   3.824   3.739  1.1113 -1.6455 -0.2335
   21MOL   H294 8334   6.581   3.879   3.928  0.8274 -1.8978 -0.9950
   21MOL   H295 8335   6.569   4.032   4.264  0.9452 -0.4840  0.6046
   21MOL   H296 8336   6.693   3.954   4.173 -0.1702  0.8290  0.4780
   21MOL   H297 8337   6.566   4.039   4.083 -0.7428  2.6309  1.7157
   21MOL   H298 8338   6.300   3.722   4.201 -0.8140 -2.3599 -0.1725
   21MOL   H299 8339   6.142   3.670   4.011  0.3884 -0.4333 -0.3467
   21MOL   H300 8340   6.373   3.644   3.605 -2.2139  3.7882  0.3534
   21MOL   H301 8341   6.346   3.520   3.720  0.9935  2.9517  1.9496
   21MOL   C302 8342   6.225   3.503   3.539  0.1010  1.1050  0.0362
   21MOL   C303 8343   6.325   3.410   3.467  0.1917  0.4239  0.1255
   21MOL   C304 8344   6.334   3.402   3.326 -0.1283  0.5624  0.2019
   21MOL   C305 8345   6.433   3.327   3.266 -0.1716  0.1056  0.2389
   21MOL   C306 8346   6.526   3.243   3.335  0.9039 -0.3614  0.0361
   21MOL   O307 8347   6.634   3.181   3.275  0.3598 -0.4193  0.3281
   21MOL   C308 8348   6.648   3.045   3.310 -0.4091  0.0540  0.1629
   21MOL   C309 8349   6.513   3.250   3.476  0.5579 -0.8564 -0.0550
   21MOL   C310 8350   6.415   3.326   3.543 -0.3850 -0.6232 -0.2224
   21MOL   C311 8351   6.112   3.413   3.594  0.2627 -0.6638 -0.0084
   21MOL   H312 8352   6.182   3.576   3.472  0.6338  1.9126  0.5690
   21MOL   H313 8353   6.265   3.465   3.272 -1.3176 -0.3948  0.5896
   21MOL   H314 8354   6.437   3.321   3.158 -3.5297  1.2228 -0.0153
   21MOL   H315 8355   6.662   2.998   3.212 -0.9032 -1.2679  0.7238
   21MOL   H316 8356   6.560   3.006   3.360 -1.4927  0.2887 -1.5104
   21MOL   H317 8357   6.745   3.025   3.355 -0.6776 -0.6247  0.4337
   21MOL   H318 8358   6.580   3.201   3.544  0.1111  0.7491  1.5890
   21MOL   H319 8359   6.409   3.322   3.650 -2.1843  1.0195 -0.2283
   21MOL   H320 8360   6.041   3.464   3.660  0.2600 -3.1356  1.9693
   21MOL   H321 8361   6.153   3.329   3.649  1.5747  0.7399  1.1877
   21MOL   C322 8362   6.021   3.356   3.480 -1.1666 -0.2035  0.6569
   21MOL   C323 8363   5.988   3.457   3.370  0.1114  0.5210  0.0899
   21MOL   C324 8364   5.932   3.587   3.400  0.5857 -0.6384  0.0843
   21MOL   C325 8365   5.917   3.682   3.291  0.3797 -0.4172  0.0054
   21MOL   C326 8366   5.950   3.653   3.157 -0.3024  0.3772  0.3596
   21MOL   O327 8367   5.942   3.744   3.050 -0.4693  0.5317 -0.3650
   21MOL   C328 8368   5.897   3.876   3.073 -0.1858 -0.1461  0.2499
   21MOL   C329 8369   5.989   3.523   3.132 -0.2688  0.1328  0.6581
   21MOL   C330 8370   6.010   3.426   3.235 -0.5100 -0.2384  0.4827
   21MOL   C331 8371   5.899   3.289   3.538 -0.5407 -0.4090  0.1485
   21MOL   H332 8372   6.096   3.288   3.438  0.4138  2.2746 -0.6287
   21MOL   H333 8373   5.896   3.616   3.497 -1.3472  0.3415 -0.8980
   21MOL   H334 8374   5.875   3.775   3.327 -1.9585 -2.0377  1.5269
   21MOL   H335 8375   5.802   3.879   3.127 -1.0491  1.0139 -1.2842
   21MOL   H336 8376   5.896   3.939   2.984 -2.1959  1.9681  1.7031
   21MOL   H337 8377   5.967   3.928   3.139  0.0135  0.8476 -0.7225
   21MOL   H338 8378   6.014   3.504   3.028 -0.5339  1.3466  0.3649
   21MOL   H339 8379   6.060   3.331   3.221 -0.9820 -0.3855 -0.2602
   21MOL   H340 8380   5.835   3.365   3.584 -2.0963 -1.3350 -0.4407
   21MOL   H341 8381   5.853   3.257   3.445  1.2069  2.1512 -1.6694
   21MOL   C342 8382   5.907   3.159   3.618  0.3480 -0.5180 -0.0108
   21MOL   C343 8383   6.000   3.061   3.541  0.1687 -0.3076  0.6099
   21MOL   C344 8384   6.001   3.054   3.395  0.3624 -0.3830 -0.1087
   21MOL   C345 8385   6.095   2.965   3.338 -0.4026  0.5402  0.0681
   21MOL   C346 8386   6.184   2.886   3.414  0.0931 -0.3336 -0.0437
   21MOL   O347 8387   6.271   2.800   3.346  0.3418 -0.2618  0.1342
   21MOL   C348 8388   6.392   2.774   3.409  0.5609  0.0134 -0.0767
   21MOL   C349 8389   6.180   2.901   3.554 -0.0270 -0.1267 -0.0513
   21MOL   C350 8390   6.089   2.985   3.619  0.2201  0.2623  0.5523
   21MOL   C351 8391   5.773   3.098   3.652 -0.4507 -0.4004  0.4073
   21MOL   H352 8392   5.957   3.193   3.709  0.3278  2.7776 -1.1486
   21MOL   H353 8393   5.933   3.114   3.336  1.8166  0.9343 -0.4678
   21MOL   H354 8394   6.103   2.948   3.232  0.0793  1.5005 -0.0570
   21MOL   H355 8395   6.376   2.685   3.469  2.4585  0.4209  1.0517
   21MOL   H356 8396   6.461   2.741   3.332 -0.7701  3.7196 -3.0583
   21MOL   H357 8397   6.429   2.860   3.466 -0.3038 -0.7088  1.6033
   21MOL   H358 8398   6.249   2.846   3.617  0.6396  1.0400  0.2518
   21MOL   H359 8399   6.077   2.987   3.727 -1.8537  0.6454  0.3424
   21MOL   H360 8400   5.714   3.094   3.561  0.6949  1.3680 -0.4380
   21MOL   H361 8401   5.792   2.999   3.694  2.0115  0.6035  1.7523
   21MOL   C362 8402   5.698   3.171   3.772 -0.1927  0.1503  0.5379
   21MOL   C363 8403   5.795   3.173   3.892  1.1797  0.2806 -0.6762
   21MOL   C364 8404   5.868   3.057   3.937 -0.2846 -0.6414 -0.3733
   21MOL   C365 8405   5.970   3.069   4.033  0.1263 -0.2436  0.6016
   21MOL   C366 8406   6.007   3.202   4.077  1.2498  0.0691 -0.3710
   21MOL   O367 8407   6.117   3.226   4.157  0.0778  0.3048  0.2353
   21MOL   C368 8408   6.172   3.114   4.224 -0.2098 -0.0373 -0.7371
   21MOL   C369 8409   5.935   3.311   4.035 -0.5870  0.5677  0.2942
   21MOL   C370 8410   5.832   3.300   3.940  0.0383 -0.1310  0.4250
   21MOL   C371 8411   5.576   3.085   3.798  0.6678 -0.2205 -0.3678
   21MOL   H372 8412   5.666   3.275   3.762  0.4048  0.4578  1.6671
   21MOL   H373 8413   5.842   2.964   3.889  0.9633 -1.2413  0.0850
   21MOL   H374 8414   6.021   2.982   4.070  4.3381  1.9673  0.3273
   21MOL   H375 8415   6.209   3.031   4.164 -1.1305 -2.3508  1.7821
   21MOL   H376 8416   6.264   3.145   4.274 -0.4247 -0.4772 -0.0694
   21MOL   H377 8417   6.102   3.084   4.301 -1.0936  0.2433 -1.4260
   21MOL   H378 8418   5.974   3.409   4.059 -0.0394  0.0513  1.6082
   21MOL   H379 8419   5.786   3.394   3.912  1.9216  1.8223  3.4968
   21MOL   H380 8420   5.602   2.979   3.802  0.0172 -0.3870 -0.5310
   21MOL   H381 8421   5.542   3.117   3.897  1.9297 -0.1318  0.0435
   21MOL   C382 8422   5.458   3.105   3.691 -0.0942 -0.4924  0.8117
   21MOL   C383 8423   5.425   3.249   3.653 -0.3840  0.1399 -0.7622
   21MOL   C384 8424   5.450   3.293   3.520  0.0803 -0.3349  0.1817
   21MOL   C385 8425   5.390   3.414   3.476  0.7432 -0.0665 -0.2386
   21MOL   C386 8426   5.331   3.500   3.573 -0.2695  0.6053  0.2981
   21MOL   O387 8427   5.263   3.613   3.538  0.1516 -0.0056  0.2469
   21MOL   C388 8428   5.259   3.657   3.403  0.1373  1.0309  0.0771
   21MOL   C389 8429   5.333   3.469   3.707 -0.0557  0.2890  0.7291
   21MOL   C390 8430   5.375   3.342   3.749 -0.3937 -0.4734  0.0784
   21MOL   C391 8431   5.335   3.018   3.719  1.3913  0.5642  0.6786
   21MOL   H392 8432   5.487   3.069   3.592  0.8759  2.5242 -0.0685
   21MOL   H393 8433   5.500   3.229   3.449 -1.4204 -2.0025  0.5802
   21MOL   H394 8434   5.378   3.436   3.371  1.3635  2.6398  0.2373
   21MOL   H395 8435   5.201   3.749   3.394 -3.2705 -1.0617 -0.1621
   21MOL   H396 8436   5.215   3.590   3.329 -1.4733  1.2103  0.8514
   21MOL   H397 8437   5.360   3.681   3.369  0.6303 -1.0656  0.0354
   21MOL   H398 8438   5.286   3.544   3.768  0.6880 -1.2120  3.1967
   21MOL   H399 8439   5.352   3.318   3.851 -1.5029 -0.1365 -0.0829
   21MOL   H400 8440   5.292   2.978   3.627 -1.4798  1.7189  1.4667
   21MOL   H401 8441   5.256   3.072   3.771  2.1233  1.7155  0.5913
   21MOL   H402 8442   5.361   2.931   3.780  3.5003 -0.0671 -1.0655
   22MOL     C1 8443   6.669   7.921   3.296  0.5152 -0.0787  0.4126
   22MOL     C2 8444   6.662   7.770   3.280  0.0369  0.1835  0.2851
   22MOL     C3 8445   6.549   7.705   3.343  1.0121 -0.5533  0.3236
   22MOL     C4 8446   6.529   7.565   3.322  0.1804 -0.4250  0.2425
   22MOL     C5 8447   6.613   7.496   3.238  0.1274  0.1282 -0.2751
   22MOL     O6 8448   6.584   7.359   3.231 -0.7213  0.5620  0.3515
   22MOL     C7 8449   6.661   7.281   3.139  0.0256 -0.2809  0.1781
   22MOL     C8 8450   6.724   7.556   3.181  0.5822 -0.0050 -0.2868
   22MOL     C9 8451   6.750   7.696   3.201  0.5392  0.2959  0.4692
   22MOL    C10 8452   6.767   7.999   3.208 -0.1167 -0.7661 -0.3389
   22MOL    H11 8453   6.687   7.937   3.402  1.9913  1.5004 -0.0571
   22MOL    H12 8454   6.481   7.758   3.408  0.7803 -1.6989  1.0270
   22MOL    H13 8455   6.442   7.514   3.361 -0.5218  0.6850  0.1589
   22MOL    H14 8456   6.657   7.179   3.176  1.4658 -0.3667  0.1615
   22MOL    H15 8457   6.621   7.293   3.039 -1.8237 -3.8586  0.4266
   22MOL    H16 8458   6.769   7.296   3.130 -0.0908  0.0668 -0.6830
   22MOL    H17 8459   6.794   7.511   3.113  0.2621 -1.8998  0.6036
   22MOL    H18 8460   6.831   7.733   3.141 -1.4522  0.5337 -2.1762
   22MOL    H19 8461   6.871   7.993   3.238  0.1800  0.8907 -0.9747
   22MOL    H20 8462   6.747   7.966   3.106  1.3976  0.1927 -0.9607
   22MOL    H21 8463   6.570   7.966   3.288  2.0279  3.2658 -0.5520
   22MOL    C22 8464   6.734   0.116   3.200 -0.4126  0.1291  0.6087
   22MOL    C23 8465   6.773   0.189   3.329  0.0165 -0.2039 -0.6968
   22MOL    C24 8466   6.905   0.185   3.375  0.5742  0.7894  0.0283
   22MOL    C25 8467   6.938   0.266   3.483  0.3661 -0.4272  0.5954
   22MOL    C26 8468   6.840   0.347   3.542  0.0694 -0.2748 -0.1807
   22MOL    O27 8469   6.883   0.417   3.654 -0.5173  0.4941 -0.3527
   22MOL    C28 8470   6.791   0.490   3.734  0.7246 -0.1348 -0.5259
   22MOL    C29 8471   6.712   0.364   3.489 -0.3499  0.3493 -0.5261
   22MOL    C30 8472   6.681   0.275   3.385  0.1928  0.1539 -0.9413
   22MOL    C31 8473   6.787   0.179   3.073  1.0120 -1.0675 -0.0919
   22MOL    H32 8474   6.626   0.124   3.202 -0.3039  1.6802  0.6092
   22MOL    H33 8475   6.970   0.110   3.333 -0.9386  0.2332 -1.3786
   22MOL    H34 8476   7.039   0.264   3.521  1.2297 -0.4723 -1.6472
   22MOL    H35 8477   6.733   0.561   3.675  1.2894 -0.2942 -1.2789
   22MOL    H36 8478   6.845   0.536   3.815  0.4758  1.3872 -1.2135
   22MOL    H37 8479   6.714   0.425   3.777  2.3483 -0.1718  2.4477
   22MOL    H38 8480   6.634   0.425   3.532 -0.3689 -0.0020 -0.0493
   22MOL    H39 8481   6.579   0.266   3.350 -0.0294 -0.5101 -0.1193
   22MOL    H40 8482   6.819   0.282   3.090 -0.4880 -0.4751 -0.7263
   22MOL    H41 8483   6.882   0.132   3.049 -0.1709 -3.8297  0.4129
   22MOL    C42 8484   6.694   0.169   2.954  0.1684  0.1486  0.2206
   22MOL    C43 8485   6.752   0.081   2.839 -0.1790  0.6595 -0.0491
   22MOL    C44 8486   6.706   7.986   2.813  0.2425 -0.1559 -0.1625
   22MOL    C45 8487   6.760   7.901   2.711 -0.1837  0.1005  0.1761
   22MOL    C46 8488   6.866   7.949   2.628  0.3808 -0.1215  0.2385
   22MOL    O47 8489   6.908   7.883   2.516  1.1147  0.4267  0.3682
   22MOL    C48 8490   6.936   7.742   2.524  0.2641  0.4509  0.3103
   22MOL    C49 8491   6.913   0.041   2.654 -0.3077 -0.3941  0.0939
   22MOL    C50 8492   6.856   0.125   2.760 -0.2415  0.1390 -0.0902
   22MOL    C51 8493   6.657   0.313   2.901 -0.2755  0.2504  0.0491
   22MOL    H52 8494   6.603   0.117   2.986  0.2182  1.5334  2.6730
   22MOL    H53 8495   6.635   7.939   2.879 -0.3693  1.0065  0.0266
   22MOL    H54 8496   6.709   7.809   2.685  0.9844 -0.4558 -0.2026
   22MOL    H55 8497   7.023   7.732   2.588  1.0817 -0.4176 -0.9032
   22MOL    H56 8498   6.853   7.684   2.564  1.0702 -0.4357  0.7100
   22MOL    H57 8499   6.967   7.698   2.429 -0.3147  1.3603 -0.3113
   22MOL    H58 8500   6.984   0.087   2.586 -0.0815 -1.4989 -0.4212
   22MOL    H59 8501   6.899   0.222   2.776 -1.1613  0.3374  1.2276
   22MOL    H60 8502   6.627   0.309   2.796  0.7620  0.1673 -0.2481
   22MOL    H61 8503   6.750   0.369   2.898  0.3091 -0.7586 -2.9255
   22MOL    C62 8504   6.550   0.394   2.992 -0.1078  0.1141  0.0945
   22MOL    C63 8505   6.425   0.303   3.011 -0.1051 -0.7340 -0.2302
   22MOL    C64 8506   6.356   0.312   3.133 -0.8754  1.4181  0.0517
   22MOL    C65 8507   6.236   0.239   3.145  0.0304  0.3269 -0.0185
   22MOL    C66 8508   6.185   0.161   3.035  0.0841 -0.3573 -0.0876
   22MOL    O67 8509   6.062   0.093   3.040 -0.2741  0.3133  0.3265
   22MOL    C68 8510   6.010   0.072   3.166  0.8183  0.7502 -0.2013
   22MOL    C69 8511   6.252   0.154   2.912 -0.6094 -0.3085  0.0461
   22MOL    C70 8512   6.373   0.230   2.898 -0.2266  0.6664  0.5348
   22MOL    C71 8513   6.522   0.537   2.925  0.2023 -0.2082 -0.2713
   22MOL    H72 8514   6.601   0.404   3.087 -0.0394 -2.5781  0.3573
   22MOL    H73 8515   6.393   0.383   3.206  0.9987  3.0771 -2.3793
   22MOL    H74 8516   6.174   0.266   3.230 -1.0664 -0.0380 -0.6873
   22MOL    H75 8517   5.967   0.165   3.203  0.4563 -0.9271  3.8869
   22MOL    H76 8518   6.083   0.033   3.237  0.0036  1.7305  1.1984
   22MOL    H77 8519   5.921   0.010   3.158  1.6146 -0.0284 -3.7759
   22MOL    H78 8520   6.211   0.090   2.835 -0.0779 -0.4690 -0.1029
   22MOL    H79 8521   6.431   0.217   2.808 -1.7661  2.8213 -0.8319
   22MOL    H80 8522   6.618   0.587   2.914  0.5670 -0.1317  2.6380
   22MOL    H81 8523   6.497   0.529   2.820 -1.3030 -0.6626  0.1093
   22MOL    C82 8524   6.427   0.634   2.999 -0.5588  0.0468  0.3478
   22MOL    C83 8525   6.491   0.675   3.136  0.3789 -0.0319  0.4079
   22MOL    C84 8526   6.418   0.656   3.254 -0.4187  0.9986  0.0647
   22MOL    C85 8527   6.461   0.690   3.380  0.4914 -0.2500  0.1222
   22MOL    C86 8528   6.588   0.745   3.402 -0.4800 -0.5741 -0.1904
   22MOL    O87 8529   6.633   0.767   3.528  0.1340  0.4748 -0.4341
   22MOL    C88 8530   6.763   0.807   3.549 -0.2180  0.7868  0.9688
   22MOL    C89 8531   6.656   0.779   3.279  0.2274 -0.1515 -0.6098
   22MOL    C90 8532   6.614   0.745   3.149 -0.1327 -0.1883  0.8697
   22MOL    C91 8533   6.369   0.756   2.929 -0.3783 -0.1531  0.6221
   22MOL    H92 8534   6.345   0.570   3.032 -1.1898  0.7487  0.1654
   22MOL    H93 8535   6.321   0.611   3.255  0.5167 -1.0700 -0.2637
   22MOL    H94 8536   6.409   0.656   3.468  3.5006 -2.6448  1.0386
   22MOL    H95 8537   6.783   0.906   3.508 -1.0449  0.2056 -0.8933
   22MOL    H96 8538   6.837   0.736   3.512 -1.4925  0.4396 -0.9297
   22MOL    H97 8539   6.784   0.819   3.656  1.7717 -0.6793  0.7621
   22MOL    H98 8540   6.761   0.801   3.276 -0.0626  1.1734 -1.6732
   22MOL    H99 8541   6.682   0.772   3.070 -0.4475 -0.6054  0.4494
   22MOL   H100 8542   6.313   0.810   3.006  1.0921  1.6768  0.4454
   22MOL   H101 8543   6.456   0.820   2.915 -1.4847  1.5626  1.3533
   22MOL   C102 8544   6.295   0.734   2.796 -0.2051  0.1670  0.7334
   22MOL   C103 8545   6.188   0.631   2.814 -0.3810 -1.1320 -0.5417
   22MOL   C104 8546   6.185   0.515   2.733 -0.2895 -0.0373  0.1743
   22MOL   C105 8547   6.087   0.413   2.754  0.0548  0.0360 -0.0209
   22MOL   C106 8548   5.988   0.430   2.849  0.8948  0.3169 -0.7438
   22MOL   O107 8549   5.882   0.346   2.866 -0.0946 -0.5024 -0.2542
   22MOL   C108 8550   5.862   0.239   2.784  0.0894 -0.3788  0.2613
   22MOL   C109 8551   5.998   0.539   2.934  0.2936  0.2078 -0.8338
   22MOL   C110 8552   6.098   0.644   2.921 -0.5257  0.1022 -0.2206
   22MOL   C111 8553   6.256   0.863   2.731  0.6736 -0.0036 -0.2114
   22MOL   H112 8554   6.373   0.691   2.733 -0.3718  0.1168  0.5608
   22MOL   H113 8555   6.262   0.490   2.662  0.7417 -0.7238  1.5160
   22MOL   H114 8556   6.100   0.320   2.701  0.2919  0.8019 -1.3274
   22MOL   H115 8557   5.860   0.272   2.680  0.7002 -0.3452  0.2602
   22MOL   H116 8558   5.949   0.174   2.793 -0.8507 -2.1405 -2.4656
   22MOL   H117 8559   5.769   0.186   2.804 -1.5649  2.4648  0.2626
   22MOL   H118 8560   5.927   0.567   3.011  0.0596 -1.0382 -0.5892
   22MOL   H119 8561   6.102   0.729   2.986  0.2411  0.3003 -0.5242
   22MOL   H120 8562   6.183   0.921   2.788  0.1229  0.5839 -1.4857
   22MOL   H121 8563   6.347   0.922   2.725  0.3296  0.6383  0.6926
   22MOL   C122 8564   6.214   0.851   2.586  0.3696  0.0823  0.4409
   22MOL   C123 8565   6.310   0.771   2.490  0.2000 -0.4185  0.1216
   22MOL   C124 8566   6.269   0.697   2.379  0.0491 -0.4356 -0.0361
   22MOL   C125 8567   6.358   0.623   2.301 -0.0332  0.0149 -0.1435
   22MOL   C126 8568   6.499   0.630   2.323 -0.1882  0.6365 -0.4236
   22MOL   O127 8569   6.583   0.577   2.227 -0.2718  0.0797  0.5728
   22MOL   C128 8570   6.723   0.594   2.260 -0.0664 -0.2864  0.1158
   22MOL   C129 8571   6.541   0.720   2.426 -0.1693  0.2186  0.1774
   22MOL   C130 8572   6.446   0.783   2.509  0.0775 -0.3450  1.0038
   22MOL   C131 8573   6.178   0.990   2.532 -0.7153  0.9147 -0.8321
   22MOL   H132 8574   6.120   0.795   2.587  1.8220 -2.4836 -0.8965
   22MOL   H133 8575   6.161   0.689   2.369  0.2284 -0.2835 -2.3949
   22MOL   H134 8576   6.311   0.564   2.225  0.2790  1.2477 -1.3069
   22MOL   H135 8577   6.768   0.550   2.350 -0.6105  0.9331  1.0046
   22MOL   H136 8578   6.782   0.559   2.176  1.5700 -1.8596  1.8498
   22MOL   H137 8579   6.751   0.699   2.270  0.5435 -0.6500  2.6010
   22MOL   H138 8580   6.646   0.739   2.445 -0.9055  0.8038  4.0575
   22MOL   H139 8581   6.488   0.849   2.583 -0.2390  1.4472 -0.3762
   22MOL   H140 8582   6.192   0.986   2.424  0.0845 -0.5791 -0.6753
   22MOL   H141 8583   6.262   1.054   2.558  0.5322 -0.6082 -1.0873
   22MOL   C142 8584   6.037   1.047   2.574 -0.4728 -0.6334  0.9716
   22MOL   C143 8585   6.040   1.193   2.525 -0.6776 -0.2258  0.3697
   22MOL   C144 8586   6.056   1.232   2.395 -0.0468  0.3161 -0.6208
   22MOL   C145 8587   6.062   1.370   2.358 -0.0315 -0.4311 -0.0354
   22MOL   C146 8588   6.057   1.476   2.453  0.4752  0.6659  0.2444
   22MOL   O147 8589   6.063   1.616   2.430  0.0227  0.2011  0.2248
   22MOL   C148 8590   6.046   1.659   2.300 -0.0358 -0.0925 -0.4289
   22MOL   C149 8591   6.046   1.429   2.586 -0.1193 -0.0654 -0.6049
   22MOL   C150 8592   6.030   1.296   2.623 -0.2301  0.2123  0.5104
   22MOL   C151 8593   5.922   0.971   2.516  0.0057  0.0368  0.3356
   22MOL   H152 8594   6.032   1.045   2.683  1.1743 -2.1454  1.0563
   22MOL   H153 8595   6.065   1.153   2.321 -0.3959 -1.5092  1.2585
   22MOL   H154 8596   6.084   1.393   2.254  1.2677 -0.3585  0.2493
   22MOL   H155 8597   6.128   1.635   2.233 -0.1294  1.1616 -0.9997
   22MOL   H156 8598   5.947   1.629   2.266  0.0364  2.2191 -2.7960
   22MOL   H157 8599   6.044   1.768   2.310 -0.1707 -0.1680  0.4674
   22MOL   H158 8600   6.041   1.500   2.667  1.9099 -0.7738  0.1801
   22MOL   H159 8601   6.034   1.269   2.727  0.4641  0.4413  0.5473
   22MOL   H160 8602   5.971   0.895   2.455  1.1311  1.6826 -0.8762
   22MOL   H161 8603   5.873   1.027   2.436  0.2882 -0.6469 -0.3189
   22MOL   C162 8604   5.814   0.921   2.620  0.8054  0.0412 -0.1616
   22MOL   C163 8605   5.799   1.003   2.749  0.3044  0.4399 -0.2154
   22MOL   C164 8606   5.834   0.960   2.878  1.4604  0.5244 -0.4198
   22MOL   C165 8607   5.797   1.036   2.996  0.8297 -0.1066 -0.0865
   22MOL   C166 8608   5.716   1.154   2.978  0.8504 -0.0534  0.2178
   22MOL   O167 8609   5.656   1.221   3.087  0.0938  0.0219 -0.2614
   22MOL   C168 8610   5.578   1.335   3.065  0.1894 -0.1217  0.1200
   22MOL   C169 8611   5.689   1.202   2.848 -0.2772  0.8043 -0.5959
   22MOL   C170 8612   5.743   1.132   2.739  0.2577 -0.2455 -0.2551
   22MOL   C171 8613   5.822   0.767   2.639 -0.6022 -0.0116  0.5325
   22MOL   H172 8614   5.723   0.932   2.562 -0.6704  0.6187  2.1979
   22MOL   H173 8615   5.887   0.866   2.877 -0.0602 -0.3587 -1.1597
   22MOL   H174 8616   5.831   1.007   3.094  0.8699 -0.8026 -0.3035
   22MOL   H175 8617   5.531   1.377   3.153  1.7546 -1.6695  1.7326
   22MOL   H176 8618   5.499   1.299   2.998  2.1247 -1.1021 -1.7026
   22MOL   H177 8619   5.632   1.411   3.009  0.1100  0.3570  0.6939
   22MOL   H178 8620   5.642   1.298   2.835 -1.5078 -0.0703 -2.6315
   22MOL   H179 8621   5.713   1.176   2.645  1.1147 -2.4845 -1.6146
   22MOL   H180 8622   5.778   0.743   2.736 -0.0689  0.1699  0.8246
   22MOL   H181 8623   5.923   0.735   2.667  0.8578  1.0164 -3.2521
   22MOL   C182 8624   5.764   0.668   2.523 -0.0599 -0.2574  0.1102
   22MOL   C183 8625   5.614   0.639   2.542 -0.8677 -0.0931  0.2649
   22MOL   C184 8626   5.523   0.698   2.447 -0.0167  0.8743  0.3089
   22MOL   C185 8627   5.382   0.678   2.470  0.1991 -0.7034  0.1320
   22MOL   C186 8628   5.345   0.616   2.592 -0.3029 -0.5896 -0.4312
   22MOL   O187 8629   5.221   0.609   2.639  0.3332 -0.8709  0.4335
   22MOL   C188 8630   5.121   0.703   2.593 -0.1137  0.4287 -0.4101
   22MOL   C189 8631   5.439   0.549   2.670 -0.1545  0.7262  0.7471
   22MOL   C190 8632   5.573   0.559   2.647 -0.3394 -0.1129  0.0459
   22MOL   C191 8633   5.849   0.544   2.502  0.2927 -0.2511  0.8419
   22MOL   H192 8634   5.776   0.720   2.428 -0.4483 -1.0633 -0.3821
   22MOL   H193 8635   5.558   0.760   2.365  0.7292 -1.0683 -0.8717
   22MOL   H194 8636   5.312   0.735   2.410  0.2669  0.0254  0.7375
   22MOL   H195 8637   5.164   0.804   2.597 -0.3493  0.4948  0.6054
   22MOL   H196 8638   5.048   0.711   2.673  0.6164 -2.9272  0.6586
   22MOL   H197 8639   5.078   0.683   2.495  0.9947 -0.0422 -0.8087
   22MOL   H198 8640   5.400   0.492   2.753  0.5408  0.7918  1.1244
   22MOL   H199 8641   5.645   0.520   2.718 -1.2621  1.8275  2.1117
   22MOL   H200 8642   5.952   0.580   2.498  0.6565 -1.0665  2.1974
   22MOL   H201 8643   5.842   0.484   2.593 -1.2332 -1.0120  0.2373
   22MOL   C202 8644   5.806   0.466   2.377 -0.5609  0.4754  0.3478
   22MOL   C203 8645   5.876   0.329   2.370 -0.1147  0.5279  0.4111
   22MOL   C204 8646   6.008   0.317   2.324 -0.4670 -0.5801 -0.0847
   22MOL   C205 8647   6.068   0.195   2.303  0.5061 -0.0880 -0.0178
   22MOL   C206 8648   5.994   0.079   2.322  0.0794  0.3405  0.3683
   22MOL   O207 8649   6.044   7.989   2.295 -0.1058  0.2553  0.3466
   22MOL   C208 8650   6.187   7.978   2.285  0.1163  0.3422  0.0618
   22MOL   C209 8651   5.863   0.087   2.372  0.1028  0.1250  0.8245
   22MOL   C210 8652   5.808   0.212   2.398  0.1368  0.4257 -0.5499
   22MOL   C211 8653   5.819   0.535   2.237 -0.0819  0.2660 -0.2553
   22MOL   H212 8654   5.703   0.437   2.398 -0.5397  1.4480  1.8186
   22MOL   H213 8655   6.062   0.409   2.304  2.2673 -1.7336  1.5882
   22MOL   H214 8656   6.172   0.190   2.273  0.3896  0.5036 -0.5360
   22MOL   H215 8657   6.234   0.006   2.213 -3.1643  1.8474 -0.7469
   22MOL   H216 8658   6.228   7.996   2.384  0.4458  1.6586 -0.3064
   22MOL   H217 8659   6.218   7.876   2.264 -2.3622 -0.3168 -0.6220
   22MOL   H218 8660   5.804   8.036   2.373  1.0266 -0.4823  1.3758
   22MOL   H219 8661   5.706   0.223   2.431  0.3017  1.4253 -0.3639
   22MOL   H220 8662   5.924   0.531   2.205 -0.0814  1.4301 -0.4230
   22MOL   H221 8663   5.792   0.641   2.234  0.6490  0.5962  3.2392
   22MOL   C222 8664   5.736   0.459   2.133 -0.1625 -0.0805 -0.0950
   22MOL   C223 8665   5.587   0.509   2.149  0.4363  0.6943 -0.3626
   22MOL   C224 8666   5.497   0.417   2.211  0.4565 -0.0813 -0.5322
   22MOL   C225 8667   5.359   0.447   2.209 -0.1127  1.0078  0.1695
   22MOL   C226 8668   5.317   0.576   2.159 -0.2325  0.1775 -0.0172
   22MOL   O227 8669   5.189   0.614   2.158 -0.3694 -0.4927 -0.1534
   22MOL   C228 8670   5.088   0.517   2.192  0.2305  0.3350  0.0144
   22MOL   C229 8671   5.408   0.669   2.108 -0.2233  0.0947  0.2716
   22MOL   C230 8672   5.545   0.634   2.101 -0.4820  0.5615 -0.2489
   22MOL   C231 8673   5.788   0.474   1.985  0.3334 -0.1384  0.5349
   22MOL   H232 8674   5.741   0.353   2.158 -0.1591  0.2202  1.2204
   22MOL   H233 8675   5.524   0.323   2.256  1.3262  0.6220  0.4642
   22MOL   H234 8676   5.300   0.366   2.251  0.0191  1.0712  0.4756
   22MOL   H235 8677   4.985   0.550   2.183 -0.3524 -1.9490 -2.4034
   22MOL   H236 8678   5.104   0.435   2.123  0.5913  1.8930 -1.8168
   22MOL   H237 8679   5.085   0.488   2.297 -0.6421 -1.2343 -0.4327
   22MOL   H238 8680   5.371   0.763   2.068 -1.0234 -0.8943 -1.3711
   22MOL   H239 8681   5.614   0.699   2.049 -0.4918  2.7562  2.3515
   22MOL   H240 8682   5.706   0.464   1.914  0.9468  1.9988 -0.5239
   22MOL   H241 8683   5.811   0.578   1.961 -1.9630  0.5598  1.1839
   22MOL   C242 8684   5.885   0.363   1.930  0.1742 -0.4400 -0.1289
   22MOL   C243 8685   5.835   0.223   1.919  0.1119 -0.2746 -0.5077
   22MOL   C244 8686   5.713   0.188   1.850  0.1704  0.1132 -0.3408
   22MOL   C245 8687   5.667   0.057   1.836 -0.1187  0.5226  0.2430
   22MOL   C246 8688   5.754   7.989   1.881  0.2659  0.1218  0.0308
   22MOL   O247 8689   5.718   7.859   1.868  0.4606  0.1953  0.2579
   22MOL   C248 8690   5.582   7.826   1.833  0.8553 -0.4761 -0.2907
   22MOL   C249 8691   5.881   8.027   1.937  0.0382  0.3454 -0.5316
   22MOL   C250 8692   5.917   0.118   1.962  0.1028  0.0649  0.1704
   22MOL   C251 8693   5.934   0.405   1.785  0.7197 -0.2618 -0.3863
   22MOL   H252 8694   5.972   0.354   1.995  0.7389  2.8791 -0.3276
   22MOL   H253 8695   5.658   0.261   1.792 -1.6559 -1.1521 -0.2359
   22MOL   H254 8696   5.566   0.036   1.802 -0.1014  0.1897  0.3852
   22MOL   H255 8697   5.558   7.863   1.733 -0.5853  0.2429  0.3107
   22MOL   H256 8698   5.572   7.718   1.838  3.0287 -0.6552  0.9698
   22MOL   H257 8699   5.512   7.876   1.899  1.6218 -2.2983  1.9608
   22MOL   H258 8700   5.954   7.954   1.970  2.1203  2.9591  0.8368
   22MOL   H259 8701   6.011   0.133   2.013 -1.5659 -0.3832  3.5001
   22MOL   H260 8702   5.983   0.501   1.797 -0.3476  0.3322 -0.6980
   22MOL   H261 8703   5.847   0.422   1.722 -0.4881 -1.3035  0.9525
   22MOL   C262 8704   6.031   0.305   1.715  0.5585 -0.2990 -0.2762
   22MOL   C263 8705   6.157   0.277   1.796 -0.2813 -1.1840  0.1545
   22MOL   C264 8706   6.208   0.144   1.797 -0.0398  0.2627 -0.2161
   22MOL   C265 8707   6.327   0.105   1.867  0.4564 -0.0178 -0.2034
   22MOL   C266 8708   6.393   0.207   1.934  0.1149 -0.4561 -0.0318
   22MOL   O267 8709   6.501   0.166   2.011 -0.6427 -0.6270 -0.2938
   22MOL   C268 8710   6.557   0.258   2.104 -0.3572  0.3013  0.7545
   22MOL   C269 8711   6.343   0.339   1.931 -0.0594  0.5609 -0.0327
   22MOL   C270 8712   6.227   0.379   1.863  0.4582 -0.4849 -0.2582
   22MOL   C271 8713   6.058   0.363   1.572 -0.2205  0.2327 -0.8485
   22MOL   H272 8714   5.975   0.213   1.698  0.7613 -0.6448  0.8971
   22MOL   H273 8715   6.164   0.053   1.759 -2.7816  0.9993  1.0202
   22MOL   H274 8716   6.371   0.006   1.864  0.9701  0.1534  1.2287
   22MOL   H275 8717   6.638   0.213   2.163 -0.0248  1.7149  1.4049
   22MOL   H276 8718   6.478   0.289   2.172 -0.3468  1.5410  0.2113
   22MOL   H277 8719   6.608   0.334   2.046  0.9972 -1.3270 -0.2378
   22MOL   H278 8720   6.383   0.417   1.995  1.5187 -0.1393 -0.1583
   22MOL   H279 8721   6.197   0.482   1.869  1.6356 -0.1543  0.2010
   22MOL   H280 8722   6.076   0.470   1.588  0.1445  0.0760 -0.1681
   22MOL   H281 8723   6.150   0.314   1.540  2.2569  3.9538  0.1411
   22MOL   C282 8724   5.940   0.337   1.471 -0.4968 -0.5335 -0.0358
   22MOL   C283 8725   5.972   0.222   1.374 -0.1648 -0.0461  0.2838
   22MOL   C284 8726   5.887   0.109   1.373  0.1551  0.0396 -0.2959
   22MOL   C285 8727   5.933   8.026   1.323 -0.6858  0.0289 -0.0568
   22MOL   C286 8728   6.050   8.022   1.253 -0.2215  0.9269 -0.4870
   22MOL   O287 8729   6.101   7.907   1.196  0.1138  0.1765  0.0331
   22MOL   C288 8730   6.039   7.779   1.222  0.5999 -0.9467 -0.1337
   22MOL   C289 8731   6.122   0.102   1.229  0.5086  0.0666  0.1675
   22MOL   C290 8732   6.086   0.216   1.295 -0.4666 -0.8050 -0.2387
   22MOL   C291 8733   5.895   0.463   1.398 -0.5525  0.3371  0.9902
   22MOL   H292 8734   5.861   0.297   1.534  0.3693 -1.6214  0.3792
   22MOL   H293 8735   5.795   0.106   1.430 -0.3664 -0.1205 -1.1366
   22MOL   H294 8736   5.872   7.938   1.330  1.5678 -1.7606 -2.1437
   22MOL   H295 8737   5.937   7.770   1.182  0.4158  1.1408 -0.1581
   22MOL   H296 8738   6.093   7.693   1.183  0.0371 -0.5381 -1.8309
   22MOL   H297 8739   6.020   7.771   1.330  0.6650  0.6974  0.0023
   22MOL   H298 8740   6.213   0.095   1.171 -0.8695  2.1326 -2.3482
   22MOL   H299 8741   6.150   0.302   1.282 -1.6858  0.3891  1.5237
   22MOL   H300 8742   5.912   0.543   1.470 -0.6582  1.7242 -0.5022
   22MOL   H301 8743   5.965   0.494   1.321 -0.0427  0.4497  1.4930
   22MOL   C302 8744   5.751   0.469   1.344  0.2562  0.3211  0.1894
   22MOL   C303 8745   5.642   0.452   1.455  0.0410  0.3804  0.3418
   22MOL   C304 8746   5.644   0.541   1.559 -0.5139  0.4226  0.6211
   22MOL   C305 8747   5.550   0.532   1.666  0.4779 -0.0266 -0.0374
   22MOL   C306 8748   5.456   0.428   1.662  0.9583  0.4679  0.8554
   22MOL   O307 8749   5.350   0.397   1.742 -0.3937  0.2885 -0.6372
   22MOL   C308 8750   5.325   0.482   1.855  0.5307 -0.7696 -0.4723
   22MOL   C309 8751   5.466   0.330   1.564  0.3012 -0.0543  0.6160
   22MOL   C310 8752   5.562   0.338   1.462 -0.6237 -0.0271 -0.0862
   22MOL   C311 8753   5.716   0.602   1.261 -0.4212  0.5964 -0.7931
   22MOL   H312 8754   5.752   0.377   1.286 -1.1222 -0.3786  1.2546
   22MOL   H313 8755   5.721   0.617   1.552 -0.3373  0.1195 -0.9480
   22MOL   H314 8756   5.545   0.614   1.736  0.5134 -0.9671  1.0759
   22MOL   H315 8757   5.409   0.471   1.924 -0.9212  0.5931  1.5723
   22MOL   H316 8758   5.237   0.446   1.909  0.2722  0.6553  0.0895
   22MOL   H317 8759   5.301   0.585   1.828 -1.0927 -1.4120 -1.5700
   22MOL   H318 8760   5.394   0.249   1.559  1.5342 -1.0901 -0.5164
   22MOL   H319 8761   5.559   0.266   1.382 -2.5439 -2.3376  2.0037
   22MOL   H320 8762   5.795   0.617   1.188 -0.2144 -1.0404 -0.9094
   22MOL   H321 8763   5.708   0.689   1.327  1.6394  0.7643 -0.7441
   22MOL   C322 8764   5.579   0.592   1.190  0.2569  0.6080 -0.0988
   22MOL   C323 8765   5.585   0.498   1.069 -0.4974 -0.1388  0.1965
   22MOL   C324 8766   5.670   0.531   0.964 -0.8460 -0.2970 -0.2675
   22MOL   C325 8767   5.671   0.448   0.851 -0.7874 -0.6794 -0.0797
   22MOL   C326 8768   5.590   0.336   0.847 -0.2146  0.1656  0.4908
   22MOL   O327 8769   5.603   0.255   0.731  0.0381 -0.3987 -0.1616
   22MOL   C328 8770   5.527   0.136   0.732  0.1543  0.1496 -0.0939
   22MOL   C329 8771   5.508   0.298   0.955  0.3357  0.5597  0.0123
   22MOL   C330 8772   5.512   0.375   1.074  0.0489  0.1186  0.3021
   22MOL   C331 8773   5.520   0.724   1.148 -0.6892  0.0208  0.9844
   22MOL   H332 8774   5.504   0.550   1.258 -1.2169 -1.9395 -3.1178
   22MOL   H333 8775   5.733   0.618   0.973  1.8816 -2.3070  0.6890
   22MOL   H334 8776   5.727   0.479   0.764  0.0891 -1.6973  0.1192
   22MOL   H335 8777   5.419   0.143   0.720  0.1047  1.0582  0.8060
   22MOL   H336 8778   5.555   0.068   0.813 -0.3787 -0.7972 -0.6975
   22MOL   H337 8779   5.544   0.079   0.641 -0.3401  1.0442 -0.7504
   22MOL   H338 8780   5.444   0.211   0.948 -0.7904  1.5126 -1.7662
   22MOL   H339 8781   5.448   0.346   1.156 -0.5867 -0.7763 -0.5104
   22MOL   H340 8782   5.592   0.796   1.107  1.1138 -2.1849  0.1652
   22MOL   H341 8783   5.449   0.708   1.067 -0.7362 -0.4357  1.1174
   22MOL   C342 8784   5.449   0.803   1.261  0.0079  0.6412  0.8233
   22MOL   C343 8785   5.322   0.729   1.300 -0.0777 -0.3286 -0.2064
   22MOL   C344 8786   5.323   0.659   1.426  0.0068  0.5740 -0.2019
   22MOL   C345 8787   5.222   0.567   1.452 -0.4497  0.2776 -0.0617
   22MOL   C346 8788   5.108   0.559   1.369  0.4400  0.1732  0.7567
   22MOL   O347 8789   5.013   0.464   1.399 -0.4333 -0.0671 -0.1489
   22MOL   C348 8790   4.889   0.481   1.327 -0.2766 -0.3125 -0.8042
   22MOL   C349 8791   5.106   0.639   1.257  0.1800  0.1511  0.3124
   22MOL   C350 8792   5.213   0.722   1.215 -0.3608  0.0294 -0.2504
   22MOL   C351 8793   5.419   0.954   1.226  0.0460 -1.1308  0.4084
   22MOL   H352 8794   5.517   0.801   1.346  0.9364  3.8973  0.2114
   22MOL   H353 8795   5.408   0.677   1.491 -1.0183 -0.3964  1.4533
   22MOL   H354 8796   5.240   0.495   1.530 -1.9133 -2.6135 -2.2690
   22MOL   H355 8797   4.891   0.446   1.224 -2.1477 -0.3191 -0.8580
   22MOL   H356 8798   4.816   0.415   1.374 -0.4199  0.7293  0.4555
   22MOL   H357 8799   4.845   0.580   1.326 -0.4030 -0.2974  2.2842
   22MOL   H358 8800   5.017   0.629   1.197 -0.4036 -1.2922  1.3798
   22MOL   H359 8801   5.204   0.780   1.124 -2.9802  0.1010  0.0178
   22MOL   H360 8802   5.392   0.974   1.122 -1.2522 -1.7314  0.6296
   22MOL   H361 8803   5.327   0.975   1.280 -0.3419 -2.9447  0.4857
   22MOL   C362 8804   5.524   1.062   1.275  0.0884 -0.8893  0.5379
   22MOL   C363 8805   5.460   1.189   1.309 -0.1080 -0.0086 -0.9834
   22MOL   C364 8806   5.491   1.259   1.427  0.2241 -0.7894 -0.0418
   22MOL   C365 8807   5.415   1.373   1.464  0.1627 -0.0134 -0.5879
   22MOL   C366 8808   5.308   1.415   1.390  0.2023 -0.4344 -0.2547
   22MOL   O367 8809   5.242   1.524   1.445 -0.1277 -0.0889  0.1422
   22MOL   C368 8810   5.140   1.577   1.372  0.0837 -0.3714  0.3764
   22MOL   C369 8811   5.285   1.357   1.265 -0.3635 -0.2682 -0.3682
   22MOL   C370 8812   5.358   1.242   1.227 -0.2114 -0.2337 -0.0205
   22MOL   C371 8813   5.633   1.085   1.164 -0.1448 -0.0401  0.2532
   22MOL   H372 8814   5.571   1.019   1.363  2.0927 -1.7355 -0.8955
   22MOL   H373 8815   5.569   1.226   1.494  1.3199  0.5255 -0.6509
   22MOL   H374 8816   5.441   1.420   1.558 -1.7959 -0.4438  0.1887
   22MOL   H375 8817   5.084   1.647   1.434  1.4562  1.0944  0.0227
   22MOL   H376 8818   5.175   1.644   1.293 -0.4321  2.4128  2.4075
   22MOL   H377 8819   5.068   1.510   1.326 -0.8637 -0.8398  2.4865
   22MOL   H378 8820   5.210   1.398   1.199 -0.9215 -2.8059 -1.3654
   22MOL   H379 8821   5.350   1.191   1.132  0.0521 -0.7314  0.2231
   22MOL   H380 8822   5.678   0.994   1.124  1.2306  1.4596 -1.7520
   22MOL   H381 8823   5.586   1.133   1.078  0.8503  0.4055 -0.0520
   22MOL   C382 8824   5.754   1.167   1.218 -0.4229  0.1761  0.9618
   22MOL   C383 8825   5.788   1.271   1.115  1.2130  0.3315  0.1315
   22MOL   C384 8826   5.730   1.399   1.120  0.4037  0.2070 -0.2907
   22MOL   C385 8827   5.736   1.489   1.017  0.4565 -0.2159  0.2644
   22MOL   C386 8828   5.812   1.464   0.906  0.2265  0.3160  0.6400
   22MOL   O387 8829   5.837   1.567   0.811 -1.1603  0.0641  0.2628
   22MOL   C388 8830   5.953   1.560   0.733 -0.2630  0.5850  0.2079
   22MOL   C389 8831   5.864   1.336   0.896 -0.9439 -1.1507 -0.4031
   22MOL   C390 8832   5.853   1.242   0.997 -0.2256  0.3897 -0.0229
   22MOL   C391 8833   5.880   1.092   1.266 -0.3158 -0.5552  0.2037
   22MOL   H392 8834   5.725   1.232   1.301  1.1824  2.4331 -0.2018
   22MOL   H393 8835   5.666   1.426   1.203 -0.9272 -0.4835 -1.0658
   22MOL   H394 8836   5.688   1.584   1.033  3.5012  1.5792 -0.7212
   22MOL   H395 8837   5.980   1.662   0.704 -0.4778  0.7726  0.6702
   22MOL   H396 8838   5.935   1.499   0.644 -0.2381  1.6067 -0.5043
   22MOL   H397 8839   6.038   1.515   0.785  0.4934 -0.9381 -2.2325
   22MOL   H398 8840   5.937   1.325   0.817 -1.1292  1.0787 -0.8978
   22MOL   H399 8841   5.903   1.147   0.990 -1.4333 -0.3161  0.5780
   22MOL   H400 8842   5.871   1.056   1.368  0.8288  2.3613  1.3653
   22MOL   H401 8843   5.965   1.159   1.261  0.0366 -0.9481  0.9088
   22MOL   H402 8844   5.910   1.010   1.201  1.1160 -0.1561  0.3308
   23MOL     C1 8845   1.783   4.474   7.903  0.7867  0.1166  0.6545
   23MOL     C2 8846   1.798   4.347   7.831  0.6041  0.0778 -0.5942
   23MOL     C3 8847   1.874   4.339   7.712 -0.4453 -0.0329  0.3512
   23MOL     C4 8848   1.876   4.224   7.636 -0.1572  0.1342 -0.2979
   23MOL     C5 8849   1.815   4.110   7.679 -0.3531  0.1671  0.8161
   23MOL     O6 8850   1.812   3.993   7.600  0.1534  0.0682  0.3872
   23MOL     C7 8851   1.848   3.999   7.464  0.0168 -0.2551  1.0336
   23MOL     C8 8852   1.755   4.112   7.808 -0.1590 -0.1820  0.0151
   23MOL     C9 8853   1.738   4.230   7.879 -0.5221 -0.8697  0.2951
   23MOL    C10 8854   1.659   4.547   7.854 -0.0498 -0.7298 -0.2472
   23MOL    H11 8855   1.867   4.540   7.883  0.5642  0.7672  1.8470
   23MOL    H12 8856   1.931   4.424   7.677  2.3024 -1.5052  1.1769
   23MOL    H13 8857   1.927   4.220   7.541 -1.5330 -2.7261 -0.9860
   23MOL    H14 8858   1.955   4.016   7.450 -0.1838  0.3050  0.1317
   23MOL    H15 8859   1.823   3.902   7.421  0.8261  0.7670 -1.8890
   23MOL    H16 8860   1.797   4.071   7.400  0.5769  0.0827  0.9680
   23MOL    H17 8861   1.699   4.030   7.848 -0.5290  0.0501 -0.0272
   23MOL    H18 8862   1.680   4.230   7.970  1.3350  0.1830  1.5315
   23MOL    H19 8863   1.681   4.567   7.749 -1.8417 -0.3931 -0.5674
   23MOL    H20 8864   1.577   4.475   7.855 -0.3214 -0.4164  1.3990
   23MOL    H21 8865   1.774   4.448   8.008 -2.0753 -1.4895  0.0822
   23MOL    C22 8866   1.623   4.682   7.921  0.1409 -0.5483  0.2660
   23MOL    C23 8867   1.741   4.775   7.947 -0.0766  0.1010  0.2408
   23MOL    C24 8868   1.759   4.825   0.039  0.2462 -0.5052  0.3212
   23MOL    C25 8869   1.843   4.939   0.062 -0.2584  0.3878  0.0778
   23MOL    C26 8870   1.925   4.986   7.999 -0.4719 -0.5175 -0.0722
   23MOL    O27 8871   2.008   5.091   8.030  0.0896  0.4930 -0.8044
   23MOL    C28 8872   2.101   5.127   7.920 -0.1883  0.6706 -0.2925
   23MOL    C29 8873   1.906   4.931   7.868 -0.6170 -0.4541 -0.0819
   23MOL    C30 8874   1.810   4.832   7.840 -0.1258 -0.3413 -0.2900
   23MOL    C31 8875   1.506   4.757   7.847 -0.7478 -0.4219 -0.1143
   23MOL    H32 8876   1.579   4.648   8.015 -0.9815 -3.1662 -1.1649
   23MOL    H33 8877   1.707   4.780   0.123  1.1284  0.7884  1.5977
   23MOL    H34 8878   1.851   4.990   0.157 -2.7590 -3.1638  2.3083
   23MOL    H35 8879   2.184   5.187   7.957 -0.7566 -0.8125  3.6740
   23MOL    H36 8880   2.058   5.187   7.839 -1.1218 -0.0324 -0.3254
   23MOL    H37 8881   2.146   5.039   7.876  0.2434 -0.7682  2.8838
   23MOL    H38 8882   1.959   4.978   7.786  1.6582 -1.6588  0.6516
   23MOL    H39 8883   1.788   4.793   7.742  1.9448 -0.5117 -0.7226
   23MOL    H40 8884   1.544   4.763   7.745  3.5534  1.8095  1.5090
   23MOL    H41 8885   1.415   4.698   7.832 -0.2018 -1.8426  1.9862
   23MOL    C42 8886   1.467   4.893   7.917 -1.1811 -0.0766  0.4164
   23MOL    C43 8887   1.372   4.875   8.034 -0.3064 -0.1922 -0.5222
   23MOL    C44 8888   1.422   4.915   0.121  0.1877  0.0532 -0.5522
   23MOL    C45 8889   1.337   4.892   0.235 -0.3204  0.4718  0.4496
   23MOL    C46 8890   1.206   4.838   0.220 -0.7623 -0.4927 -0.7592
   23MOL    O47 8891   1.133   4.826   0.334 -0.0701 -0.0938  0.0475
   23MOL    C48 8892   1.019   4.745   0.335  0.3747  0.1578 -0.6492
   23MOL    C49 8893   1.167   4.786   0.098 -0.2945 -0.0988  0.6764
   23MOL    C50 8894   1.243   4.813   8.019 -0.6402 -0.4376 -0.3986
   23MOL    C51 8895   1.412   5.002   7.814  0.1391  0.9715  0.2615
   23MOL    H52 8896   1.558   4.930   7.963 -0.9442  0.7002 -0.6744
   23MOL    H53 8897   1.521   4.958   0.130 -0.3365  1.0345  0.8699
   23MOL    H54 8898   1.371   4.934   0.329 -1.8934  2.8880 -0.0125
   23MOL    H55 8899   0.975   4.782   0.427  1.5684  1.8323 -0.7407
   23MOL    H56 8900   0.939   4.775   0.267 -0.4334  0.9630  0.6400
   23MOL    H57 8901   1.041   4.639   0.348 -0.0195  0.2129  0.5632
   23MOL    H58 8902   1.068   4.742   0.085 -0.2608 -0.0716  0.3304
   23MOL    H59 8903   1.206   4.790   7.920 -1.8144 -2.2269  0.4215
   23MOL    H60 8904   1.307   4.973   7.807  0.1355  1.0375  0.0484
   23MOL    H61 8905   1.447   4.991   7.711  0.8500  0.8784  0.5157
   23MOL    C62 8906   1.417   5.152   7.863 -0.0975  0.0193  0.4524
   23MOL    C63 8907   1.311   5.235   7.787  0.3030  0.0906  0.4108
   23MOL    C64 8908   1.216   5.307   7.857 -0.0526  0.4145 -0.9616
   23MOL    C65 8909   1.123   5.394   7.793 -0.3102  0.4232 -0.0388
   23MOL    C66 8910   1.116   5.396   7.650 -0.5199 -0.1548 -0.4800
   23MOL    O67 8911   1.034   5.477   7.573  0.0328  0.0164  0.0609
   23MOL    C68 8912   0.974   5.593   7.634  0.2003  0.2800  0.4328
   23MOL    C69 8913   1.211   5.318   7.580  0.2848 -0.3784  0.0120
   23MOL    C70 8914   1.314   5.250   7.645  0.2045  0.6278 -0.1744
   23MOL    C71 8915   1.564   5.216   7.852  0.2610 -0.3388  0.0032
   23MOL    H72 8916   1.383   5.159   7.966 -0.5610 -1.7822  0.4249
   23MOL    H73 8917   1.208   5.298   7.964  3.6125 -0.9362 -0.7500
   23MOL    H74 8918   1.053   5.459   7.844 -1.0741  0.5338 -1.2209
   23MOL    H75 8919   1.039   5.625   7.715  0.8194 -3.0286  1.3250
   23MOL    H76 8920   0.873   5.570   7.668 -0.2942 -0.8718 -1.7032
   23MOL    H77 8921   0.969   5.674   7.561  4.4479 -0.3807 -0.7264
   23MOL    H78 8922   1.213   5.324   7.473  0.8940 -2.3900 -0.1176
   23MOL    H79 8923   1.380   5.192   7.582 -0.7531  0.6208 -1.2023
   23MOL    H80 8924   1.631   5.138   7.890  2.1538  0.5873 -1.3754
   23MOL    H81 8925   1.576   5.226   7.744 -3.1487  0.8804 -0.3265
   23MOL    C82 8926   1.595   5.345   7.934 -0.1327  0.4346 -0.5097
   23MOL    C83 8927   1.574   5.322   0.048 -0.4812  0.7533  0.1493
   23MOL    C84 8928   1.659   5.235   0.115  0.1419 -0.9064  0.7340
   23MOL    C85 8929   1.646   5.209   0.251 -0.1359  0.1614  0.3886
   23MOL    C86 8930   1.547   5.276   0.329  0.1269  0.4790  0.1726
   23MOL    O87 8931   1.521   5.270   0.462  0.4071  0.3765  0.2813
   23MOL    C88 8932   1.614   5.197   0.541  0.3269 -0.2367 -0.4580
   23MOL    C89 8933   1.463   5.364   0.261 -0.7714 -0.1359 -0.1120
   23MOL    C90 8934   1.474   5.387   0.121 -0.1628  0.7639  0.1048
   23MOL    C91 8935   1.737   5.406   7.908  0.3482 -0.1968  0.0512
   23MOL    H92 8936   1.515   5.410   7.899 -0.3460  0.0696 -0.6958
   23MOL    H93 8937   1.746   5.191   0.069  0.6302 -0.5115  1.2660
   23MOL    H94 8938   1.702   5.127   0.293  2.5356  0.8314 -1.7481
   23MOL    H95 8939   1.717   5.229   0.529  0.6436 -0.4893  1.5165
   23MOL    H96 8940   1.609   5.093   0.508 -1.9738 -0.8383  1.5748
   23MOL    H97 8941   1.580   5.185   0.644 -0.4253 -0.9637 -0.7823
   23MOL    H98 8942   1.382   5.418   0.307 -1.6033  0.6422 -2.4200
   23MOL    H99 8943   1.411   5.462   0.075 -1.1750  0.0061  0.2438
   23MOL   H100 8944   1.765   5.450   8.004  0.5931 -2.4127  1.0207
   23MOL   H101 8945   1.807   5.327   7.882  0.6841 -0.0728  0.5615
   23MOL   C102 8946   1.745   5.523   7.801 -0.0872 -0.3064 -0.3608
   23MOL   C103 8947   1.712   5.484   7.652 -0.1422 -0.1405  0.1895
   23MOL   C104 8948   1.583   5.463   7.609 -0.5694  0.1764 -0.5940
   23MOL   C105 8949   1.547   5.431   7.476  0.0325 -0.6225 -0.7213
   23MOL   C106 8950   1.649   5.418   7.384  0.4888  0.1493  0.1007
   23MOL   O107 8951   1.634   5.397   7.250  0.2333  0.0046  0.2046
   23MOL   C108 8952   1.504   5.363   7.198 -0.2472 -0.0172  0.7470
   23MOL   C109 8953   1.784   5.440   7.426 -0.6425 -0.7134 -0.3683
   23MOL   C110 8954   1.815   5.465   7.561  0.0288  0.1088 -0.0748
   23MOL   C111 8955   1.666   5.654   7.836  0.4367  0.7744 -0.2704
   23MOL   H112 8956   1.848   5.559   7.805 -1.0036  2.6471 -1.6335
   23MOL   H113 8957   1.504   5.457   7.682  0.9549 -1.0226  0.9830
   23MOL   H114 8958   1.443   5.415   7.454 -0.9629  1.5619  2.0466
   23MOL   H115 8959   1.475   5.260   7.221  1.1900 -0.6719 -0.2534
   23MOL   H116 8960   1.429   5.441   7.208 -2.2191 -2.2158  3.7400
   23MOL   H117 8961   1.521   5.367   7.090  0.8179  0.6231  0.9320
   23MOL   H118 8962   1.860   5.444   7.350  0.0647 -0.0378  0.3652
   23MOL   H119 8963   1.915   5.487   7.595 -0.4153  2.1674 -0.0047
   23MOL   H120 8964   1.567   5.619   7.808  1.1210 -2.2700  0.9467
   23MOL   H121 8965   1.651   5.669   7.943  1.7131  1.1409 -0.1335
   23MOL   C122 8966   1.710   5.784   7.761  0.0138  0.1648 -0.1078
   23MOL   C123 8967   1.847   5.843   7.802  0.5672  0.5688 -0.5393
   23MOL   C124 8968   1.953   5.837   7.715 -1.0347 -0.2551 -0.3073
   23MOL   C125 8969   2.076   5.900   7.749 -0.6018 -0.1630 -0.4331
   23MOL   C126 8970   2.106   5.941   7.875 -0.0127 -0.0608  0.4723
   23MOL   O127 8971   2.229   5.987   7.897  0.0436  0.1458  0.1581
   23MOL   C128 8972   2.266   6.017   8.031  0.3729 -0.1993 -0.1820
   23MOL   C129 8973   2.003   5.920   7.975  0.5036 -0.0264 -0.2159
   23MOL   C130 8974   1.872   5.879   7.934  0.6963 -0.6263  0.1704
   23MOL   C131 8975   1.591   5.880   7.763 -0.2362 -0.3090 -0.3403
   23MOL   H132 8976   1.724   5.744   7.660  0.8519  1.8730 -0.6795
   23MOL   H133 8977   1.941   5.799   7.614  2.5254  1.6145 -1.5162
   23MOL   H134 8978   2.141   5.929   7.668  1.4523 -0.6182  1.0085
   23MOL   H135 8979   2.365   6.062   8.023 -0.0742  0.6203 -1.2990
   23MOL   H136 8980   2.213   6.100   0.037  1.2676 -0.1152  0.6974
   23MOL   H137 8981   2.276   5.922   0.043  0.0915 -0.2521 -0.2220
   23MOL   H138 8982   2.007   5.948   0.039  0.8301 -0.8980  0.0109
   23MOL   H139 8983   1.787   5.893   7.999  0.6016 -0.1963 -0.0477
   23MOL   H140 8984   1.556   5.867   7.866 -2.4661  1.0521 -0.9011
   23MOL   H141 8985   1.515   5.844   7.694 -0.5336 -0.1415 -0.1017
   23MOL   C142 8986   1.608   6.028   7.763  0.0147 -0.8795  0.2601
   23MOL   C143 8987   1.643   6.086   7.623  0.0307  0.8904  0.1862
   23MOL   C144 8988   1.554   6.089   7.515 -0.2223 -0.2519  0.9521
   23MOL   C145 8989   1.586   6.154   7.396  0.1276 -0.2278  0.0035
   23MOL   C146 8990   1.704   6.221   7.381  0.2405 -0.3806 -0.5733
   23MOL   O147 8991   1.719   6.295   7.264  0.1887  0.1552  0.3709
   23MOL   C148 8992   1.789   6.422   7.282  0.2479  0.7539 -0.5141
   23MOL   C149 8993   1.802   6.217   7.490  0.1196  0.5332 -0.2866
   23MOL   C150 8994   1.766   6.148   7.606  0.8066  0.1596  0.4810
   23MOL   C151 8995   1.472   6.089   7.804 -0.0412  0.9422 -0.0147
   23MOL   H152 8996   1.689   6.050   7.832 -0.0626  0.0994  0.0450
   23MOL   H153 8997   1.466   6.026   7.524  1.2595 -2.4082  0.6869
   23MOL   H154 8998   1.530   6.154   7.304  1.3336  2.5438 -0.7799
   23MOL   H155 8999   1.779   6.482   7.192 -1.9872  0.4002 -0.5296
   23MOL   H156 9000   1.754   6.479   7.368 -2.2133 -0.1905 -0.8524
   23MOL   H157 9001   1.896   6.406   7.290  0.2971  1.2262 -0.2503
   23MOL   H158 9002   1.891   6.278   7.480  0.5049 -0.1164 -0.8418
   23MOL   H159 9003   1.842   6.140   7.683  1.8559 -1.2569 -0.6800
   23MOL   H160 9004   1.450   6.048   7.902 -0.9162 -0.7392 -0.8928
   23MOL   H161 9005   1.401   6.048   7.732 -0.4371  0.3012  0.7352
   23MOL   C162 9006   1.472   6.244   7.819 -0.7496 -0.1155 -0.0748
   23MOL   C163 9007   1.572   6.291   7.926 -0.3513 -0.2074 -0.1689
   23MOL   C164 9008   1.704   6.329   7.892  0.0582 -0.1403  0.7096
   23MOL   C165 9009   1.801   6.365   7.988  0.4055  0.7864  1.0515
   23MOL   C166 9010   1.764   6.353   0.087  0.7006 -0.0911  0.0261
   23MOL   O167 9011   1.849   6.396   0.186 -0.2930  0.1574  0.0635
   23MOL   C168 9012   1.989   6.387   0.154  0.5581 -0.2566 -0.5561
   23MOL   C169 9013   1.626   6.327   0.119 -0.2729  0.3776 -0.2470
   23MOL   C170 9014   1.534   6.283   0.018 -0.0980 -0.0797  0.0404
   23MOL   C171 9015   1.345   6.331   7.834  0.0827  0.1773  0.2793
   23MOL   H172 9016   1.516   6.272   7.723 -1.4019 -1.1984 -0.7042
   23MOL   H173 9017   1.734   6.332   7.789 -0.0537  2.1392  0.7191
   23MOL   H174 9018   1.901   6.396   7.960  0.3509 -0.5326 -0.6741
   23MOL   H175 9019   1.993   6.281   0.130 -0.6935 -0.9110  1.9288
   23MOL   H176 9020   2.043   6.412   0.246  2.3877  0.8574 -1.8964
   23MOL   H177 9021   2.034   6.443   0.073  1.4179  0.0039  0.0921
   23MOL   H178 9022   1.582   6.336   0.217 -2.3335  0.6950 -1.1745
   23MOL   H179 9023   1.440   6.240   0.050 -0.3260  0.7276  0.4713
   23MOL   H180 9024   1.379   6.432   7.861  4.0338 -0.6625 -1.1619
   23MOL   H181 9025   1.283   6.306   7.920  0.4084 -0.7158  0.2595
   23MOL   C182 9026   1.260   6.324   7.702 -0.1974 -0.2446  0.5743
   23MOL   C183 9027   1.319   6.424   7.601 -0.2361  0.1228  0.1841
   23MOL   C184 9028   1.378   6.382   7.484  0.0796  0.3221 -1.2975
   23MOL   C185 9029   1.430   6.474   7.393 -0.0081  0.4546  0.8223
   23MOL   C186 9030   1.426   6.614   7.424 -0.2851 -0.0293  0.4416
   23MOL   O187 9031   1.480   6.696   7.328  0.0601  0.2217 -0.0839
   23MOL   C188 9032   1.497   6.833   7.351  0.3790 -0.7899 -0.2545
   23MOL   C189 9033   1.356   6.654   7.543 -0.7569  0.2372 -0.8700
   23MOL   C190 9034   1.310   6.558   7.632  0.7270 -0.1567 -0.1035
   23MOL   C191 9035   1.112   6.343   7.718  0.2140  0.6506  0.0148
   23MOL   H192 9036   1.266   6.222   7.665  1.2811 -0.4853  1.4472
   23MOL   H193 9037   1.384   6.276   7.465 -1.5458  0.1675 -0.9643
   23MOL   H194 9038   1.480   6.440   7.303 -0.7664  0.4712  0.3908
   23MOL   H195 9039   1.495   6.871   7.453 -2.7765 -1.3137 -0.0671
   23MOL   H196 9040   1.404   6.866   7.305  0.0368 -2.0910 -0.5102
   23MOL   H197 9041   1.584   6.873   7.299  0.1857  1.5446  1.1422
   23MOL   H198 9042   1.337   6.757   7.570 -0.7216  0.0073  0.0717
   23MOL   H199 9043   1.255   6.590   7.719  1.9124  1.0781  0.2069
   23MOL   H200 9044   1.082   6.270   7.793  2.4726  0.1426  0.4559
   23MOL   H201 9045   1.097   6.443   7.760 -1.2128  0.6728 -0.5099
   23MOL   C202 9046   1.027   6.338   7.585  0.0094 -0.4220 -0.0324
   23MOL   C203 9047   0.894   6.415   7.606 -0.7474 -1.1798 -0.2097
   23MOL   C204 9048   0.887   6.547   7.553  0.1475  0.4476 -0.3593
   23MOL   C205 9049   0.763   6.619   7.562 -0.4485 -0.4175  0.0698
   23MOL   C206 9050   0.652   6.561   7.629  0.3885  0.4505  0.5248
   23MOL   O207 9051   0.527   6.609   7.634 -0.3506 -0.2680 -0.0184
   23MOL   C208 9052   0.503   6.737   7.581 -0.0192  0.6247 -0.4940
   23MOL   C209 9053   0.667   6.435   7.689  0.2362 -0.3337  0.6027
   23MOL   C210 9054   0.785   6.360   7.677 -0.2366 -0.3641 -0.0391
   23MOL   C211 9055   1.001   6.190   7.554  0.0468  0.9414  0.0629
   23MOL   H212 9056   1.077   6.391   7.504  1.4525 -0.2461  0.9484
   23MOL   H213 9057   0.973   6.587   7.501  1.0906 -0.4742  0.4726
   23MOL   H214 9058   0.760   6.718   7.520 -1.1129 -1.6106 -2.8686
   23MOL   H215 9059   0.526   6.744   7.475  5.2014 -0.8016  0.4255
   23MOL   H216 9060   0.398   6.764   7.594 -0.2083  0.3658 -1.4518
   23MOL   H217 9061   0.559   6.815   7.633 -1.4835  2.1467 -1.1339
   23MOL   H218 9062   0.584   6.384   7.737 -1.1475  0.1650 -1.1992
   23MOL   H219 9063   0.781   6.259   7.715 -0.9356  0.3126  1.7309
   23MOL   H220 9064   0.940   6.134   7.624 -0.8873  0.5885 -1.0160
   23MOL   H221 9065   1.096   6.138   7.547  0.0695  0.9430  0.3384
   23MOL   C222 9066   0.931   6.150   7.417 -0.7426  0.1412  0.1484
   23MOL   C223 9067   1.003   6.213   7.294  0.3906 -0.0507 -0.6541
   23MOL   C224 9068   0.927   6.289   7.202 -0.1788 -0.5452 -0.6430
   23MOL   C225 9069   0.979   6.323   7.076 -0.4239 -0.0189 -0.6334
   23MOL   C226 9070   1.120   6.301   7.050  0.0240  0.3162  1.1810
   23MOL   O227 9071   1.183   6.327   6.937  0.1074  0.2131 -0.3077
   23MOL   C228 9072   1.104   6.403   6.848 -0.2294 -0.6770 -0.3072
   23MOL   C229 9073   1.200   6.248   7.151 -0.9901 -0.6024  0.0499
   23MOL   C230 9074   1.143   6.195   7.271 -0.5348 -0.1420 -0.0495
   23MOL   C231 9075   0.930   5.994   7.402  0.0803  0.3261  0.3619
   23MOL   H232 9076   0.827   6.177   7.434 -0.3886 -0.1809  3.1410
   23MOL   H233 9077   0.823   6.314   7.213 -0.1887 -0.3184 -1.2065
   23MOL   H234 9078   0.908   6.365   7.007 -0.4746  2.2108  0.7163
   23MOL   H235 9079   1.023   6.350   6.797 -0.6011 -0.8081  0.4223
   23MOL   H236 9080   1.064   6.491   6.899 -0.5561  0.1986 -2.0283
   23MOL   H237 9081   1.168   6.446   6.771  0.3035 -0.2280  0.3866
   23MOL   H238 9082   1.307   6.248   7.136 -1.2712 -0.4587 -2.0453
   23MOL   H239 9083   1.210   6.145   7.340 -2.1621 -0.3667  1.3781
   23MOL   H240 9084   1.034   5.963   7.394 -0.1800 -0.5130  0.1997
   23MOL   H241 9085   0.906   5.939   7.493 -0.1447 -1.5003 -0.7639
   23MOL   C242 9086   0.850   5.931   7.285 -0.1707  0.3722 -0.6683
   23MOL   C243 9087   0.924   5.806   7.235 -0.4742  0.5752  0.5325
   23MOL   C244 9088   1.013   5.820   7.129  0.6917 -0.0433 -0.0967
   23MOL   C245 9089   1.079   5.707   7.086 -0.9107  0.3288 -0.1333
   23MOL   C246 9090   1.056   5.581   7.138 -0.2306  0.2703  0.5750
   23MOL   O247 9091   1.127   5.469   7.092 -0.5642  0.2574  0.2546
   23MOL   C248 9092   1.178   5.448   6.964 -0.1146 -0.5684 -0.0916
   23MOL   C249 9093   0.966   5.563   7.241  0.4500  0.0534 -0.1986
   23MOL   C250 9094   0.902   5.681   7.297 -0.6630  0.3507  0.4932
   23MOL   C251 9095   0.703   5.912   7.325 -0.3180  0.3622 -0.9343
   23MOL   H252 9096   0.860   6.000   7.201  3.3718  2.5357  1.3912
   23MOL   H253 9097   1.031   5.915   7.081  0.0729 -0.6668 -1.6176
   23MOL   H254 9098   1.141   5.708   6.998  0.5225  3.7532  0.8256
   23MOL   H255 9099   1.091   5.448   6.898 -1.2586 -1.7194  1.3716
   23MOL   H256 9100   1.265   5.504   6.930 -0.8284 -0.2386 -1.4042
   23MOL   H257 9101   1.216   5.345   6.965 -1.3053 -1.0251  1.5776
   23MOL   H258 9102   0.947   5.468   7.290 -1.1756  0.5580  0.1763
   23MOL   H259 9103   0.833   5.671   7.380 -0.4152  0.1225  0.6726
   23MOL   H260 9104   0.668   6.008   7.362 -1.3303 -0.2389 -0.3139
   23MOL   H261 9105   0.701   5.849   7.414  1.0866  2.1573  0.4028
   23MOL   C262 9106   0.604   5.871   7.218  0.0345  0.5003 -0.1251
   23MOL   C263 9107   0.609   5.973   7.100  0.2380 -0.6624 -0.3229
   23MOL   C264 9108   0.528   6.094   7.098  0.7677  0.1129  0.6148
   23MOL   C265 9109   0.535   6.186   6.988  0.9468 -0.0150 -0.4779
   23MOL   C266 9110   0.627   6.159   6.886  0.0395  0.3923 -0.3090
   23MOL   O267 9111   0.631   6.224   6.763  0.3759  0.1319  0.2384
   23MOL   C268 9112   0.512   6.297   6.732 -0.0922  0.1687 -0.3696
   23MOL   C269 9113   0.718   6.051   6.898 -0.7829  0.3318  0.9065
   23MOL   C270 9114   0.706   5.955   7.003 -0.0703  0.3793 -0.5839
   23MOL   C271 9115   0.457   5.845   7.267 -1.0610 -0.6827  0.5403
   23MOL   H272 9116   0.631   5.778   7.169 -1.8061 -0.8417  1.3591
   23MOL   H273 9117   0.448   6.112   7.168  0.0438  1.6723 -0.5773
   23MOL   H274 9118   0.475   6.276   6.980 -1.5980 -1.3732  2.3821
   23MOL   H275 9119   0.495   6.282   6.625 -3.3604 -0.9560  0.2591
   23MOL   H276 9120   0.533   6.404   6.740  1.7539 -0.0943 -1.3298
   23MOL   H277 9121   0.418   6.267   6.776 -0.0866  1.8609  0.8167
   23MOL   H278 9122   0.790   6.032   6.820 -0.4167 -1.3208  1.6027
   23MOL   H279 9123   0.773   5.871   7.003 -1.1355 -0.4865  0.8682
   23MOL   H280 9124   0.457   5.769   7.345 -0.6525 -1.8836 -0.6199
   23MOL   H281 9125   0.430   5.932   7.327 -0.8422  0.6141 -1.2124
   23MOL   C282 9126   0.344   5.834   7.158 -0.0185 -0.9969 -0.2163
   23MOL   C283 9127   0.207   5.837   7.232 -0.1213  0.2415  0.3870
   23MOL   C284 9128   0.145   5.718   7.271 -0.0886  0.1512  0.2304
   23MOL   C285 9129   0.016   5.731   7.333 -0.2496 -0.5423 -0.0562
   23MOL   C286 9130   7.991   5.853   7.348 -0.4472 -0.4523  0.1494
   23MOL   O287 9131   7.868   5.864   7.393 -0.0829 -0.1399 -0.1380
   23MOL   C288 9132   7.773   5.765   7.352 -0.0761  0.5736 -0.1072
   23MOL   C289 9133   0.025   5.971   7.322 -0.7436 -0.5211  0.0418
   23MOL   C290 9134   0.156   5.962   7.263  0.4029  0.2362 -0.0926
   23MOL   C291 9135   0.358   5.716   7.067  0.3228  0.3149  0.7161
   23MOL   H292 9136   0.348   5.923   7.096  0.7498  0.7419  2.2326
   23MOL   H293 9137   0.191   5.622   7.257  0.6525  0.8652 -2.6521
   23MOL   H294 9138   8.007   5.638   7.358 -1.0252  0.1615  1.0562
   23MOL   H295 9139   7.793   5.729   7.251  0.1910 -2.0351  0.8327
   23MOL   H296 9140   7.778   5.687   7.428 -0.3305  1.3231  0.6767
   23MOL   H297 9141   7.678   5.817   7.352  0.4839  1.7120  3.2116
   23MOL   H298 9142   8.019   6.065   7.349  0.4187  0.8700 -2.5978
   23MOL   H299 9143   0.212   6.053   7.250  1.0047  0.1906  2.0962
   23MOL   H300 9144   0.451   5.722   7.012  0.9194  1.1207  1.8079
   23MOL   H301 9145   0.372   5.623   7.123  1.9575  0.6479  0.8780
   23MOL   C302 9146   0.246   5.697   6.955 -0.3250 -0.3800  0.3867
   23MOL   C303 9147   0.228   5.828   6.876  0.4654  0.4279  0.0508
   23MOL   C304 9148   0.108   5.901   6.871  0.3281 -0.3189  0.1074
   23MOL   C305 9149   0.098   6.026   6.810 -0.2624 -0.7507  0.3457
   23MOL   C306 9150   0.211   6.076   6.737 -0.0494  0.2975 -0.1332
   23MOL   O307 9151   0.213   6.192   6.661 -0.2872  0.0469 -1.1345
   23MOL   C308 9152   0.098   6.282   6.667  0.1760  0.4409  0.0985
   23MOL   C309 9153   0.325   5.995   6.733 -0.1935  0.2298 -0.2524
   23MOL   C310 9154   0.342   5.875   6.802 -0.1135 -0.2150  0.0488
   23MOL   C311 9155   0.260   5.566   6.873  0.3073  0.0791 -0.3937
   23MOL   H312 9156   0.153   5.687   7.012 -1.0436 -0.6689 -0.8232
   23MOL   H313 9157   0.023   5.874   6.933 -2.0490  1.1294 -2.4216
   23MOL   H314 9158   0.005   6.080   6.817  0.9126  1.4395 -0.2285
   23MOL   H315 9159   0.092   6.312   6.771  3.0324 -0.7015  0.6374
   23MOL   H316 9160   0.002   6.249   6.627  0.1887  1.7096 -1.0429
   23MOL   H317 9161   0.121   6.375   6.613 -0.4665 -1.9045 -4.5051
   23MOL   H318 9162   0.411   6.033   6.680  0.8775  0.1945  1.4423
   23MOL   H319 9163   0.439   5.827   6.802 -0.1383 -0.2783  1.7484
   23MOL   H320 9164   0.292   5.495   6.950  1.3520  0.0735 -0.8275
   23MOL   H321 9165   0.342   5.575   6.802 -0.3759  0.6841 -1.1083
   23MOL   C322 9166   0.133   5.514   6.806  0.1917 -0.9804  0.5921
   23MOL   C323 9167   0.017   5.498   6.897  0.4483 -0.3356  0.0513
   23MOL   C324 9168   7.925   5.533   6.854 -0.5557 -0.1168 -0.2203
   23MOL   C325 9169   7.809   5.513   6.930 -0.3086  0.7053 -0.0027
   23MOL   C326 9170   7.812   5.435   7.049 -0.7037  0.4355  0.0271
   23MOL   O327 9171   7.707   5.407   7.136 -0.5533 -0.2793 -0.2427
   23MOL   C328 9172   7.579   5.450   7.093 -0.0849  0.0539  0.5762
   23MOL   C329 9173   7.947   5.390   7.083 -0.1247  0.5427 -0.6332
   23MOL   C330 9174   0.028   5.424   7.013 -0.4880  0.4530 -0.3160
   23MOL   C331 9175   0.176   5.387   6.733  0.2788 -0.3730  0.4960
   23MOL   H332 9176   0.107   5.594   6.737  1.1494 -1.7837 -0.7030
   23MOL   H333 9177   7.921   5.575   6.754 -1.9463  0.3844  0.0295
   23MOL   H334 9178   7.714   5.544   6.889 -1.0871 -0.7793  0.6690
   23MOL   H335 9179   7.500   5.420   7.162 -1.1948 -0.1888 -0.7805
   23MOL   H336 9180   7.556   5.400   6.998  0.0088 -3.3292  2.2612
   23MOL   H337 9181   7.586   5.558   7.080  2.4812  0.1572  2.3896
   23MOL   H338 9182   7.959   5.340   7.178 -0.6977 -0.7256 -1.2065
   23MOL   H339 9183   0.124   5.393   7.054 -1.2728 -0.8037  0.6116
   23MOL   H340 9184   0.253   5.410   6.659 -1.1596 -2.0631 -1.6005
   23MOL   H341 9185   0.227   5.325   6.807 -0.3738 -0.8979  0.5026
   23MOL   C342 9186   0.072   5.313   6.663  0.0123  1.0150 -0.5329
   23MOL   C343 9187   0.120   5.172   6.618 -0.4358 -0.0494 -0.6615
   23MOL   C344 9188   0.053   5.052   6.658  0.0069  0.0760  0.2705
   23MOL   C345 9189   0.109   4.930   6.619  0.3215  1.2611 -0.4002
   23MOL   C346 9190   0.236   4.914   6.557 -0.0686 -0.6304  0.2386
   23MOL   O347 9191   0.293   4.797   6.514 -0.2297 -0.1142  0.2151
   23MOL   C348 9192   0.238   4.672   6.548 -0.0800  0.5163 -0.0172
   23MOL   C349 9193   0.298   5.033   6.521 -0.2193 -0.6506 -1.6126
   23MOL   C350 9194   0.240   5.160   6.552  0.7044  0.1273 -0.0480
   23MOL   C351 9195   0.020   5.390   6.543 -1.2411  0.3129  0.3472
   23MOL   H352 9196   8.028   5.305   6.733  0.6973  0.8659  0.2737
   23MOL   H353 9197   7.999   5.065   6.711  0.2410 -0.3541  0.7861
   23MOL   H354 9198   0.060   4.837   6.647  0.1705  1.3203 -0.4661
   23MOL   H355 9199   0.136   4.658   6.512 -0.0447 -0.6310  0.3282
   23MOL   H356 9200   0.307   4.596   6.512  1.7278  1.6699  0.9383
   23MOL   H357 9201   0.238   4.663   6.656  1.5184  3.3768  0.2683
   23MOL   H358 9202   0.388   5.032   6.461 -0.6474  0.6240 -2.2998
   23MOL   H359 9203   0.289   5.253   6.528  1.8294 -0.6766 -0.9190
   23MOL   H360 9204   8.026   5.482   6.592 -0.1906  0.4768  0.7822
   23MOL   H361 9205   0.106   5.411   6.479 -0.6267 -4.3945 -0.5462
   23MOL   C362 9206   7.948   5.332   6.458  0.1032 -0.2440  0.7524
   23MOL   C363 9207   7.929   5.421   6.334 -0.5898  0.0743 -0.1820
   23MOL   C364 9208   7.906   5.564   6.355  0.2255 -0.3792 -0.0541
   23MOL   C365 9209   7.887   5.647   6.241 -0.2881 -0.0739 -0.5309
   23MOL   C366 9210   7.913   5.602   6.111  0.4379  0.3569 -0.2980
   23MOL   O367 9211   7.902   5.696   6.010  0.0211  0.6412  0.1475
   23MOL   C368 9212   7.986   5.687   5.889  0.1522  0.1349  0.1054
   23MOL   C369 9213   7.956   5.470   6.093 -0.6187  0.2060  0.6049
   23MOL   C370 9214   7.973   5.382   6.201  0.0794  0.1996  0.6987
   23MOL   C371 9215   7.811   5.317   6.530  0.6896 -0.3310 -0.0294
   23MOL   H372 9216   7.986   5.235   6.425  1.2759  0.7137 -0.8063
   23MOL   H373 9217   7.880   5.606   6.450  1.4374 -0.1279  0.1714
   23MOL   H374 9218   7.861   5.750   6.259  1.0410  0.8488 -3.5212
   23MOL   H375 9219   7.954   5.596   5.840  0.1508  0.1523  0.0759
   23MOL   H376 9220   7.951   5.764   5.820 -0.1274  1.2285  1.4516
   23MOL   H377 9221   0.053   5.696   5.907  0.1228 -0.1996  0.4442
   23MOL   H378 9222   7.972   5.429   5.994  0.4991 -0.9648  1.2531
   23MOL   H379 9223   8.007   5.282   6.178  0.5274  0.4926  0.0458
   23MOL   H380 9224   7.832   5.255   6.617  1.0855  1.3577  1.0728
   23MOL   H381 9225   7.775   5.409   6.576 -0.3169 -1.5784  1.7613
   23MOL   C382 9226   7.695   5.250   6.447  0.4776  0.3458 -0.1355
   23MOL   C383 9227   7.560   5.257   6.509  0.6416 -0.3918 -0.0690
   23MOL   C384 9228   7.541   5.217   6.642 -0.2559 -0.0164 -0.4560
   23MOL   C385 9229   7.413   5.221   6.704  0.3229  0.3193  0.1239
   23MOL   C386 9230   7.297   5.251   6.629  0.0993  0.6727  0.6230
   23MOL   O387 9231   7.172   5.246   6.689 -0.6710  0.4252 -0.3695
   23MOL   C388 9232   7.057   5.289   6.617  0.0155  0.1069 -0.1401
   23MOL   C389 9233   7.317   5.292   6.493  0.3774 -0.0562  0.4144
   23MOL   C390 9234   7.444   5.298   6.438 -0.0628  0.5273 -0.2318
   23MOL   C391 9235   7.735   5.104   6.420 -0.1423 -0.6923  0.5147
   23MOL   H392 9236   7.699   5.301   6.351  0.3127 -0.5286 -0.6107
   23MOL   H393 9237   7.626   5.185   6.700 -0.6638  2.2839  1.4381
   23MOL   H394 9238   7.411   5.203   6.810  0.3344  0.0736  0.0821
   23MOL   H395 9239   7.074   5.390   6.579  0.2229  0.1443  0.0557
   23MOL   H396 9240   6.980   5.289   6.694  0.3925 -0.4385  0.2351
   23MOL   H397 9241   7.041   5.230   6.527  0.8095 -0.3631  0.0278
   23MOL   H398 9242   7.246   5.319   6.417  1.5616 -1.7317 -1.3172
   23MOL   H399 9243   7.457   5.324   6.334 -1.2960 -0.2550 -0.5925
   23MOL   H400 9244   7.673   5.049   6.349  0.8120  0.5475 -1.3423
   23MOL   H401 9245   7.740   5.051   6.515  0.5962 -1.7922 -0.1285
   23MOL   H402 9246   7.832   5.094   6.372 -0.2578  1.3583 -0.2034
   24MOL     C1 9247   5.102   4.894   1.857  0.2256 -0.0040 -0.1768
   24MOL     C2 9248   5.074   4.887   2.009 -0.3918  0.3003 -0.1807
   24MOL     C3 9249   4.986   4.981   2.064 -1.0028  0.1371 -0.3782
   24MOL     C4 9250   4.955   4.984   2.205  0.5609  0.2834 -0.7131
   24MOL     C5 9251   5.019   4.893   2.287 -0.4317 -0.5115 -0.0245
   24MOL     O6 9252   5.006   4.895   2.426 -0.3307  0.0042 -0.1188
   24MOL     C7 9253   4.905   4.981   2.492 -0.4658 -0.4967 -0.7014
   24MOL     C8 9254   5.108   4.800   2.235  0.2225 -0.2357 -0.2850
   24MOL     C9 9255   5.133   4.791   2.097 -0.2213  0.3408  0.2379
   24MOL    C10 9256   4.981   4.926   1.769  0.3013  0.6368 -0.4608
   24MOL    H11 9257   5.161   4.810   1.821  0.3588 -0.0457  0.1401
   24MOL    H12 9258   4.943   5.055   1.998  1.5160  1.8600 -0.1652
   24MOL    H13 9259   4.884   5.058   2.237 -0.6063  0.3618 -3.3523
   24MOL    H14 9260   4.911   4.990   2.600 -4.6499  1.1385 -0.4966
   24MOL    H15 9261   4.927   5.083   2.462  0.0912  0.0016  1.3378
   24MOL    H16 9262   4.805   4.953   2.460 -0.1031 -1.5130 -0.9746
   24MOL    H17 9263   5.147   4.729   2.307 -2.1753  0.4836  1.7896
   24MOL    H18 9264   5.204   4.722   2.054  0.7481  0.8809  0.9547
   24MOL    H19 9265   4.902   4.852   1.786 -1.5641  2.0711 -2.5141
   24MOL    H20 9266   4.938   5.022   1.799 -0.9928 -0.7479  2.2668
   24MOL    H21 9267   5.177   4.973   1.849 -1.6536  1.9110  0.6364
   24MOL    C22 9268   5.013   4.945   1.620  0.2898 -0.5904  0.4921
   24MOL    C23 9269   5.044   4.819   1.547 -0.5233 -0.0401  0.3303
   24MOL    C24 9270   5.173   4.791   1.496 -0.6046  0.2350  0.1729
   24MOL    C25 9271   5.199   4.676   1.418 -0.0521  0.2750 -0.0850
   24MOL    C26 9272   5.105   4.572   1.401  0.5406 -0.1711  0.0150
   24MOL    O27 9273   5.150   4.453   1.347 -0.5605  0.0442 -0.2329
   24MOL    C28 9274   5.062   4.345   1.324 -0.1187 -0.0761  0.4501
   24MOL    C29 9275   4.972   4.603   1.444  0.7350 -0.2924 -0.0144
   24MOL    C30 9276   4.941   4.725   1.513 -0.0359  0.6523 -0.4682
   24MOL    C31 9277   4.915   5.035   1.539  1.0193 -0.2977  0.5388
   24MOL    H32 9278   5.103   5.007   1.617 -1.1757  1.6558  1.4000
   24MOL    H33 9279   5.251   4.865   1.502  0.4651 -0.4991 -3.5479
   24MOL    H34 9280   5.293   4.648   1.373 -1.1554  0.2119 -2.4075
   24MOL    H35 9281   5.014   4.345   1.226  0.3266  1.6787  0.2221
   24MOL    H36 9282   4.989   4.331   1.404  0.1221 -0.7508  0.5571
   24MOL    H37 9283   5.127   4.257   1.329 -0.7874 -0.5837  0.3186
   24MOL    H38 9284   4.905   4.520   1.425  1.3463 -1.3745  2.2994
   24MOL    H39 9285   4.842   4.735   1.555  0.1678 -0.1127  0.2157
   24MOL    H40 9286   4.840   4.969   1.495 -0.4970  0.4886  1.8852
   24MOL    H41 9287   4.869   5.106   1.608  1.4189 -1.1845  1.7252
   24MOL    C42 9288   4.982   5.124   1.425  0.3261 -0.0750 -0.0610
   24MOL    C43 9289   5.093   5.225   1.473 -0.1072  0.7215 -1.0519
   24MOL    C44 9290   5.062   5.361   1.499 -0.0121  0.0957  0.4760
   24MOL    C45 9291   5.156   5.452   1.553 -0.7113 -0.2692  0.8138
   24MOL    C46 9292   5.286   5.415   1.565 -0.4879 -0.6301  0.6173
   24MOL    O47 9293   5.384   5.504   1.606  0.4201  0.2736 -0.5182
   24MOL    C48 9294   5.344   5.630   1.662  0.1916 -0.2283  0.4222
   24MOL    C49 9295   5.323   5.286   1.525 -0.8334 -0.0331 -0.3488
   24MOL    C50 9296   5.227   5.186   1.485  0.2055 -0.0191  0.0243
   24MOL    C51 9297   4.884   5.180   1.317  0.2035  0.0329  0.5972
   24MOL    H52 9298   5.025   5.045   1.363 -2.0136 -1.9253  0.6130
   24MOL    H53 9299   4.962   5.396   1.479  0.4807  1.0624 -0.3257
   24MOL    H54 9300   5.118   5.551   1.575 -0.4315  0.5235 -1.9966
   24MOL    H55 9301   5.296   5.696   1.591  0.9883 -2.7729 -2.6160
   24MOL    H56 9302   5.293   5.612   1.756 -0.2203 -2.9403 -0.2730
   24MOL    H57 9303   5.437   5.670   1.703  0.9021 -1.0242 -0.3884
   24MOL    H58 9304   5.428   5.263   1.519 -0.7356  0.1658  0.4984
   24MOL    H59 9305   5.261   5.089   1.451  1.7376  1.0278 -1.5045
   24MOL    H60 9306   4.820   5.247   1.373  0.4352  0.5059  0.2989
   24MOL    H61 9307   4.830   5.100   1.268  0.2605 -0.9318  2.0734
   24MOL    C62 9308   4.953   5.253   1.201  0.3122 -0.3218  0.0483
   24MOL    C63 9309   4.853   5.331   1.110  0.2808 -0.2313 -0.3251
   24MOL    C64 9310   4.811   5.461   1.137 -0.4314  0.1606  0.3036
   24MOL    C65 9311   4.711   5.526   1.062  1.3802  0.0344 -0.3969
   24MOL    C66 9312   4.635   5.453   0.968  0.0066  0.3170 -0.9603
   24MOL    O67 9313   4.528   5.505   0.901  0.1011  0.1283 -0.7320
   24MOL    C68 9314   4.488   5.637   0.930  0.0384  0.3432 -0.0019
   24MOL    C69 9315   4.672   5.324   0.937 -0.9124 -0.3461 -0.0756
   24MOL    C70 9316   4.783   5.266   1.006 -0.1336  0.9224 -0.7333
   24MOL    C71 9317   5.056   5.172   1.122  0.3137 -0.2161  0.5216
   24MOL    H72 9318   5.007   5.334   1.247  0.5731 -0.8127  0.6097
   24MOL    H73 9319   4.860   5.514   1.217 -0.4013  0.9186 -0.2090
   24MOL    H74 9320   4.682   5.624   1.096  0.6700  0.1615 -1.3126
   24MOL    H75 9321   4.389   5.656   0.887 -0.2627 -0.8509  0.1430
   24MOL    H76 9322   4.563   5.711   0.904  0.0312  0.4120  0.1769
   24MOL    H77 9323   4.468   5.651   1.036 -1.4778  1.8444 -0.4634
   24MOL    H78 9324   4.617   5.269   0.862  1.3702 -0.3420 -1.8024
   24MOL    H79 9325   4.801   5.162   0.983 -0.2949  0.6166  0.4982
   24MOL    H80 9326   5.123   5.131   1.198  2.3521  1.9117 -0.0676
   24MOL    H81 9327   5.003   5.093   1.070 -2.1647  1.8767 -0.2539
   24MOL    C82 9328   5.146   5.260   1.029  0.0193 -0.7208  0.1024
   24MOL    C83 9329   5.215   5.372   1.106  0.3407 -0.2343  0.5856
   24MOL    C84 9330   5.322   5.343   1.195 -0.2017 -0.2479  0.7988
   24MOL    C85 9331   5.388   5.455   1.257  0.7961 -0.2532  0.5850
   24MOL    C86 9332   5.345   5.585   1.247 -0.1168 -0.6067 -0.4792
   24MOL    O87 9333   5.402   5.700   1.294  0.0618  0.0287 -0.0201
   24MOL    C88 9334   5.537   5.693   1.322 -0.0646 -0.1007  0.3941
   24MOL    C89 9335   5.241   5.605   1.155 -0.5579  0.2269 -0.0535
   24MOL    C90 9336   5.177   5.507   1.078 -0.1433  0.2340 -0.0532
   24MOL    C91 9337   5.249   5.179   0.947 -0.2981  0.3637 -0.3345
   24MOL    H92 9338   5.070   5.303   0.965  0.6150 -0.9704 -0.7840
   24MOL    H93 9339   5.358   5.242   1.204  2.1167  0.4141 -0.7305
   24MOL    H94 9340   5.477   5.426   1.311  0.1607  1.1487  2.4114
   24MOL    H95 9341   5.566   5.792   1.357  0.8621 -0.1054 -0.3405
   24MOL    H96 9342   5.603   5.684   1.236  0.4587  1.3734  0.6245
   24MOL    H97 9343   5.559   5.630   1.408 -0.5199 -2.4373 -1.1432
   24MOL    H98 9344   5.234   5.707   1.120 -2.8022 -0.2923 -1.2340
   24MOL    H99 9345   5.109   5.532   0.998 -2.4515  2.0483  2.3888
   24MOL   H100 9346   5.332   5.152   1.012 -1.0985 -0.8670  0.1928
   24MOL   H101 9347   5.201   5.087   0.915  0.4167  0.4624 -1.7116
   24MOL   C102 9348   5.300   5.247   0.816  0.8409 -0.2840 -0.1182
   24MOL   C103 9349   5.446   5.206   0.791  0.2146  1.2767 -0.7445
   24MOL   C104 9350   5.535   5.308   0.754 -0.2292 -0.4543  0.5741
   24MOL   C105 9351   5.668   5.286   0.721  0.0107 -0.2287  0.0118
   24MOL   C106 9352   5.716   5.157   0.736 -0.1563 -0.4738 -0.0923
   24MOL   O107 9353   5.849   5.127   0.715  0.5148  0.5832  0.2672
   24MOL   C108 9354   5.921   5.206   0.625 -0.3469 -0.5243 -0.1813
   24MOL   C109 9355   5.634   5.047   0.772  0.0077  0.1368 -0.2212
   24MOL   C110 9356   5.494   5.073   0.801  0.8279  0.1782 -0.3878
   24MOL   C111 9357   5.216   5.207   0.691  1.3805 -0.8321  0.4455
   24MOL   H112 9358   5.306   5.354   0.837 -1.9525  0.0795 -1.0182
   24MOL   H113 9359   5.501   5.409   0.734  0.3831 -0.3626 -0.0499
   24MOL   H114 9360   5.722   5.365   0.671 -0.2047 -0.8335 -1.1921
   24MOL   H115 9361   5.941   5.309   0.654 -0.4793 -0.6701  0.4197
   24MOL   H116 9362   6.023   5.171   0.613 -0.1508  0.2531 -0.8199
   24MOL   H117 9363   5.875   5.216   0.526 -2.7241  1.1340  1.0430
   24MOL   H118 9364   5.678   4.949   0.784 -2.5269 -0.9861  0.0953
   24MOL   H119 9365   5.425   4.993   0.824  0.8390  0.3069  0.1100
   24MOL   H120 9366   5.250   5.117   0.640  1.6557 -0.5311  0.0918
   24MOL   H121 9367   5.115   5.181   0.722  0.4468  2.9972  0.9452
   24MOL   C122 9368   5.211   5.323   0.592  0.7215 -0.2024 -0.6541
   24MOL   C123 9369   5.151   5.452   0.650  0.0055 -0.1634 -0.6512
   24MOL   C124 9370   5.010   5.457   0.679  0.0444  0.4391  0.6966
   24MOL   C125 9371   4.952   5.580   0.719 -0.3523  0.0982  0.1301
   24MOL   C126 9372   5.031   5.679   0.777 -0.1731 -0.1171  0.2264
   24MOL   O127 9373   4.975   5.781   0.850 -0.0386 -0.0934 -0.0967
   24MOL   C128 9374   5.045   5.884   0.917 -0.2521 -0.4940 -0.3553
   24MOL   C129 9375   5.173   5.673   0.763 -0.8617 -0.3309 -0.3719
   24MOL   C130 9376   5.232   5.567   0.689 -0.4865 -0.3025 -0.0477
   24MOL   C131 9377   5.152   5.286   0.455  0.7068  0.1696  0.6595
   24MOL   H132 9378   5.317   5.342   0.578  0.6232  1.1986  0.4196
   24MOL   H133 9379   4.940   5.378   0.658  1.3408 -0.4147 -0.5111
   24MOL   H134 9380   4.844   5.587   0.721 -0.2589  1.5752  1.1288
   24MOL   H135 9381   4.981   5.972   0.915 -0.2610 -0.5165 -1.4247
   24MOL   H136 9382   5.053   5.861   1.023 -0.0490  1.3339  0.0422
   24MOL   H137 9383   5.139   5.918   0.874  0.4670 -0.3131  1.3261
   24MOL   H138 9384   5.236   5.756   0.789 -2.2843  0.2296  1.4015
   24MOL   H139 9385   5.337   5.561   0.665 -0.4361  1.2361 -0.2932
   24MOL   H140 9386   5.044   5.292   0.470  0.7937  3.3015  0.3218
   24MOL   H141 9387   5.180   5.184   0.427  0.1347 -0.0162  0.7637
   24MOL   C142 9388   5.190   5.390   0.341 -0.1449 -0.2052 -0.4741
   24MOL   C143 9389   5.341   5.398   0.312 -0.0642  0.5858  0.4542
   24MOL   C144 9390   5.400   5.287   0.248  0.2501 -0.2805 -0.0889
   24MOL   C145 9391   5.533   5.311   0.194  0.0841  0.8657 -0.5171
   24MOL   C146 9392   5.604   5.427   0.220 -0.6715 -0.7121 -0.2968
   24MOL   O147 9393   5.725   5.444   0.156  0.2395  0.8040 -0.6318
   24MOL   C148 9394   5.786   5.575   0.159 -0.3610 -0.5444  0.0837
   24MOL   C149 9395   5.544   5.531   0.297 -0.2978 -0.6386  0.6058
   24MOL   C150 9396   5.414   5.517   0.351 -0.4045  0.1100  0.5805
   24MOL   C151 9397   5.101   5.372   0.214  0.1450 -0.2529  0.0616
   24MOL   H152 9398   5.168   5.487   0.387  2.8901  0.3391 -0.1008
   24MOL   H153 9399   5.347   5.193   0.242 -2.0725  1.0102 -0.6062
   24MOL   H154 9400   5.593   5.237   0.144  0.9615  2.0085 -1.1775
   24MOL   H155 9401   5.714   5.647   0.119 -0.5477 -0.6573  0.2175
   24MOL   H156 9402   5.816   5.596   0.262  0.6197 -2.2497  0.1479
   24MOL   H157 9403   5.881   5.593   0.109  0.1215 -0.6854  0.9455
   24MOL   H158 9404   5.594   5.622   0.326  1.9950 -1.5469 -0.4100
   24MOL   H159 9405   5.362   5.589   0.412 -0.6794 -0.3470  0.8861
   24MOL   H160 9406   4.998   5.379   0.248  0.1285 -1.1363  0.2197
   24MOL   H161 9407   5.109   5.269   0.179 -0.9935 -0.6980  1.0885
   24MOL   C162 9408   5.133   5.457   0.092 -0.1359 -0.7805  0.4393
   24MOL   C163 9409   5.149   5.603   0.118 -0.5717 -0.8908  0.4629
   24MOL   C164 9410   5.282   5.659   0.094 -0.6149  0.0970  0.6492
   24MOL   C165 9411   5.303   5.796   0.111 -0.2813 -0.6343  0.1406
   24MOL   C166 9412   5.193   5.878   0.157  0.6784  0.4700  0.0771
   24MOL   O167 9413   5.202   6.013   0.177 -0.0522 -0.1361 -0.0954
   24MOL   C168 9414   5.319   6.080   0.145 -0.3339 -0.0570 -0.0677
   24MOL   C169 9415   5.068   5.814   0.186  0.4649 -0.2482 -0.1273
   24MOL   C170 9416   5.050   5.680   0.169 -0.2445 -0.2455  0.3895
   24MOL   C171 9417   5.051   5.429   8.007  1.2666  0.4809  0.0104
   24MOL   H172 9418   5.231   5.423   0.057 -1.1003 -2.7235 -0.4306
   24MOL   H173 9419   5.367   5.598   0.066  0.2305  1.6726 -0.3276
   24MOL   H174 9420   5.397   5.842   0.083 -1.7565  1.7024 -1.1993
   24MOL   H175 9421   5.339   6.093   0.039  1.3144  0.6199  0.3042
   24MOL   H176 9422   5.404   6.034   0.195 -0.2400  1.4781  1.2181
   24MOL   H177 9423   5.308   6.181   0.184  1.4460  0.0828  0.1184
   24MOL   H178 9424   4.989   5.879   0.220 -1.2089 -2.2420 -0.1802
   24MOL   H179 9425   4.959   5.631   0.200 -0.5459 -0.6960 -1.1661
   24MOL   H180 9426   4.959   5.478   8.039 -0.3134 -1.1156 -1.9689
   24MOL   H181 9427   5.026   5.323   8.012 -1.0999  0.9864 -0.4975
   24MOL   C182 9428   5.088   5.466   7.860 -0.2975  0.0439 -0.2588
   24MOL   C183 9429   4.972   5.451   7.763 -0.5647  0.1845 -0.9079
   24MOL   C184 9430   4.926   5.562   7.684  0.6318  0.4364  0.3912
   24MOL   C185 9431   4.810   5.549   7.604  0.2195 -0.1133  0.4919
   24MOL   C186 9432   4.764   5.418   7.583  0.3447 -0.4162  0.0513
   24MOL   O187 9433   4.661   5.405   7.494  0.2903 -0.2374  0.1809
   24MOL   C188 9434   4.624   5.283   7.455  0.3087 -0.1755  0.0010
   24MOL   C189 9435   4.816   5.311   7.657  0.4159  0.7677  0.3310
   24MOL   C190 9436   4.917   5.323   7.752  0.3465  1.0021  0.1927
   24MOL   C191 9437   5.217   5.389   7.816  0.2295 -0.4249 -0.2172
   24MOL   H192 9438   5.123   5.569   7.856 -1.0362  0.3932  1.6305
   24MOL   H193 9439   4.985   5.652   7.695  0.5476  0.3752  1.4104
   24MOL   H194 9440   4.764   5.632   7.552  0.3653 -0.8154 -0.7889
   24MOL   H195 9441   4.532   5.304   7.399  0.7844  2.5487  0.1812
   24MOL   H196 9442   4.594   5.208   7.529 -0.8936  1.2412  0.9983
   24MOL   H197 9443   4.687   5.227   7.387 -0.0646  1.1201 -1.4325
   24MOL   H198 9444   4.775   5.212   7.640 -0.7520  1.2194  0.4562
   24MOL   H199 9445   4.951   5.239   7.810  0.3538  0.8862  0.0213
   24MOL   H200 9446   5.289   5.409   7.895 -0.5966  0.4361  0.3337
   24MOL   H201 9447   5.197   5.283   7.831 -3.1817  0.3428  1.0613
   24MOL   C202 9448   5.272   5.415   7.675  0.4096 -0.5483  0.2427
   24MOL   C203 9449   5.399   5.338   7.652  1.1305 -0.3638  0.1173
   24MOL   C204 9450   5.508   5.361   7.734 -0.0613 -0.2561 -0.0803
   24MOL   C205 9451   5.625   5.283   7.715 -0.2968 -0.5770  0.2826
   24MOL   C206 9452   5.627   5.179   7.615 -0.2559 -0.9326 -0.1990
   24MOL   O207 9453   5.738   5.103   7.601  0.1975 -0.3658  0.4710
   24MOL   C208 9454   5.722   4.977   7.532  0.2620  0.3505  0.0075
   24MOL   C209 9455   5.513   5.166   7.537 -0.0705  0.1158 -0.5517
   24MOL   C210 9456   5.404   5.248   7.551 -0.3417  0.0413 -0.2127
   24MOL   C211 9457   5.292   5.566   7.658  0.2738  0.6171 -0.0069
   24MOL   H212 9458   5.198   5.382   7.602  0.9999 -2.4075  0.4531
   24MOL   H213 9459   5.511   5.434   7.814 -0.0272 -0.0021 -0.3155
   24MOL   H214 9460   5.715   5.290   7.774  0.8620 -3.6308 -1.0201
   24MOL   H215 9461   5.673   4.897   7.587 -0.3753  1.3143  0.8642
   24MOL   H216 9462   5.677   4.990   7.434  1.7957  0.9445 -0.6247
   24MOL   H217 9463   5.822   4.938   7.514  1.7006  3.2000  1.4150
   24MOL   H218 9464   5.496   5.084   7.468 -1.1590 -0.2336  0.1153
   24MOL   H219 9465   5.323   5.231   7.482  0.1799  2.7856 -1.5777
   24MOL   H220 9466   5.362   5.609   7.730  1.8677 -0.1399 -1.0784
   24MOL   H221 9467   5.195   5.614   7.670  0.2860  1.4029 -2.7122
   24MOL   C222 9468   5.338   5.600   7.513 -0.1412 -0.4006  0.7376
   24MOL   C223 9469   5.235   5.560   7.407 -0.2323 -0.0382  0.9144
   24MOL   C224 9470   5.269   5.454   7.320  0.5681  0.1340 -0.0434
   24MOL   C225 9471   5.180   5.428   7.215  0.2980 -0.5753 -0.9429
   24MOL   C226 9472   5.057   5.496   7.197  0.0803  0.3746 -0.1974
   24MOL   O227 9473   4.979   5.462   7.086 -0.0236  0.3350 -0.7245
   24MOL   C228 9474   4.843   5.494   7.089  0.7414  0.7923 -0.0621
   24MOL   C229 9475   5.020   5.597   7.288  0.6553 -0.0997 -1.1808
   24MOL   C230 9476   5.112   5.628   7.391 -0.4236 -0.1625 -0.2468
   24MOL   C231 9477   5.373   5.753   7.484 -0.5222  0.0521 -0.0050
   24MOL   H232 9478   5.428   5.540   7.502 -0.0629 -0.7602  3.0676
   24MOL   H233 9479   5.366   5.407   7.327  0.5627  0.0065 -0.7708
   24MOL   H234 9480   5.208   5.353   7.142  0.0415  1.3337 -3.0854
   24MOL   H235 9481   4.830   5.593   7.045  1.0281  1.0098  0.3421
   24MOL   H236 9482   4.793   5.429   7.017 -0.6851 -0.3507  1.9282
   24MOL   H237 9483   4.783   5.498   7.180 -0.0476 -1.6646 -0.4184
   24MOL   H238 9484   4.924   5.646   7.282 -0.2012 -1.8192 -2.0557
   24MOL   H239 9485   5.091   5.705   7.464  0.8265  2.0117 -2.1214
   24MOL   H240 9486   5.397   5.770   7.379 -0.1461  0.4378  0.1417
   24MOL   H241 9487   5.277   5.802   7.500 -0.8218  0.3051 -2.4030
   24MOL   C242 9488   5.477   5.811   7.592  0.2673 -0.5405 -0.2753
   24MOL   C243 9489   5.609   5.747   7.589 -0.1035  0.0475 -0.1718
   24MOL   C244 9490   5.683   5.741   7.465  0.1613  0.1326 -0.2788
   24MOL   C245 9491   5.809   5.672   7.462 -0.4931 -0.1334  0.0784
   24MOL   C246 9492   5.847   5.596   7.569 -0.6739  0.5152  0.2468
   24MOL   O247 9493   5.959   5.511   7.567  0.8761  0.1460  0.2554
   24MOL   C248 9494   6.057   5.544   7.468 -0.1802 -0.0252  0.0250
   24MOL   C249 9495   5.781   5.603   7.691  0.4695  0.3764 -0.5019
   24MOL   C250 9496   5.665   5.686   7.706 -0.5313  0.0768  0.3182
   24MOL   C251 9497   5.487   5.967   7.576 -0.2636  0.6160 -0.5898
   24MOL   H252 9498   5.437   5.803   7.694 -0.9934  0.2222 -0.7009
   24MOL   H253 9499   5.638   5.801   7.387  0.2427 -0.9731 -1.1953
   24MOL   H254 9500   5.873   5.668   7.376  0.8452  0.6476  1.0243
   24MOL   H255 9501   6.034   5.536   7.362 -0.7750  0.7399  0.0908
   24MOL   H256 9502   6.096   5.643   7.492 -1.3986  0.1139  1.5665
   24MOL   H257 9503   6.145   5.479   7.464  0.2645  0.6437 -1.2526
   24MOL   H258 9504   5.824   5.545   7.771 -1.1390 -1.0462 -0.6385
   24MOL   H259 9505   5.616   5.701   7.801 -0.8395  0.6027  0.0794
   24MOL   H260 9506   5.448   6.014   7.486 -1.3499 -1.0699 -1.0047
   24MOL   H261 9507   5.594   5.990   7.579 -0.3100  1.2381 -2.6604
   24MOL   C262 9508   5.427   6.043   7.700 -0.0654  0.0865  0.0907
   24MOL   C263 9509   5.280   6.006   7.714  0.2461  0.1792 -0.5377
   24MOL   C264 9510   5.226   5.936   7.819  0.4887 -0.1482 -0.6338
   24MOL   C265 9511   5.092   5.903   7.828  0.0768  0.1306 -0.3198
   24MOL   C266 9512   4.999   5.948   7.737 -0.2471  0.4084  0.0715
   24MOL   O267 9513   4.868   5.907   7.756 -0.3695  0.4614 -0.1734
   24MOL   C268 9514   4.777   5.962   7.662 -0.1015  0.1643 -0.0213
   24MOL   C269 9515   5.042   6.013   7.622 -0.9759 -0.4492 -1.1704
   24MOL   C270 9516   5.180   6.040   7.610  0.2026  0.1500  0.2178
   24MOL   C271 9517   5.455   6.194   7.697  0.7221  0.4788 -0.2568
   24MOL   H272 9518   5.477   6.008   7.790  0.7309  2.0270  0.4220
   24MOL   H273 9519   5.288   5.904   7.901 -0.7858  2.4077  1.4271
   24MOL   H274 9520   5.047   5.840   7.903 -0.5297  0.1688 -0.6424
   24MOL   H275 9521   4.798   5.942   7.557 -1.0382  0.8046 -0.3369
   24MOL   H276 9522   4.769   6.069   7.679 -0.8886 -0.0154  0.7542
   24MOL   H277 9523   4.676   5.930   7.685 -0.0281  0.6698  1.0146
   24MOL   H278 9524   4.981   6.050   7.542 -2.3950 -2.2988 -0.9880
   24MOL   H279 9525   5.223   6.088   7.524  3.2657  0.6697  1.9573
   24MOL   H280 9526   5.421   6.244   7.606 -2.5480 -0.0305  0.6221
   24MOL   H281 9527   5.392   6.247   7.769 -1.1626  0.5336 -1.8948
   24MOL   C282 9528   5.599   6.224   7.736 -0.1763  0.0673  0.3476
   24MOL   C283 9529   5.647   6.160   7.863 -0.1826 -0.5100 -0.4533
   24MOL   C284 9530   5.750   6.065   7.861 -0.1630 -0.4927 -0.4127
   24MOL   C285 9531   5.789   6.009   7.984  0.0023  0.1382  0.3732
   24MOL   C286 9532   5.732   6.044   0.066  0.3907  0.3199  0.1408
   24MOL   O287 9533   5.791   5.984   0.176 -0.0553 -0.0773  0.3848
   24MOL   C288 9534   5.717   5.965   0.292  0.3324  0.9840 -0.6278
   24MOL   C289 9535   5.639   6.146   0.070  0.0274  0.3649 -0.0700
   24MOL   C290 9536   5.589   6.193   7.984 -0.0299 -0.6083 -0.1611
   24MOL   C291 9537   5.641   6.377   7.742 -0.0706 -0.3329 -0.0623
   24MOL   H292 9538   5.670   6.187   7.662 -0.3659  0.8878 -0.2532
   24MOL   H293 9539   5.800   6.058   7.766  3.3793 -0.7727  1.4166
   24MOL   H294 9540   5.869   5.937   7.982  1.0054  1.2646 -0.9708
   24MOL   H295 9541   5.756   5.877   0.344 -0.2443 -0.0277 -1.8697
   24MOL   H296 9542   5.715   6.051   0.358  0.4418  0.1512  0.4841
   24MOL   H297 9543   5.612   5.944   0.271  0.1445  3.4820 -2.4269
   24MOL   H298 9544   5.595   6.186   0.160 -0.5775 -0.3803 -0.0295
   24MOL   H299 9545   5.510   6.267   7.985 -0.7536 -1.3991  1.4823
   24MOL   H300 9546   5.586   6.421   7.824 -0.2377  0.3698 -0.5514
   24MOL   H301 9547   5.748   6.387   7.764  0.0966 -0.2789 -0.8723
   24MOL   C302 9548   5.615   6.446   7.610  0.2042  0.0737  0.1020
   24MOL   C303 9549   5.630   6.591   7.639 -0.1108 -0.7930  0.0004
   24MOL   C304 9550   5.758   6.642   7.673  0.1827 -0.3147  0.2600
   24MOL   C305 9551   5.763   6.774   7.720  0.6040 -0.3865 -0.3570
   24MOL   C306 9552   5.650   6.862   7.716  0.6472  0.7037  0.6177
   24MOL   O307 9553   5.663   6.988   7.765  0.0590 -0.7138 -0.0703
   24MOL   C308 9554   5.552   7.078   7.765  0.1596  0.5736  0.0619
   24MOL   C309 9555   5.530   6.808   7.670  0.5575  0.8107 -0.6535
   24MOL   C310 9556   5.520   6.674   7.634  0.6696  0.0138 -0.6122
   24MOL   C311 9557   5.706   6.404   7.490 -0.3385 -0.2699  0.0514
   24MOL   H312 9558   5.510   6.429   7.584 -0.4181  2.0980  1.2088
   24MOL   H313 9559   5.843   6.578   7.690  1.3788  1.3659  0.7162
   24MOL   H314 9560   5.851   6.816   7.766 -1.7132  0.3143  3.7555
   24MOL   H315 9561   5.588   7.180   7.777  0.6388  0.4551 -0.3598
   24MOL   H316 9562   5.479   7.068   7.845 -2.2777 -0.2050 -2.1900
   24MOL   H317 9563   5.492   7.082   7.674 -1.3532 -1.1775  0.9327
   24MOL   H318 9564   5.439   6.866   7.661  0.5262  0.8342 -0.1755
   24MOL   H319 9565   5.422   6.634   7.610  0.9880  0.3230 -2.5197
   24MOL   H320 9566   5.711   6.295   7.484  0.8357 -0.2358  0.2470
   24MOL   H321 9567   5.809   6.432   7.512 -0.6816  1.8663 -0.9719
   24MOL   C322 9568   5.671   6.449   7.344  0.1693 -0.2014 -0.3393
   24MOL   C323 9569   5.520   6.434   7.315 -0.2612 -0.5133  0.2015
   24MOL   C324 9570   5.462   6.307   7.310 -0.1697  0.2566 -0.3242
   24MOL   C325 9571   5.324   6.297   7.274 -0.6714 -0.4126  0.2199
   24MOL   C326 9572   5.247   6.410   7.242  0.1846  0.3370  0.1606
   24MOL   O327 9573   5.110   6.415   7.236  0.0377  0.1392 -0.3318
   24MOL   C328 9574   5.039   6.305   7.281 -0.0469  0.7999 -0.1564
   24MOL   C329 9575   5.317   6.532   7.227  0.5820  0.1058  0.4262
   24MOL   C330 9576   5.449   6.543   7.264 -0.4457 -0.2775 -0.1999
   24MOL   C331 9577   5.759   6.394   7.228 -0.5947  0.2994 -0.0466
   24MOL   H332 9578   5.682   6.557   7.354 -0.6647  0.0183 -1.7246
   24MOL   H333 9579   5.516   6.218   7.340 -2.6010 -1.9525 -2.1649
   24MOL   H334 9580   5.285   6.199   7.298  0.5998 -1.0692 -0.3377
   24MOL   H335 9581   4.935   6.312   7.314 -0.1520 -1.6581  0.1384
   24MOL   H336 9582   5.078   6.245   7.364 -0.6527  0.0944 -0.3686
   24MOL   H337 9583   5.019   6.234   7.200 -0.4325 -0.6646  1.1879
   24MOL   H338 9584   5.266   6.616   7.182  0.8629  1.2871  2.2964
   24MOL   H339 9585   5.505   6.633   7.246 -2.6325  1.0354 -0.5525
   24MOL   H340 9586   5.708   6.410   7.133  0.8529 -2.3179 -1.3316
   24MOL   H341 9587   5.846   6.459   7.222 -1.5366  1.4899 -0.8646
   24MOL   C342 9588   5.794   6.239   7.230  0.2463  0.0683 -0.2518
   24MOL   C343 9589   5.873   6.187   7.354 -0.0466 -0.0411  0.3088
   24MOL   C344 9590   5.833   6.067   7.413 -0.8554  0.4849 -0.0037
   24MOL   C345 9591   5.902   6.020   7.525 -0.5713 -0.4394 -0.9006
   24MOL   C346 9592   6.011   6.096   7.575 -0.8333 -0.2980 -0.4919
   24MOL   O347 9593   6.084   6.037   7.677  0.6369  0.0746  0.0346
   24MOL   C348 9594   6.186   6.111   7.733  0.0428 -0.7535 -0.4660
   24MOL   C349 9595   6.053   6.215   7.512  0.5805  0.5497  0.4109
   24MOL   C350 9596   5.987   6.250   7.400 -0.2092 -0.5946 -0.1523
   24MOL   C351 9597   5.876   6.210   7.100  0.2557 -0.0602 -0.2741
   24MOL   H352 9598   5.701   6.183   7.215 -0.1439  0.8169 -0.6671
   24MOL   H353 9599   5.747   6.010   7.384 -2.0305  1.8697  0.6636
   24MOL   H354 9600   5.872   5.926   7.568 -0.7666 -0.0887 -0.2729
   24MOL   H355 9601   6.224   6.050   7.815 -1.9392 -0.3383  0.7999
   24MOL   H356 9602   6.270   6.118   7.663  0.9462  1.8112  0.8337
   24MOL   H357 9603   6.151   6.206   7.771 -4.2619 -1.8972 -1.3615
   24MOL   H358 9604   6.128   6.278   7.557  0.5780  1.6857 -1.1089
   24MOL   H359 9605   6.010   6.338   7.342  0.4475 -0.2125  0.6796
   24MOL   H360 9606   5.946   6.292   7.081 -1.6604  1.7106  0.1204
   24MOL   H361 9607   5.942   6.125   7.112 -0.3812 -0.6033 -0.5864
   24MOL   C362 9608   5.790   6.178   6.971 -0.2309  0.2481  0.0387
   24MOL   C363 9609   5.671   6.073   6.995  0.7845 -0.1696 -0.8101
   24MOL   C364 9610   5.539   6.105   6.952 -0.2345 -0.3702 -0.4500
   24MOL   C365 9611   5.435   6.018   6.985  0.6940 -0.3132 -0.5570
   24MOL   C366 9612   5.461   5.897   7.051  0.8020 -0.1684  0.1355
   24MOL   O367 9613   5.357   5.814   7.090  0.0118  0.2689  0.2690
   24MOL   C368 9614   5.231   5.829   7.035 -0.4590  0.6803 -0.2822
   24MOL   C369 9615   5.590   5.866   7.095  0.3112 -0.2089  0.1031
   24MOL   C370 9616   5.700   5.950   7.058  0.0574  0.7282 -0.3266
   24MOL   C371 9617   5.889   6.138   6.860 -0.0422  0.3673 -0.4452
   24MOL   H372 9618   5.742   6.274   6.952  0.3609  0.7982  1.2442
   24MOL   H373 9619   5.532   6.193   6.890 -0.9980  2.1891  3.1148
   24MOL   H374 9620   5.339   6.038   6.941 -0.7823 -0.2378  2.5692
   24MOL   H375 9621   5.160   5.761   7.082  0.0992 -0.9457 -1.7248
   24MOL   H376 9622   5.196   5.929   7.060 -1.5795  0.8647 -2.4763
   24MOL   H377 9623   5.237   5.815   6.927 -0.7572  0.4209 -0.2644
   24MOL   H378 9624   5.598   5.770   7.143 -0.4853 -0.3172  0.0180
   24MOL   H379 9625   5.801   5.929   7.091  0.4458  0.8763 -1.3981
   24MOL   H380 9626   5.955   6.063   6.903 -1.1254 -0.5908 -0.4325
   24MOL   H381 9627   5.829   6.094   6.780  0.2554 -0.0652 -0.4315
   24MOL   C382 9628   5.973   6.243   6.787 -0.0562 -0.5664  0.3664
   24MOL   C383 9629   5.906   6.383   6.769  0.3157 -0.8514  0.3371
   24MOL   C384 9630   5.820   6.408   6.663 -0.4103  0.3309  0.7105
   24MOL   C385 9631   5.763   6.540   6.644 -0.2702 -0.7516 -0.4359
   24MOL   C386 9632   5.792   6.644   6.739 -0.1325  0.0419  0.1974
   24MOL   O387 9633   5.739   6.775   6.731 -0.1106  0.7138  0.1003
   24MOL   C388 9634   5.627   6.798   6.652  0.0857 -0.3154 -0.2235
   24MOL   C389 9635   5.873   6.612   6.846  0.1433 -0.1781 -0.4926
   24MOL   C390 9636   5.921   6.477   6.866 -0.1708  0.6982  0.0066
   24MOL   C391 9637   6.020   6.197   6.654  0.3503  0.3850 -0.5465
   24MOL   H392 9638   6.058   6.250   6.855 -0.5380  0.6630  0.8570
   24MOL   H393 9639   5.789   6.327   6.599  0.2601  1.2962 -0.8873
   24MOL   H394 9640   5.690   6.555   6.565 -0.7147 -0.9781 -0.0738
   24MOL   H395 9641   5.651   6.795   6.546  0.8456 -0.5054 -0.0446
   24MOL   H396 9642   5.587   6.895   6.681 -1.4148 -1.3258  1.1866
   24MOL   H397 9643   5.552   6.723   6.679 -0.6813  0.8042  0.8329
   24MOL   H398 9644   5.899   6.687   6.919  0.2853 -0.4439 -0.2703
   24MOL   H399 9645   5.999   6.464   6.940 -0.6089  1.5917  0.6404
   24MOL   H400 9646   5.935   6.186   6.588 -2.4687  2.6716  2.5632
   24MOL   H401 9647   6.067   6.099   6.647 -0.8552 -0.1738 -0.8684
   24MOL   H402 9648   6.089   6.271   6.613  0.9668  0.8441  1.2496
   25MOL     C1 9649   1.980   6.719   6.442 -0.4089 -0.2392 -0.2884
   25MOL     C2 9650   1.857   6.670   6.367 -0.0194  0.4065  0.3909
   25MOL     C3 9651   1.862   6.601   6.245 -0.5894  0.1859 -0.0031
   25MOL     C4 9652   1.752   6.557   6.173 -0.0196  1.3195 -0.4945
   25MOL     C5 9653   1.622   6.594   6.216  0.7736 -0.1950  0.4986
   25MOL     O6 9654   1.500   6.554   6.159 -0.0004 -0.0884 -0.5420
   25MOL     C7 9655   1.506   6.456   6.058  0.7220 -0.3063  0.9709
   25MOL     C8 9656   1.618   6.670   6.331  0.2741  0.1738  0.6238
   25MOL     C9 9657   1.729   6.710   6.402  1.0817  0.0849 -0.1951
   25MOL    C10 9658   2.112   6.702   6.366  0.0280  0.4438 -0.1275
   25MOL    H11 9659   1.986   6.655   6.530 -1.2970  0.8842  0.6165
   25MOL    H12 9660   1.956   6.576   6.199 -0.2537 -2.6356  2.1217
   25MOL    H13 9661   1.759   6.501   6.081 -0.4380 -1.3581  1.0514
   25MOL    H14 9662   1.527   6.509   5.966  1.0218 -2.2432 -0.1208
   25MOL    H15 9663   1.582   6.377   6.056 -0.0567 -1.0668  0.8295
   25MOL    H16 9664   1.417   6.393   6.051  0.2325  0.5141 -0.3193
   25MOL    H17 9665   1.524   6.705   6.371  0.3690  1.1853  0.0041
   25MOL    H18 9666   1.718   6.758   6.498 -1.6668 -1.8927  0.5479
   25MOL    H19 9667   2.129   6.596   6.344  2.3578  1.4367 -3.5173
   25MOL    H20 9668   2.086   6.744   6.269 -1.6786  1.8824  0.9132
   25MOL    H21 9669   1.975   6.823   6.474  2.1917 -1.0900  3.2430
   25MOL    C22 9670   2.231   6.772   6.423  0.0194 -0.0740 -0.3351
   25MOL    C23 9671   2.265   6.732   6.572  0.2542 -0.1551 -0.5103
   25MOL    C24 9672   2.309   6.832   6.668  0.1697  0.3907 -0.5451
   25MOL    C25 9673   2.361   6.793   6.794 -0.3144 -0.1338  0.2981
   25MOL    C26 9674   2.356   6.661   6.829 -0.3076 -0.0593  0.0698
   25MOL    O27 9675   2.395   6.627   6.961  0.6776 -0.2332 -0.1452
   25MOL    C28 9676   2.390   6.491   6.996 -0.5008 -0.1060  0.6132
   25MOL    C29 9677   2.311   6.560   6.735  0.3565 -0.1561  0.1151
   25MOL    C30 9678   2.275   6.597   6.606 -0.3151  0.0500  0.0637
   25MOL    C31 9679   2.356   6.744   6.337  0.1674  0.4335  0.1047
   25MOL    H32 9680   2.225   6.881   6.421 -1.5909 -0.1734 -1.2442
   25MOL    H33 9681   2.312   6.936   6.641 -0.2929  0.5906  0.1394
   25MOL    H34 9682   2.392   6.873   6.859  1.5376 -0.7254  0.1838
   25MOL    H35 9683   2.289   6.452   7.014 -1.1259  0.8456 -0.7247
   25MOL    H36 9684   2.430   6.476   7.096  0.4502 -0.3971  0.1944
   25MOL    H37 9685   2.448   6.430   6.926 -2.0789 -1.1027  0.1413
   25MOL    H38 9686   2.293   6.457   6.762 -0.5116  0.7488  3.1484
   25MOL    H39 9687   2.236   6.528   6.533 -0.5176 -0.8494  1.0143
   25MOL    H40 9688   2.450   6.794   6.360  0.7059  1.1714 -3.4054
   25MOL    H41 9689   2.381   6.639   6.352  1.7420  0.5266 -1.6532
   25MOL    C42 9690   2.338   6.752   6.180  0.9322 -0.9016 -0.2166
   25MOL    C43 9691   2.444   6.671   6.106  0.6478  1.0192 -0.3662
   25MOL    C44 9692   2.583   6.710   6.101  0.0843 -0.3633 -0.5904
   25MOL    C45 9693   2.679   6.629   6.033  0.2140  0.6721  1.2952
   25MOL    C46 9694   2.632   6.511   5.965  0.1528  0.1512  0.4709
   25MOL    O47 9695   2.720   6.419   5.901  0.5036 -0.8903  0.1646
   25MOL    C48 9696   2.676   6.289   5.866  0.4964 -0.4314  0.0346
   25MOL    C49 9697   2.494   6.477   5.965 -0.3882 -0.1520  0.1319
   25MOL    C50 9698   2.403   6.557   6.033  0.0941  0.1428 -0.7832
   25MOL    C51 9699   2.328   6.904   6.135  0.1587  0.3395  0.0641
   25MOL    H52 9700   2.245   6.707   6.146 -0.3265  2.2652 -1.2198
   25MOL    H53 9701   2.602   6.808   6.143 -0.0734 -1.3412  1.8467
   25MOL    H54 9702   2.783   6.656   6.045  1.3786 -1.4144 -3.1724
   25MOL    H55 9703   2.627   6.246   5.953  0.4174  1.4556  0.9321
   25MOL    H56 9704   2.614   6.290   5.777 -1.7222  0.1848  1.5644
   25MOL    H57 9705   2.756   6.224   5.830  0.6619  0.8718 -2.0702
   25MOL    H58 9706   2.452   6.399   5.904  0.5498  0.5272 -1.3990
   25MOL    H59 9707   2.301   6.523   6.040  0.4843 -0.8737  0.3418
   25MOL    H60 9708   2.426   6.949   6.153 -0.7455  1.7787  1.5728
   25MOL    H61 9709   2.257   6.947   6.205 -0.1478 -0.5693  0.3220
   25MOL    C62 9710   2.302   6.923   5.983  0.4860  0.5586 -0.3277
   25MOL    C63 9711   2.307   7.063   5.940 -0.7508  0.2161  0.7828
   25MOL    C64 9712   2.396   7.107   5.843 -0.8296 -0.4069 -0.5139
   25MOL    C65 9713   2.393   7.236   5.795  0.0162 -0.2302  0.1463
   25MOL    C66 9714   2.295   7.324   5.835  0.2503 -0.2320  0.4989
   25MOL    O67 9715   2.285   7.449   5.783 -0.4857  0.4061  0.3757
   25MOL    C68 9716   2.365   7.478   5.667 -0.2083  0.2653  0.1582
   25MOL    C69 9717   2.202   7.282   5.928  0.2524  0.9082 -0.1117
   25MOL    C70 9718   2.209   7.155   5.983 -0.2143 -0.4961  0.0744
   25MOL    C71 9719   2.158   6.864   5.940  0.2061  0.5973  0.2048
   25MOL    H72 9720   2.370   6.862   5.923  0.5534  0.0307  0.2757
   25MOL    H73 9721   2.472   7.038   5.811  0.0478  0.6019 -0.6418
   25MOL    H74 9722   2.451   7.259   5.707  0.0004 -1.7033 -0.2590
   25MOL    H75 9723   2.470   7.454   5.678 -0.2101  0.8871  1.8608
   25MOL    H76 9724   2.359   7.586   5.653 -1.4564  0.3538  1.2069
   25MOL    H77 9725   2.330   7.444   5.570  1.1439  1.4066 -0.7473
   25MOL    H78 9726   2.116   7.342   5.952 -0.4432  0.9018 -2.4129
   25MOL    H79 9727   2.134   7.125   6.055 -0.9993 -1.9495 -1.3367
   25MOL    H80 9728   2.121   6.803   6.023  1.7805 -1.3595 -0.4991
   25MOL    H81 9729   2.082   6.939   5.919  0.3093  1.0149  1.3094
   25MOL    C82 9730   2.155   6.779   5.808  0.4586  0.8652  0.3068
   25MOL    C83 9731   2.023   6.709   5.790  0.4294 -0.7376  0.0915
   25MOL    C84 9732   2.013   6.576   5.757  0.0326  0.3671  0.0745
   25MOL    C85 9733   1.889   6.522   5.723 -0.4753  0.0703  0.3916
   25MOL    C86 9734   1.770   6.598   5.738  0.3184  0.1073  0.8423
   25MOL    O87 9735   1.650   6.547   5.715 -0.4227  0.0535 -0.5618
   25MOL    C88 9736   1.634   6.409   5.674  0.2403 -0.0173  0.7163
   25MOL    C89 9737   1.784   6.731   5.769 -0.0768  0.3678 -0.1393
   25MOL    C90 9738   1.907   6.781   5.790 -0.2912 -1.3378  0.4130
   25MOL    C91 9739   2.185   6.868   5.691 -0.4453 -0.1709  0.9639
   25MOL    H92 9740   2.234   6.705   5.816  0.8113  1.5719  4.5324
   25MOL    H93 9741   2.106   6.525   5.734 -0.2525 -0.8656  1.5254
   25MOL    H94 9742   1.888   6.415   5.705  1.9474  0.1214 -0.1791
   25MOL    H95 9743   1.630   6.345   5.762 -0.1864 -1.8359 -0.5999
   25MOL    H96 9744   1.703   6.372   5.598  1.1429  2.0262  0.5061
   25MOL    H97 9745   1.540   6.401   5.618 -0.1639  1.0004  1.2370
   25MOL    H98 9746   1.697   6.795   5.772 -1.1420 -1.1149  1.6144
   25MOL    H99 9747   1.910   6.888   5.808 -1.2457 -1.2867  0.2977
   25MOL   H100 9748   2.112   6.845   5.613 -0.2544 -0.1591  0.7798
   25MOL   H101 9749   2.164   6.974   5.704  2.1732  0.7966 -1.9043
   25MOL   C102 9750   2.333   6.839   5.633 -0.4252  0.0552 -0.0513
   25MOL   C103 9751   2.343   6.694   5.578  0.2972 -0.8561 -0.0735
   25MOL   C104 9752   2.246   6.634   5.495  0.2656 -0.9850 -0.0873
   25MOL   C105 9753   2.276   6.520   5.425 -0.5289 -0.1906  0.2002
   25MOL   C106 9754   2.389   6.443   5.461  0.4191  0.3437  1.2565
   25MOL   O107 9755   2.402   6.323   5.401 -0.0266  0.3550  0.1564
   25MOL   C108 9756   2.476   6.223   5.466 -0.5806 -0.2226  0.1203
   25MOL   C109 9757   2.471   6.495   5.562 -0.4285 -0.2720 -0.0629
   25MOL   C110 9758   2.456   6.618   5.627 -0.3525 -0.9467  0.1416
   25MOL   C111 9759   2.378   6.941   5.531  0.3718  0.2935  0.3233
   25MOL   H112 9760   2.408   6.856   5.710 -0.5184  1.3691 -0.2470
   25MOL   H113 9761   2.157   6.687   5.466  0.4576 -1.2838 -1.2529
   25MOL   H114 9762   2.201   6.485   5.355 -0.6548 -0.6085  0.5429
   25MOL   H115 9763   2.456   6.197   5.570 -1.3424 -0.3053 -0.0477
   25MOL   H116 9764   2.460   6.131   5.409 -3.6979  0.5621 -0.3491
   25MOL   H117 9765   2.584   6.235   5.457 -0.8146  0.7624 -1.7601
   25MOL   H118 9766   2.551   6.436   5.604  0.0932  1.2577  1.1780
   25MOL   H119 9767   2.523   6.654   5.704 -0.2686  1.8797 -1.2048
   25MOL   H120 9768   2.313   6.937   5.443  0.3614  3.4345  0.1102
   25MOL   H121 9769   2.354   7.039   5.574 -2.6815 -0.3774  0.2778
   25MOL   C122 9770   2.532   6.969   5.500 -0.2911 -0.4909  0.8873
   25MOL   C123 9771   2.566   7.118   5.483 -0.5396 -0.0033 -0.8679
   25MOL   C124 9772   2.664   7.175   5.562  0.4667  0.2080  0.6397
   25MOL   C125 9773   2.686   7.316   5.566 -0.6707  0.4365  0.2286
   25MOL   C126 9774   2.619   7.396   5.474  0.5392 -0.2315 -0.0098
   25MOL   O127 9775   2.646   7.535   5.471  0.6327  0.1462 -0.3915
   25MOL   C128 9776   2.589   7.620   5.369  0.5738 -0.5608  0.9391
   25MOL   C129 9777   2.519   7.331   5.388 -0.3109  0.3139  0.8017
   25MOL   C130 9778   2.487   7.196   5.392 -0.1937 -0.3501 -0.6036
   25MOL   C131 9779   2.583   6.881   5.379 -0.5332  0.2591 -0.3060
   25MOL   H132 9780   2.578   6.936   5.593 -0.5970 -0.2582  1.1232
   25MOL   H133 9781   2.721   7.125   5.639  0.3821  0.9873  1.2069
   25MOL   H134 9782   2.753   7.360   5.638  1.0531 -3.2161  0.9574
   25MOL   H135 9783   2.628   7.571   5.280  2.2185  0.4153  1.0943
   25MOL   H136 9784   2.480   7.629   5.371  0.5796 -0.1094 -0.3875
   25MOL   H137 9785   2.636   7.716   5.349  0.9121 -1.2037 -1.4366
   25MOL   H138 9786   2.461   7.392   5.321  1.2444  2.4448  1.3245
   25MOL   H139 9787   2.413   7.152   5.327 -0.6917 -0.3634 -0.0388
   25MOL   H140 9788   2.549   6.930   5.287  1.3458 -2.6135 -2.6381
   25MOL   H141 9789   2.544   6.781   5.400  1.5144 -0.5730 -0.4253
   25MOL   C142 9790   2.737   6.854   5.385 -0.3961 -0.4862  0.6338
   25MOL   C143 9791   2.777   6.713   5.368  0.6127 -0.0040  0.4198
   25MOL   C144 9792   2.798   6.664   5.240 -0.6321  0.2168 -0.6141
   25MOL   C145 9793   2.830   6.526   5.216 -0.4446 -0.4052 -0.3548
   25MOL   C146 9794   2.855   6.444   5.332  0.7524 -0.1391 -0.2705
   25MOL   O147 9795   2.896   6.312   5.321 -0.1967  0.3510 -0.1391
   25MOL   C148 9796   2.884   6.242   5.195 -0.0955 -0.0172  0.9551
   25MOL   C149 9797   2.829   6.493   5.453 -0.1553 -0.1008 -1.1030
   25MOL   C150 9798   2.785   6.621   5.473  0.2821 -0.0901  0.0990
   25MOL   C151 9799   2.810   6.958   5.294 -0.4346 -0.2118  0.3524
   25MOL   H152 9800   2.773   6.879   5.485  0.2725  0.0015  0.2784
   25MOL   H153 9801   2.794   6.724   5.150 -0.1282 -1.6076 -1.8801
   25MOL   H154 9802   2.858   6.493   5.117 -0.6388 -0.5245 -0.3689
   25MOL   H155 9803   2.779   6.243   5.165  0.2108 -0.0426 -0.1537
   25MOL   H156 9804   2.957   6.281   5.123 -1.1020  1.5481  0.7640
   25MOL   H157 9805   2.901   6.136   5.215 -2.4893 -0.3650  1.2127
   25MOL   H158 9806   2.844   6.429   5.539  0.2526  1.0359 -0.3034
   25MOL   H159 9807   2.768   6.656   5.573  2.1614 -0.1747  0.4563
   25MOL   H160 9808   2.772   7.056   5.321 -2.0332 -0.9873  0.9973
   25MOL   H161 9809   2.790   6.946   5.188  0.9204  1.5196 -0.1180
   25MOL   C162 9810   2.964   6.960   5.310 -0.1670  0.5008 -0.1845
   25MOL   C163 9811   3.009   6.980   5.458  0.1819  0.2946 -0.3293
   25MOL   C164 9812   2.993   7.100   5.526  0.0655  0.1060  0.1057
   25MOL   C165 9813   3.024   7.106   5.664 -0.8163  0.4102 -0.0705
   25MOL   C166 9814   3.075   6.996   5.737  0.8790  0.0821  0.0175
   25MOL   O167 9815   3.097   7.019   5.871  0.2187  0.5382 -0.1610
   25MOL   C168 9816   3.116   6.911   5.957 -0.3783 -0.9009 -0.3895
   25MOL   C169 9817   3.082   6.872   5.675  0.0351  0.0017 -0.0049
   25MOL   C170 9818   3.055   6.867   5.534  0.0806 -0.4508  0.3447
   25MOL   C171 9819   3.035   7.072   5.223 -0.9094  0.6794 -0.1064
   25MOL   H172 9820   3.008   6.864   5.284  0.7249  0.9136 -0.2484
   25MOL   H173 9821   2.943   7.186   5.484 -0.7676  0.0660  0.9837
   25MOL   H174 9822   3.006   7.199   5.716 -0.6917  1.0631 -1.1771
   25MOL   H175 9823   3.018   6.868   5.977 -0.8844  0.7693  0.8139
   25MOL   H176 9824   3.160   6.933   6.054  1.3547 -0.2293 -1.3088
   25MOL   H177 9825   3.186   6.835   5.922  1.5729 -0.2234  1.9485
   25MOL   H178 9826   3.113   6.781   5.722  3.2624  1.8495  1.5940
   25MOL   H179 9827   3.052   6.768   5.491  1.6673 -0.3898  0.0378
   25MOL   H180 9828   3.140   7.070   5.253 -1.3379 -0.2132  1.3997
   25MOL   H181 9829   2.999   7.172   5.246  0.1719  0.9848  0.3054
   25MOL   C182 9830   3.047   7.057   5.072  0.1938  0.0708  0.8779
   25MOL   C183 9831   3.082   6.917   5.036 -0.4269 -0.4508  0.5091
   25MOL   C184 9832   2.994   6.835   4.963  0.6475  0.9612 -0.5936
   25MOL   C185 9833   3.014   6.693   4.948 -0.2404 -0.6021  0.5209
   25MOL   C186 9834   3.128   6.634   5.009  0.3875 -0.4981 -0.1617
   25MOL   O187 9835   3.137   6.500   5.000 -0.1501  0.4268  0.4226
   25MOL   C188 9836   3.226   6.434   5.086 -0.3067  0.0139  0.3576
   25MOL   C189 9837   3.221   6.718   5.076 -0.2016 -0.5276  0.0146
   25MOL   C190 9838   3.203   6.856   5.087 -0.2303 -0.4521 -0.1688
   25MOL   C191 9839   3.148   7.161   5.006  0.0229 -0.1789  0.0748
   25MOL   H192 9840   2.950   7.078   5.025  0.1155 -2.0529  0.0381
   25MOL   H193 9841   2.897   6.867   4.927  0.8317 -0.9128 -2.9260
   25MOL   H194 9842   2.940   6.634   4.896 -1.3202  1.6758 -0.6178
   25MOL   H195 9843   3.230   6.482   5.184  1.2239  1.4385 -0.3916
   25MOL   H196 9844   3.326   6.428   5.042  0.3703 -0.1249  1.8479
   25MOL   H197 9845   3.190   6.332   5.100  1.7541 -0.6873  0.7086
   25MOL   H198 9846   3.310   6.673   5.117  0.9546  1.5393 -0.1374
   25MOL   H199 9847   3.274   6.913   5.145 -0.0390 -0.2628 -0.5882
   25MOL   H200 9848   3.134   7.261   5.046  2.1489  0.0486  0.3040
   25MOL   H201 9849   3.250   7.135   5.032 -0.6896 -0.7892  2.3461
   25MOL   C202 9850   3.120   7.177   4.856 -0.4167  0.0633 -0.1089
   25MOL   C203 9851   3.249   7.212   4.779 -0.4205  0.2247  0.2202
   25MOL   C204 9852   3.312   7.339   4.793  0.4718 -0.1307 -0.1962
   25MOL   C205 9853   3.422   7.384   4.713  0.5164 -0.3003  0.7487
   25MOL   C206 9854   3.463   7.298   4.608 -0.1976  0.2372 -0.0297
   25MOL   O207 9855   3.564   7.326   4.520  0.0229  0.0617  0.0890
   25MOL   C208 9856   3.647   7.446   4.527 -0.2941 -0.3912 -0.0871
   25MOL   C209 9857   3.403   7.174   4.591 -0.4556 -0.1345  0.3057
   25MOL   C210 9858   3.291   7.132   4.670  0.8978 -0.3609 -0.6457
   25MOL   C211 9859   3.013   7.287   4.826  0.8029  0.0033 -0.4987
   25MOL   H212 9860   3.094   7.077   4.820  1.4709 -0.0239 -1.2641
   25MOL   H213 9861   3.279   7.408   4.869  3.5431  1.0850  0.1324
   25MOL   H214 9862   3.463   7.483   4.715 -2.2271  0.9294 -0.8675
   25MOL   H215 9863   3.602   7.543   4.506 -1.0464 -1.1437 -2.0996
   25MOL   H216 9864   3.711   7.445   4.615 -1.4467 -0.8627  0.7616
   25MOL   H217 9865   3.721   7.434   4.448 -2.2637  0.9915 -2.2345
   25MOL   H218 9866   3.445   7.110   4.515  2.7336 -0.0886  1.9733
   25MOL   H219 9867   3.245   7.037   4.645  0.7230  0.1233 -2.2498
   25MOL   H220 9868   3.063   7.383   4.836 -0.0728  0.5846 -1.5632
   25MOL   H221 9869   2.932   7.286   4.899  0.0521 -1.8725 -1.3143
   25MOL   C222 9870   2.957   7.261   4.678 -0.1575  0.2325 -0.6022
   25MOL   C223 9871   2.901   7.120   4.654 -0.0634  0.0348  0.3709
   25MOL   C224 9872   2.795   7.080   4.739  0.2241 -0.2439 -0.6957
   25MOL   C225 9873   2.733   6.948   4.720 -0.0006  0.2510  0.2878
   25MOL   C226 9874   2.786   6.859   4.618  0.6093  0.6239 -0.0008
   25MOL   O227 9875   2.716   6.737   4.598 -0.0566  0.5118 -0.3915
   25MOL   C228 9876   2.767   6.658   4.490 -0.7362  0.1353  0.4646
   25MOL   C229 9877   2.901   6.900   4.540  0.3636 -0.6112  0.5403
   25MOL   C230 9878   2.954   7.034   4.554 -0.0002  0.2621 -0.0153
   25MOL   C231 9879   2.851   7.361   4.646 -1.2848 -0.3048 -0.3337
   25MOL   H232 9880   3.042   7.281   4.612  0.5652  0.3699  0.3579
   25MOL   H233 9881   2.751   7.126   4.826  1.1257 -0.7805  0.0581
   25MOL   H234 9882   2.641   6.929   4.773 -0.8528 -0.1150 -1.2711
   25MOL   H235 9883   2.710   6.566   4.476 -0.6838 -0.0994  1.6971
   25MOL   H236 9884   2.774   6.712   4.396  2.4505 -0.3610  0.3732
   25MOL   H237 9885   2.867   6.622   4.512 -0.2384  0.7327 -0.7774
   25MOL   H238 9886   2.954   6.841   4.467  2.0246  0.9748  0.4219
   25MOL   H239 9887   3.049   7.057   4.507  0.1117  0.1895  0.1731
   25MOL   H240 9888   2.813   7.321   4.552 -1.6782 -2.4445  0.7196
   25MOL   H241 9889   2.783   7.371   4.729 -0.1764  0.2054  0.5273
   25MOL   C242 9890   2.900   7.507   4.616  0.5673  0.0739 -0.4453
   25MOL   C243 9891   2.996   7.523   4.492 -0.1336  0.1527  0.0541
   25MOL   C244 9892   2.947   7.552   4.364 -0.1841 -0.2141  0.5681
   25MOL   C245 9893   3.036   7.557   4.257 -0.5033  0.1604 -0.0347
   25MOL   C246 9894   3.176   7.549   4.273 -0.2151  0.0346 -0.7061
   25MOL   O247 9895   3.253   7.558   4.158 -0.0288 -0.3940  0.6376
   25MOL   C248 9896   3.396   7.529   4.169  0.2230  0.4306  0.2044
   25MOL   C249 9897   3.228   7.533   4.405 -0.3156 -0.2722  0.3579
   25MOL   C250 9898   3.137   7.515   4.512 -0.2388 -0.2884  0.7016
   25MOL   C251 9899   2.778   7.606   4.620  0.1712 -0.3649  0.3005
   25MOL   H252 9900   2.964   7.522   4.703 -2.8784  0.6016  2.1013
   25MOL   H253 9901   2.844   7.570   4.334 -0.2090  0.2088  0.8948
   25MOL   H254 9902   2.990   7.575   4.161 -1.0610  0.6824  0.3312
   25MOL   H255 9903   3.412   7.427   4.203 -0.5958 -0.0653 -0.8619
   25MOL   H256 9904   3.449   7.544   4.075  0.0847 -0.1552  0.0311
   25MOL   H257 9905   3.440   7.598   4.241  0.3058  1.0640 -0.4459
   25MOL   H258 9906   3.331   7.547   4.432 -0.5444  1.2965  0.4916
   25MOL   H259 9907   3.173   7.503   4.613 -2.2230 -0.5322  1.4132
   25MOL   H260 9908   2.701   7.561   4.682 -2.3469  1.2478 -1.5640
   25MOL   H261 9909   2.733   7.616   4.521  0.4401 -0.1834  0.1963
   25MOL   C262 9910   2.817   7.747   4.683  0.5408 -0.2502  0.1806
   25MOL   C263 9911   2.877   7.730   4.824 -0.2123  0.7175  0.5941
   25MOL   C264 9912   3.005   7.786   4.862 -0.0524 -0.1461  0.1499
   25MOL   C265 9913   3.064   7.758   4.984  0.3145 -0.9367 -0.4171
   25MOL   C266 9914   2.988   7.694   5.085  0.5121  0.4294  0.2358
   25MOL   O267 9915   3.043   7.680   5.205  0.1737  0.2326 -0.8176
   25MOL   C268 9916   2.974   7.629   5.317 -0.0209  0.5385 -0.7345
   25MOL   C269 9917   2.861   7.640   5.055 -0.3746  0.5263 -0.4564
   25MOL   C270 9918   2.808   7.650   4.924  0.3958 -0.1400 -0.1869
   25MOL   C271 9919   2.688   7.836   4.692  0.1423 -0.5242  0.1901
   25MOL   H272 9920   2.897   7.788   4.621  0.4609  0.9246  0.8484
   25MOL   H273 9921   3.060   7.841   4.787  0.3435 -2.9274 -1.6771
   25MOL   H274 9922   3.168   7.783   4.999  0.3974 -0.8916 -1.0295
   25MOL   H275 9923   3.031   7.661   5.404  0.1718  1.2875 -1.1234
   25MOL   H276 9924   2.968   7.521   5.327 -0.3533  0.6330  0.1190
   25MOL   H277 9925   2.872   7.667   5.324 -0.0720  0.0979  0.9477
   25MOL   H278 9926   2.808   7.573   5.122 -0.7471 -0.9112 -2.1347
   25MOL   H279 9927   2.718   7.597   4.897  0.2359 -0.8605  1.7068
   25MOL   H280 9928   2.607   7.783   4.743 -0.1729 -0.4123 -0.1911
   25MOL   H281 9929   2.708   7.912   4.767 -0.3777 -0.0403 -0.1537
   25MOL   C282 9930   2.630   7.911   4.565 -0.7630 -0.0365  0.0356
   25MOL   C283 9931   2.727   7.923   4.450 -0.2194  0.3321  0.1954
   25MOL   C284 9932   2.702   7.856   4.327  0.0407  0.4025  0.0485
   25MOL   C285 9933   2.785   7.875   4.211  0.5541 -0.2602 -0.5538
   25MOL   C286 9934   2.900   7.951   4.224 -0.5054  0.0280 -0.0846
   25MOL   O287 9935   2.984   7.954   4.115  0.1584  0.1176 -0.1347
   25MOL   C288 9936   3.116   7.961   4.152 -0.2461  0.7129  0.3739
   25MOL   C289 9937   2.923   8.021   4.349 -0.2281  0.2463  0.1205
   25MOL   C290 9938   2.833   8.015   4.460 -0.1206 -0.1393 -0.6545
   25MOL   C291 9939   2.557   0.007   4.590 -0.2745  0.2255  0.0310
   25MOL   H292 9940   2.551   7.840   4.540  1.7667 -2.6953 -0.6198
   25MOL   H293 9941   2.622   7.783   4.323  1.0902 -0.7713  0.4229
   25MOL   H294 9942   2.788   7.810   4.125 -0.0520 -0.5799 -0.3382
   25MOL   H295 9943   3.180   7.924   4.072  2.1116  0.3219  2.3965
   25MOL   H296 9944   3.142   0.026   4.165  0.4709  1.1674 -4.1239
   25MOL   H297 9945   3.132   7.902   4.242 -2.7550 -2.5266 -1.2172
   25MOL   H298 9946   3.008   0.046   4.356 -0.7398  1.4930 -3.8082
   25MOL   H299 9947   2.844   0.018   4.559  0.4002  1.4428 -1.3977
   25MOL   H300 9948   2.632   0.078   4.625 -0.6445  0.1578  0.9804
   25MOL   H301 9949   2.509   0.038   4.498  0.2967  0.3269 -0.2336
   25MOL   C302 9950   2.454   8.034   4.694  0.5160  0.6341 -0.2661
   25MOL   C303 9951   2.417   0.134   4.738  0.6392 -0.1082 -0.4398
   25MOL   C304 9952   2.379   0.238   4.651 -0.5194  0.4369 -0.2906
   25MOL   C305 9953   2.344   0.367   4.701 -0.0807 -0.3684 -0.4170
   25MOL   C306 9954   2.337   0.391   4.843  0.2976  0.3565 -0.9643
   25MOL   O307 9955   2.299   0.516   4.898 -0.1091  0.6406  0.2713
   25MOL   C308 9956   2.221   0.598   4.820  0.6191 -0.2382 -0.0473
   25MOL   C309 9957   2.378   0.284   4.926  0.4974 -0.0329  0.1585
   25MOL   C310 9958   2.410   0.155   4.877 -0.0899  0.4492  0.4476
   25MOL   C311 9959   2.328   7.946   4.658  1.0705 -0.6030  0.4130
   25MOL   H312 9960   2.504   7.997   4.783  1.6421 -0.2618 -1.2443
   25MOL   H313 9961   2.389   0.218   4.545  0.5694  0.6554 -0.2330
   25MOL   H314 9962   2.318   0.445   4.630 -1.6899 -0.5677 -0.0797
   25MOL   H315 9963   2.180   0.680   4.878 -0.0431  0.4174 -1.4156
   25MOL   H316 9964   2.138   0.541   4.778  0.2638  2.0179 -2.5309
   25MOL   H317 9965   2.282   0.639   4.740 -1.6491  2.8981 -0.2223
   25MOL   H318 9966   2.371   0.305   5.032 -2.2616  1.2998 -0.2663
   25MOL   H319 9967   2.443   0.081   4.948 -0.8182 -1.7468 -1.4381
   25MOL   H320 9968   2.353   7.858   4.600 -0.7409 -1.0181  0.2235
   25MOL   H321 9969   2.260   8.003   4.595  0.5890 -1.3929  0.2172
   25MOL   C322 9970   2.252   7.909   4.786  0.1288  0.7671 -0.1239
   25MOL   C323 9971   2.324   7.789   4.847  0.7753 -0.2371 -0.4116
   25MOL   C324 9972   2.308   7.658   4.795 -0.2618 -0.4585  0.0966
   25MOL   C325 9973   2.383   7.560   4.857 -0.1410 -0.3083  0.0842
   25MOL   C326 9974   2.458   7.578   4.971  0.9500 -1.2892 -0.4839
   25MOL   O327 9975   2.530   7.480   5.037 -0.3329  0.1740 -0.0231
   25MOL   C328 9976   2.559   7.356   4.978 -0.4676 -0.2980  0.0222
   25MOL   C329 9977   2.463   7.709   5.032 -0.2290 -0.3584  0.6305
   25MOL   C330 9978   2.399   7.811   4.961 -0.0234 -0.1394 -0.4612
   25MOL   C331 9979   2.106   7.881   4.767 -0.0453 -0.2666  0.2294
   25MOL   H332 9980   2.254   7.995   4.852  2.8348  1.0151 -0.4691
   25MOL   H333 9981   2.261   7.640   4.699 -0.4143 -0.5411  0.1857
   25MOL   H334 9982   2.389   7.464   4.808 -2.9739 -0.6260  0.2428
   25MOL   H335 9983   2.626   7.369   4.893  2.0012 -2.2750  1.5972
   25MOL   H336 9984   2.470   7.305   4.939 -0.0985 -1.0349  0.1290
   25MOL   H337 9985   2.607   7.288   5.049 -2.5809 -0.1268  1.6886
   25MOL   H338 9986   2.529   7.711   5.117  1.9990  0.8247 -1.0648
   25MOL   H339 9987   2.399   7.909   5.008 -0.9844 -0.1895 -0.3451
   25MOL   H340 9988   2.103   7.805   4.689  0.6330 -0.1421  0.0730
   25MOL   H341 9989   2.076   7.830   4.858  1.6213 -1.2994  0.2220
   25MOL   C342 9990   2.020   8.001   4.730 -0.8046 -0.2853  1.0539
   25MOL   C343 9991   1.979   0.042   4.850  0.1099  0.2199  0.2866
   25MOL   C344 9992   1.930   8.019   4.966  0.0027  0.1898  0.8648
   25MOL   C345 9993   1.882   0.058   5.073  0.4902 -0.2027 -0.3110
   25MOL   C346 9994   1.888   0.203   5.063  0.6003 -0.2608 -0.1837
   25MOL   O347 9995   1.831   0.289   5.154  0.9672 -0.3118  0.0362
   25MOL   C348 9996   1.778   0.235   5.275 -0.1785  0.7389 -0.8330
   25MOL   C349 9997   1.944   0.261   4.952  0.4693  0.3418 -0.5472
   25MOL   C350 9998   1.979   0.178   4.844 -0.2309 -0.1293 -0.3181
   25MOL   C351 9999   1.901   7.950   4.656 -0.7475 -0.3244  0.2494
   25MOL   H35210000   2.074   0.027   4.663 -0.7256 -0.0179  1.3750
   25MOL   H35310001   1.920   7.912   4.974  1.6400 -0.0772 -0.4801
   25MOL   H35410002   1.834   0.005   5.154 -1.5182  0.9982 -0.6764
   25MOL   H35510003   1.716   0.305   5.331  0.6316  1.1715 -0.4758
   25MOL   H35610004   1.711   0.151   5.259 -0.7041  0.6954  1.3437
   25MOL   H35710005   1.866   0.203   5.332  0.5263  0.0961 -2.2697
   25MOL   H35810006   1.958   0.368   4.948 -1.1216  0.5456 -0.7665
   25MOL   H35910007   2.011   0.234   4.757  0.1394 -0.3364 -0.3168
   25MOL   H36010008   1.889   7.845   4.680 -2.2176 -0.2709 -0.2118
   25MOL   H36110009   1.813   8.006   4.688 -1.3712  0.1094 -2.0984
   25MOL   C36210010   1.905   7.970   4.495 -0.3427  0.1757  0.3181
   25MOL   C36310011   1.928   0.081   4.450 -0.1959 -0.1968  0.4925
   25MOL   C36410012   1.870   0.192   4.519 -0.5251 -1.8860  0.1748
   25MOL   C36510013   1.892   0.326   4.491 -0.3887  0.0804 -0.1097
   25MOL   C36610014   1.981   0.360   4.387 -0.2320  0.0741 -0.6099
   25MOL   O36710015   2.018   0.490   4.351  0.1989  0.1727  0.2179
   25MOL   C36810016   2.055   0.576   4.454 -0.0258  0.4539 -0.2333
   25MOL   C36910017   2.032   0.251   4.305  0.3495 -0.1106  0.2156
   25MOL   C37010018   2.015   0.113   4.337 -0.1450 -0.9310 -1.3686
   25MOL   C37110019   1.781   7.919   4.428  0.1861 -1.0547 -0.1225
   25MOL   H37210020   1.998   7.921   4.467  0.3139  1.5083  0.1428
   25MOL   H37310021   1.808   0.165   4.604 -0.8061 -1.0229  0.2476
   25MOL   H37410022   1.835   0.403   4.540 -2.8201 -1.0914 -0.9980
   25MOL   H37510023   2.153   0.558   4.498 -0.6859 -0.7793  0.7838
   25MOL   H37610024   2.054   0.677   4.413 -1.0067  0.8553  0.7561
   25MOL   H37710025   1.975   0.582   4.528 -1.3533 -0.1645 -1.5781
   25MOL   H37810026   2.085   0.274   4.214 -1.8164  0.1281 -1.0329
   25MOL   H37910027   2.053   0.035   4.273  0.0828 -2.3647  0.4498
   25MOL   H38010028   1.689   7.962   4.467 -0.2146 -1.0750 -1.0257
   25MOL   H38110029   1.782   7.943   4.322  1.6771 -1.3815 -0.1939
   25MOL   C38210030   1.759   7.773   4.442  0.5290  0.2403 -0.3249
   25MOL   C38310031   1.879   7.697   4.386 -0.8004 -0.0157  0.1872
   25MOL   C38410032   1.965   7.621   4.468  0.4790 -0.0812  0.0806
   25MOL   C38510033   2.078   7.568   4.416  0.0864 -0.2471 -0.7794
   25MOL   C38610034   2.107   7.573   4.277  0.1323  0.0894 -0.2761
   25MOL   O38710035   2.224   7.519   4.215 -1.0705 -0.8128 -0.3641
   25MOL   C38810036   2.318   7.463   4.306  0.0765 -0.8910  0.4530
   25MOL   C38910037   2.021   7.642   4.192 -0.5909  0.0582 -0.1685
   25MOL   C39010038   1.910   7.713   4.245 -0.0664 -0.0241 -0.3485
   25MOL   C39110039   1.637   7.721   4.372 -0.1363 -0.1139 -0.5135
   25MOL   H39210040   1.756   7.750   4.549  2.3535 -1.6544 -0.6488
   25MOL   H39310041   1.951   7.600   4.573  2.0537 -0.7715  0.1726
   25MOL   H39410042   2.154   7.516   4.473  2.0423  1.1167 -2.0716
   25MOL   H39510043   2.280   7.372   4.351 -1.4236 -0.6667 -0.3178
   25MOL   H39610044   2.350   7.543   4.374 -0.1019 -0.4394  0.0117
   25MOL   H39710045   2.409   7.440   4.250 -0.4554  1.5529 -1.5072
   25MOL   H39810046   2.055   7.644   4.089  0.3272 -2.4656  0.0606
   25MOL   H39910047   1.858   7.788   4.187 -2.2609 -1.7260 -0.6334
   25MOL   H40010048   1.626   7.775   4.278  3.6993  0.6120 -0.6305
   25MOL   H40110049   1.550   7.751   4.430  1.7503  2.1809  1.2710
   25MOL   H40210050   1.629   7.613   4.363  0.4302 -0.4815  2.6792
   26MOL     C110051   3.139   1.728   6.159 -0.2497  0.0456 -0.8394
   26MOL     C210052   3.042   1.614   6.191  0.0342 -0.4528  0.0391
   26MOL     C310053   3.028   1.568   6.323 -0.4812  0.0763  0.2280
   26MOL     C410054   2.927   1.476   6.347 -0.3510  0.3062  0.3656
   26MOL     C510055   2.856   1.411   6.242  0.4084  0.1088  0.5488
   26MOL     O610056   2.754   1.326   6.280 -0.2336  0.1412  0.7261
   26MOL     C710057   2.681   1.262   6.177 -0.6628  0.5844 -0.0375
   26MOL     C810058   2.880   1.455   6.113 -0.2009 -0.5502  0.2172
   26MOL     C910059   2.973   1.561   6.081 -0.2611  0.2027 -0.7899
   26MOL    C1010060   3.284   1.673   6.164 -0.3272  0.1954 -0.1665
   26MOL    H1110061   3.131   1.817   6.221  2.6377  0.5116 -1.0618
   26MOL    H1210062   3.085   1.600   6.410 -2.8046 -0.8630  2.1435
   26MOL    H1310063   2.911   1.448   6.450  0.4414  1.5107  0.8306
   26MOL    H1410064   2.630   1.174   6.215  0.0253 -0.8937 -2.4488
   26MOL    H1510065   2.605   1.335   6.149 -1.8813 -1.6632 -2.8544
   26MOL    H1610066   2.750   1.232   6.098  0.3019  0.5845  0.7927
   26MOL    H1710067   2.819   1.426   6.028  0.2555  1.4443 -0.8276
   26MOL    H1810068   2.991   1.599   5.981 -0.2784  2.3297 -0.0078
   26MOL    H1910069   3.316   1.658   6.267  0.9926  1.4719 -0.3715
   26MOL    H2010070   3.284   1.576   6.114  0.3101  0.3494 -0.4762
   26MOL    H2110071   3.120   1.773   6.061 -1.4623 -0.6223 -0.9335
   26MOL    C2210072   3.391   1.749   6.089 -0.2489 -0.3701 -0.7615
   26MOL    C2310073   3.386   1.899   6.121  0.1304  0.3558 -0.4443
   26MOL    C2410074   3.404   1.940   6.254 -0.1017 -0.7660 -0.3330
   26MOL    C2510075   3.402   2.077   6.288 -0.0387  0.3383 -0.1242
   26MOL    C2610076   3.371   2.170   6.187  0.0435  0.3518 -0.2154
   26MOL    O2710077   3.344   2.305   6.196 -0.5998  0.8864 -0.3974
   26MOL    C2810078   3.369   2.375   6.315 -0.7988  0.0666 -0.2657
   26MOL    C2910079   3.364   2.125   6.053 -1.2414  0.1279 -0.3015
   26MOL    C3010080   3.356   1.994   6.015 -0.7996 -0.4727 -0.5355
   26MOL    C3110081   3.539   1.692   6.103  0.1893  0.2942  0.3087
   26MOL    H3210082   3.372   1.736   5.982  0.4612 -0.7472 -0.8448
   26MOL    H3310083   3.410   1.864   6.330 -0.7935  0.5271  1.0438
   26MOL    H3410084   3.411   2.115   6.388  1.5256 -1.3483  0.4084
   26MOL    H3510085   3.362   2.313   6.404 -0.8041  1.6558  0.8614
   26MOL    H3610086   3.302   2.461   6.312 -0.9879 -0.1224 -3.7410
   26MOL    H3710087   3.468   2.420   6.320 -0.5801 -0.3916 -0.4475
   26MOL    H3810088   3.345   2.200   5.977  1.9875  0.5803 -0.7350
   26MOL    H3910089   3.327   1.967   5.915 -0.0478 -1.6839 -0.4439
   26MOL    H4010090   3.572   1.685   6.206  0.8712  1.5018  0.1705
   26MOL    H4110091   3.531   1.590   6.063 -0.7204  1.0680 -1.5642
   26MOL    C4210092   3.649   1.774   6.033  0.1117  0.5137  0.4920
   26MOL    C4310093   3.634   1.773   5.878 -0.9916 -0.1615 -0.2465
   26MOL    C4410094   3.647   1.651   5.815  0.1223 -0.6026 -0.7538
   26MOL    C4510095   3.637   1.632   5.675  0.3723 -0.1368  0.2458
   26MOL    C4610096   3.618   1.754   5.598 -0.3783 -0.1977 -0.3434
   26MOL    O4710097   3.611   1.748   5.461  0.8517  0.2072 -0.1264
   26MOL    C4810098   3.543   1.631   5.415 -0.1051 -0.2195 -0.0867
   26MOL    C4910099   3.595   1.879   5.662  0.0386  0.5804  1.0605
   26MOL    C5010100   3.601   1.884   5.800  0.1406 -0.2188  0.1335
   26MOL    C5110101   3.797   1.741   6.065 -0.1416 -0.5134 -0.0150
   26MOL    H5210102   3.641   1.879   6.061  2.2279  0.3805  1.7766
   26MOL    H5310103   3.654   1.561   5.875 -0.9364 -1.2488 -1.5738
   26MOL    H5410104   3.653   1.533   5.634  1.1885  0.4042 -0.7765
   26MOL    H5510105   3.464   1.609   5.487  0.6265 -1.5457  0.3399
   26MOL    H5610106   3.501   1.652   5.317 -1.5416 -1.3015  0.2793
   26MOL    H5710107   3.601   1.538   5.414  0.2318  0.0022 -0.9677
   26MOL    H5810108   3.580   1.971   5.607 -1.8217 -0.9077 -1.0044
   26MOL    H5910109   3.582   1.983   5.839  0.5158  0.9091 -2.4334
   26MOL    H6010110   3.864   1.815   6.020  1.7039 -0.5778  2.5522
   26MOL    H6110111   3.817   1.644   6.021  0.3174 -0.0187 -0.9106
   26MOL    C6210112   3.834   1.740   6.212 -0.4785 -0.3610 -0.0025
   26MOL    C6310113   3.808   1.875   6.276  0.1658  0.0781 -0.4815
   26MOL    C6410114   3.746   1.878   6.398  0.6567 -0.0411 -0.4316
   26MOL    C6510115   3.704   1.999   6.457  0.1519 -0.5030  0.4721
   26MOL    C6610116   3.735   2.120   6.395 -0.1677 -0.0206 -0.1087
   26MOL    O6710117   3.688   2.232   6.465 -0.3974  0.0182  0.6450
   26MOL    C6810118   3.715   2.364   6.409 -0.2221 -0.6337 -0.1788
   26MOL    C6910119   3.801   2.118   6.273  1.0042 -0.5763 -0.3006
   26MOL    C7010120   3.836   1.995   6.209 -0.4921  0.1696  0.1706
   26MOL    C7110121   3.988   1.703   6.215 -0.4700  0.3753 -0.8553
   26MOL    H7210122   3.778   1.668   6.271 -0.3257 -0.3224  0.1922
   26MOL    H7310123   3.708   1.785   6.437 -1.3763  0.6924 -0.6461
   26MOL    H7410124   3.659   1.988   6.555  1.6537 -1.9306  1.0250
   26MOL    H7510125   3.672   2.441   6.473 -2.5255 -2.3518  0.3926
   26MOL    H7610126   3.681   2.377   6.306  0.7186 -0.3031 -0.4602
   26MOL    H7710127   3.820   2.386   6.388  0.8237 -3.3780  1.9269
   26MOL    H7810128   3.819   2.215   6.230 -2.4347  0.8880  1.3960
   26MOL    H7910129   3.881   1.998   6.111 -0.5167  0.4546  0.1697
   26MOL    H8010130   4.037   1.774   6.148 -1.1256  1.1176 -0.5612
   26MOL    H8110131   4.032   1.746   6.305 -0.1621  0.4907 -1.0606
   26MOL    C8210132   4.030   1.560   6.187 -0.2242  0.7239 -0.0527
   26MOL    C8310133   4.179   1.564   6.173 -0.0052  0.1564 -0.1879
   26MOL    C8410134   4.260   1.570   6.281  0.8073 -0.4373 -0.3284
   26MOL    C8510135   4.395   1.586   6.261  0.3754  0.4410  0.2693
   26MOL    C8610136   4.449   1.583   6.127  0.2102 -0.4576 -0.1132
   26MOL    O8710137   4.578   1.593   6.088  0.4105  0.2962 -0.1995
   26MOL    C8810138   4.673   1.634   6.182 -0.2899  0.7727  0.2104
   26MOL    C8910139   4.364   1.558   6.017 -0.3306  0.6171  0.1666
   26MOL    C9010140   4.228   1.551   6.043  0.2110 -0.0955 -0.2805
   26MOL    C9110141   3.991   1.455   6.290 -0.1932 -0.2858  0.6033
   26MOL    H9210142   3.988   1.541   6.088  0.3442  1.9495 -0.5378
   26MOL    H9310143   4.226   1.577   6.384 -0.7004  1.6105 -0.9363
   26MOL    H9410144   4.466   1.589   6.342 -0.0414 -1.2137  0.6947
   26MOL    H9510145   4.668   1.737   6.220  1.4273  0.6738  0.7508
   26MOL    H9610146   4.774   1.631   6.141  0.3985 -0.4131  1.9171
   26MOL    H9710147   4.672   1.563   6.265 -2.7558  0.3615 -0.1416
   26MOL    H9810148   4.405   1.554   5.916 -2.5781 -1.2057 -0.7131
   26MOL    H9910149   4.158   1.548   5.960  1.7198 -2.4754 -1.5460
   26MOL   H10010150   4.053   1.367   6.272  0.8490  0.0336  2.4487
   26MOL   H10110151   4.016   1.493   6.389  0.6387  1.5585 -0.3183
   26MOL   C10210152   3.847   1.387   6.296  0.0528 -0.4768  0.0843
   26MOL   C10310153   3.804   1.339   6.160 -0.3147  0.2893 -0.2306
   26MOL   C10410154   3.669   1.355   6.124 -0.5002 -0.4298 -1.3780
   26MOL   C10510155   3.628   1.313   5.993 -0.1797  0.0687 -0.1543
   26MOL   C10610156   3.722   1.264   5.902 -0.5591  0.6247  0.5952
   26MOL   O10710157   3.676   1.221   5.781  0.2081  0.2946  0.1600
   26MOL   C10810158   3.762   1.210   5.666  0.2976  0.1825  0.1054
   26MOL   C10910159   3.863   1.251   5.938  0.8945 -0.4424 -0.3884
   26MOL   C11010160   3.898   1.281   6.068 -0.4207 -0.2895 -0.1712
   26MOL   C11110161   3.848   1.283   6.410 -0.4701  0.0495 -0.3030
   26MOL   H11210162   3.780   1.463   6.334  0.1524  0.0724 -0.8273
   26MOL   H11310163   3.601   1.409   6.188  1.2484 -0.9910  1.0270
   26MOL   H11410164   3.529   1.327   5.953  0.2613  0.1248 -1.2596
   26MOL   H11510165   3.826   1.122   5.667 -0.7238 -0.6139 -1.7173
   26MOL   H11610166   3.694   1.209   5.581 -2.4061  1.1638  2.1603
   26MOL   H11710167   3.819   1.302   5.660 -1.3734  1.2220 -0.2742
   26MOL   H11810168   3.936   1.226   5.863  0.1149  0.6719 -1.5470
   26MOL   H11910169   4.004   1.275   6.089 -0.7595  0.2260  1.8415
   26MOL   H12010170   3.794   1.195   6.375 -1.3261 -0.0685  1.2811
   26MOL   H12110171   3.951   1.248   6.419 -0.0047  1.2160 -0.8707
   26MOL   C12210172   3.785   1.326   6.539  0.5575 -0.4357  0.1242
   26MOL   C12310173   3.859   1.448   6.591  0.2611 -0.0477  0.3373
   26MOL   C12410174   3.998   1.440   6.616  0.5786 -0.0593  0.3282
   26MOL   C12510175   4.068   1.559   6.653  0.0312  0.5574 -0.1244
   26MOL   C12610176   3.997   1.679   6.654 -0.0161 -1.0922  0.1608
   26MOL   O12710177   4.074   1.793   6.683 -0.0338  0.3709 -0.3162
   26MOL   C12810178   4.015   1.912   6.638 -0.1405 -0.7218 -0.1018
   26MOL   C12910179   3.858   1.685   6.629 -0.0284 -0.4855  0.0626
   26MOL   C13010180   3.785   1.570   6.602 -0.1287 -0.3189  0.0520
   26MOL   C13110181   3.799   1.207   6.636  0.3649 -0.6785  0.3147
   26MOL   H13210182   3.681   1.353   6.518  0.6763  1.5949  2.0094
   26MOL   H13310183   4.051   1.348   6.599 -2.4990 -2.1275  1.5739
   26MOL   H13410184   4.176   1.553   6.653  0.0117  0.1024 -1.6540
   26MOL   H13510185   3.939   1.938   6.711  0.4894 -2.2345  1.1364
   26MOL   H13610186   4.085   1.996   6.637 -0.3197 -0.5022  2.2819
   26MOL   H13710187   3.972   1.891   6.540 -0.5810  0.5448 -0.1809
   26MOL   H13810188   3.804   1.778   6.640 -0.2053 -0.4535 -1.0225
   26MOL   H13910189   3.678   1.573   6.589 -0.0626 -0.6792 -0.6176
   26MOL   H14010190   3.906   1.195   6.650  0.3668 -1.2534 -0.1553
   26MOL   H14110191   3.750   1.120   6.591 -3.1624  1.2277  0.2421
   26MOL   C14210192   3.741   1.236   6.778  0.5801  0.4000 -0.2375
   26MOL   C14310193   3.592   1.272   6.767 -0.9684  0.4653 -0.5634
   26MOL   C14410194   3.544   1.389   6.826  0.1837 -1.3207  0.0092
   26MOL   C14510195   3.405   1.430   6.807  0.3348  0.2149 -0.1722
   26MOL   C14610196   3.319   1.354   6.728  0.0786  0.0543 -0.4206
   26MOL   O14710197   3.187   1.388   6.715  0.6036 -0.1937  0.1249
   26MOL   C14810198   3.088   1.311   6.772 -0.1072  0.3281 -0.8609
   26MOL   C14910199   3.364   1.234   6.683 -0.9518  0.3923 -0.3285
   26MOL   C15010200   3.502   1.189   6.698  0.1752  0.5279 -0.3728
   26MOL   C15110201   3.771   1.124   6.880  0.1238  0.5180  0.4440
   26MOL   H15210202   3.792   1.325   6.814  1.1549 -0.7275  1.7534
   26MOL   H15310203   3.609   1.450   6.888  3.1381 -1.5387 -2.7366
   26MOL   H15410204   3.366   1.518   6.856  0.5118  0.6638 -0.8365
   26MOL   H15510205   3.092   1.208   6.740  1.9007  0.0616  0.1624
   26MOL   H15610206   3.101   1.302   6.880 -0.8728  0.2110 -0.7748
   26MOL   H15710207   2.989   1.353   6.753 -0.3342  0.1312 -0.1241
   26MOL   H15810208   3.291   1.169   6.637 -1.3729  0.4644  0.2280
   26MOL   H15910209   3.534   1.096   6.653  0.0974  0.4367 -0.2383
   26MOL   H16010210   3.877   1.103   6.865  0.4113  1.3944  1.2299
   26MOL   H16110211   3.712   1.037   6.850  1.2949 -0.3505  0.5988
   26MOL   C16210212   3.743   1.145   7.028  0.6866 -0.1382  0.2714
   26MOL   C16310213   3.789   1.286   7.067  0.5557 -0.3408 -0.1201
   26MOL   C16410214   3.700   1.369   7.144  0.2406  0.6798 -0.1155
   26MOL   C16510215   3.730   1.499   7.182  0.2673  0.0430  0.2246
   26MOL   C16610216   3.848   1.555   7.134 -0.2548  0.5347  0.3232
   26MOL   O16710217   3.881   1.684   7.159 -0.1588 -0.1664  0.4911
   26MOL   C16810218   3.800   1.753   7.251  0.0510 -0.8399  0.8831
   26MOL   C16910219   3.939   1.476   7.056 -0.4824  0.3169 -0.0606
   26MOL   C17010220   3.910   1.343   7.026 -0.1380 -0.3224  0.2723
   26MOL   C17110221   3.826   1.043   7.112  0.6875  0.5217 -0.1362
   26MOL   H17210222   3.635   1.134   7.036  0.7889 -0.0040  1.8801
   26MOL   H17310223   3.604   1.331   7.177 -1.0668  1.1607 -3.2121
   26MOL   H17410224   3.651   1.549   7.236 -0.2761 -0.1636 -0.3769
   26MOL   H17510225   3.804   1.694   7.342  1.5066  0.0360  1.3924
   26MOL   H17610226   3.706   1.778   7.201 -1.0795 -0.1218  3.3056
   26MOL   H17710227   3.848   1.848   7.271 -0.2874 -0.2762 -0.8515
   26MOL   H17810228   4.033   1.514   7.019  1.4244 -1.8726  2.3486
   26MOL   H17910229   3.978   1.289   6.961 -0.9559  2.7136 -3.2649
   26MOL   H18010230   3.820   1.073   7.216 -0.4325  1.1901 -0.3791
   26MOL   H18110231   3.930   1.039   7.081  0.4657 -0.2615 -0.8007
   26MOL   C18210232   3.783   0.895   7.096 -0.0732  0.6220  0.0714
   26MOL   C18310233   3.632   0.860   7.114 -0.7350 -0.4267 -0.6820
   26MOL   C18410234   3.565   0.792   7.014 -0.5323  0.0282 -0.3562
   26MOL   C18510235   3.428   0.761   7.030  0.0754 -0.4454 -0.6433
   26MOL   C18610236   3.356   0.804   7.142 -0.5068  0.5303  0.1298
   26MOL   O18710237   3.229   0.766   7.167 -0.5805 -0.1620  0.6733
   26MOL   C18810238   3.163   0.685   7.074  0.1848  0.0498  0.0056
   26MOL   C18910239   3.417   0.893   7.234 -0.5691  0.0149  0.4221
   26MOL   C19010240   3.560   0.910   7.226  0.3298 -0.4837  0.6515
   26MOL   C19110241   3.880   0.810   7.175  0.9038  0.0527  1.0995
   26MOL   H19210242   3.808   0.874   6.992  0.7299 -1.4497  0.6589
   26MOL   H19310243   3.615   0.752   6.927 -1.2950 -0.7546 -0.4458
   26MOL   H19410244   3.389   0.700   6.950  0.0134  1.5136 -2.1577
   26MOL   H19510245   3.131   0.714   6.973  0.7626 -2.9033 -1.0758
   26MOL   H19610246   3.073   0.651   7.125  0.2405 -0.1406 -0.0227
   26MOL   H19710247   3.216   0.591   7.063 -1.6458 -1.1571  1.1744
   26MOL   H19810248   3.375   0.920   7.330  0.3172 -0.1879  0.8711
   26MOL   H19910249   3.611   0.962   7.305 -2.6018  1.1801  1.5399
   26MOL   H20010250   3.982   0.847   7.164  0.3980  0.9710 -0.6307
   26MOL   H20110251   3.844   0.813   7.278 -1.1837  2.3756  0.3714
   26MOL   C20210252   3.892   0.666   7.115  0.3602  0.3703  0.1634
   26MOL   C20310253   3.911   0.565   7.231 -0.2606 -0.4227  0.1180
   26MOL   C20410254   3.829   0.449   7.234 -1.4537 -0.7838 -0.3464
   26MOL   C20510255   3.853   0.346   7.334  0.2353  0.2498 -0.5097
   26MOL   C20610256   3.954   0.361   7.427 -0.4799 -0.3947  0.6349
   26MOL   O20710257   3.978   0.280   7.535  0.4735 -0.0500  1.1814
   26MOL   C20810258   3.932   0.148   7.536 -0.3884 -0.0290  0.1863
   26MOL   C20910259   4.042   0.471   7.414 -0.0189 -0.1638 -0.6454
   26MOL   C21010260   4.015   0.576   7.326 -0.0259  0.0400  0.5267
   26MOL   C21110261   4.010   0.653   7.016  0.2436 -0.7399 -0.1608
   26MOL   H21210262   3.799   0.650   7.061  0.0610  1.9331  0.1898
   26MOL   H21310263   3.761   0.451   7.150 -0.0685  2.0216 -1.4479
   26MOL   H21410264   3.790   0.259   7.329 -1.4708  1.5046 -1.3887
   26MOL   H21510265   3.840   0.118   7.484 -1.1559  2.2087  0.2284
   26MOL   H21610266   4.016   0.088   7.502 -1.4040 -0.6394 -1.3141
   26MOL   H21710267   3.935   0.112   7.638  0.3505  0.6715  0.4106
   26MOL   H21810268   4.123   0.477   7.484  1.2568  0.6729 -2.1646
   26MOL   H21910269   4.079   0.663   7.324 -1.4335  1.0975 -0.0706
   26MOL   H22010270   4.103   0.634   7.069 -0.8338 -0.1398  1.9807
   26MOL   H22110271   4.039   0.749   6.972 -0.6648 -0.6838 -0.6470
   26MOL   C22210272   3.991   0.570   6.890 -0.4386  0.3312 -0.1383
   26MOL   C22310273   3.890   0.635   6.792  0.0484  0.2992  0.1846
   26MOL   C22410274   3.760   0.580   6.791  0.1831 -0.6488 -0.0162
   26MOL   C22510275   3.661   0.642   6.716  0.4460 -0.1375 -0.2957
   26MOL   C22610276   3.686   0.753   6.635  0.2765 -0.3115 -0.3901
   26MOL   O22710277   3.592   0.812   6.551  0.4182 -0.2471  0.1804
   26MOL   C22810278   3.466   0.752   6.531  0.4113  0.0334 -0.1884
   26MOL   C22910279   3.815   0.806   6.638  0.5304  0.0404  0.2226
   26MOL   C23010280   3.918   0.752   6.720  0.1312  0.2016 -0.4112
   26MOL   C23110281   4.123   0.544   6.819  0.0294  0.8314 -0.8566
   26MOL   H23210282   3.946   0.481   6.935 -0.3197 -0.0453 -0.7593
   26MOL   H23310283   3.730   0.484   6.830  0.7037 -1.1717 -0.8884
   26MOL   H23410284   3.560   0.602   6.726  0.2077  0.0043 -2.1132
   26MOL   H23510285   3.474   0.662   6.471  2.0579  0.4045 -0.5468
   26MOL   H23610286   3.426   0.716   6.625  1.1213  0.1434  0.1585
   26MOL   H23710287   3.395   0.822   6.487  0.3894  1.7353  2.4331
   26MOL   H23810288   3.835   0.891   6.574  0.2131  0.2354  0.3835
   26MOL   H23910289   4.010   0.807   6.725 -0.2726  0.7493  1.5520
   26MOL   H24010290   4.099   0.513   6.718 -0.8656  1.2892 -0.7902
   26MOL   H24110291   4.178   0.638   6.807 -0.2987  1.1721  0.1640
   26MOL   C24210292   4.221   0.446   6.889 -0.2191 -0.1528  0.8963
   26MOL   C24310293   4.164   0.302   6.875 -0.1411 -0.1461 -0.4901
   26MOL   C24410294   4.184   0.227   6.757 -0.0806 -0.3736 -0.6211
   26MOL   C24510295   4.118   0.109   6.741 -0.5968 -0.5424  0.7129
   26MOL   C24610296   4.035   0.055   6.843  0.5538 -0.0630  0.0557
   26MOL   O24710297   3.975   7.976   6.814 -0.1191  0.1606  0.3273
   26MOL   C24810298   3.949   7.897   6.929 -0.5907  0.0552 -0.2963
   26MOL   C24910299   4.025   0.127   6.962  0.2002  0.2766 -0.4157
   26MOL   C25010300   4.081   0.252   6.977  0.1016 -0.0596  0.2406
   26MOL   C25110301   4.361   0.456   6.824 -0.0320 -0.7441  0.5609
   26MOL   H25210302   4.220   0.463   6.997 -1.2310 -0.0135  0.8646
   26MOL   H25310303   4.240   0.266   6.673  0.2822  0.8252  0.1576
   26MOL   H25410304   4.120   0.052   6.649 -1.6985  1.0598 -0.3228
   26MOL   H25510305   3.869   7.940   6.988 -0.3169  0.2205 -0.0472
   26MOL   H25610306   3.917   7.803   6.884 -1.6912  0.0360  0.5040
   26MOL   H25710307   4.032   7.875   6.996 -0.7083 -0.2277 -0.2395
   26MOL   H25810308   3.960   0.086   7.039 -0.8653  2.6434 -0.0000
   26MOL   H25910309   4.062   0.303   7.070 -1.3606 -0.5252  0.2092
   26MOL   H26010310   4.346   0.502   6.726  0.9533  0.0050  0.7484
   26MOL   H26110311   4.401   0.355   6.816 -0.1904 -0.7751  0.1334
   26MOL   C26210312   4.453   0.548   6.904  0.0836  0.1557 -0.2408
   26MOL   C26310313   4.397   0.660   6.990 -0.5880  0.4634  0.0984
   26MOL   C26410314   4.359   0.783   6.933  0.5212 -0.2012  0.3302
   26MOL   C26510315   4.344   0.896   7.017 -0.2713  0.5557  0.1056
   26MOL   C26610316   4.348   0.880   7.154 -0.1991  0.6100 -0.4385
   26MOL   O26710317   4.336   0.992   7.237 -0.3451 -0.4969  0.6039
   26MOL   C26810318   4.373   1.117   7.180  0.1300 -0.0215 -0.5967
   26MOL   C26910319   4.372   0.754   7.208 -0.4871 -0.3210 -0.8170
   26MOL   C27010320   4.393   0.641   7.128  0.4911  0.0958 -0.2459
   26MOL   C27110321   4.567   0.604   6.817 -0.5781  0.3682  0.3417
   26MOL   H27210322   4.495   0.475   6.973 -1.2062  0.3091  0.7158
   26MOL   H27310323   4.357   0.790   6.825 -0.1985 -0.9664  0.2932
   26MOL   H27410324   4.323   0.988   6.964 -0.0038  1.9101  2.3270
   26MOL   H27510325   4.366   1.200   7.250  0.2500 -2.2808  2.1722
   26MOL   H27610326   4.305   1.141   7.098 -0.0895 -0.6018 -0.5876
   26MOL   H27710327   4.473   1.120   7.135 -0.2776  2.2436 -1.3811
   26MOL   H27810328   4.363   0.740   7.314  2.7032  1.8958 -0.1725
   26MOL   H27910329   4.424   0.548   7.172  0.4410 -0.5088 -1.4683
   26MOL   H28010330   4.518   0.660   6.737 -0.8329 -0.4339 -0.0640
   26MOL   H28110331   4.621   0.678   6.875  0.0617 -0.9387  1.4251
   26MOL   C28210332   4.658   0.498   6.759  0.1641 -0.5278 -1.1447
   26MOL   C28310333   4.766   0.459   6.854 -0.0298  0.8220 -0.4983
   26MOL   C28410334   4.785   0.322   6.889 -0.0369  0.2756  0.1872
   26MOL   C28510335   4.885   0.281   6.978 -0.6826 -0.7521 -0.2346
   26MOL   C28610336   4.982   0.373   7.025 -0.6839  0.3935 -0.4091
   26MOL   O28710337   5.100   0.325   7.078 -0.1661 -0.5942  0.2591
   26MOL   C28810338   5.183   0.415   7.139 -0.6935  0.0685 -0.6484
   26MOL   C28910339   4.958   0.512   7.002 -0.1688 -1.1504 -0.3319
   26MOL   C29010340   4.854   0.554   6.917 -0.0035  0.5964  0.4861
   26MOL   C29110341   4.720   0.536   6.618  0.2300  0.2472  0.0203
   26MOL   H29210342   4.594   0.410   6.752  0.7194 -1.0963  0.7015
   26MOL   H29310343   4.719   0.252   6.840  1.5675  0.4754 -2.3629
   26MOL   H29410344   4.906   0.177   6.994  1.6854 -0.1918  0.6014
   26MOL   H29510345   5.261   0.361   7.194 -0.5830  1.2031  0.3175
   26MOL   H29610346   5.230   0.469   7.058 -0.7309  2.8012  1.1041
   26MOL   H29710347   5.137   0.480   7.213  0.0764 -1.8602  1.6054
   26MOL   H29810348   5.027   0.591   7.025 -0.8274 -0.2222 -1.5345
   26MOL   H29910349   4.848   0.660   6.896 -0.0028  0.1602 -1.7689
   26MOL   H30010350   4.739   0.644   6.615  1.1190  0.1009  0.2384
   26MOL   H30110351   4.820   0.494   6.617 -0.8529 -2.4202  0.2525
   26MOL   C30210352   4.649   0.473   6.494  0.0624  0.0234  0.2577
   26MOL   C30310353   4.504   0.520   6.483 -0.4367 -0.0286  0.1896
   26MOL   C30410354   4.399   0.431   6.482  0.5433  0.0669 -0.5118
   26MOL   C30510355   4.267   0.474   6.474  0.6846 -0.3278  0.1343
   26MOL   C30610356   4.234   0.614   6.477  1.1009 -1.1564  0.2514
   26MOL   O30710357   4.110   0.673   6.462  0.7552 -0.1615  0.2201
   26MOL   C30810358   4.006   0.586   6.419 -0.6849  0.2694 -0.4135
   26MOL   C30910359   4.345   0.703   6.466 -1.2685  0.1933 -0.0057
   26MOL   C31010360   4.476   0.662   6.470 -0.7506 -0.0809 -0.3541
   26MOL   C31110361   4.724   0.507   6.363 -0.6461 -0.2151 -0.3892
   26MOL   H31210362   4.647   0.364   6.496  2.2482 -0.0113  1.6330
   26MOL   H31310363   4.415   0.324   6.481  1.5781  0.1596  2.7316
   26MOL   H31410364   4.188   0.401   6.476  1.3514 -1.1234 -1.4865
   26MOL   H31510365   3.989   0.511   6.496 -0.1003  0.4557 -0.1075
   26MOL   H31610366   4.020   0.531   6.326 -0.6203 -1.8539  0.8253
   26MOL   H31710367   3.914   0.645   6.409 -1.4282 -0.8271 -0.1482
   26MOL   H31810368   4.330   0.810   6.475 -0.6671  0.5038 -2.2606
   26MOL   H31910369   4.557   0.733   6.473 -1.2868  0.5929 -1.3830
   26MOL   H32010370   4.819   0.456   6.349 -1.6816 -1.7838 -1.8141
   26MOL   H32110371   4.743   0.614   6.367  1.5161 -0.6626  1.9741
   26MOL   C32210372   4.642   0.507   6.226 -0.3262  0.0904 -0.9647
   26MOL   C32310373   4.611   0.370   6.174 -0.9234  0.4469  0.3297
   26MOL   C32410374   4.705   0.284   6.120  0.4364  0.2498  0.2678
   26MOL   C32510375   4.671   0.163   6.057  0.5923  0.1076  0.9799
   26MOL   C32610376   4.536   0.125   6.046 -0.1841  0.0290  0.6627
   26MOL   O32710377   4.493   0.008   5.983  0.0670 -0.1562  0.3346
   26MOL   C32810378   4.589   7.963   5.920 -0.6260 -0.3456  0.4421
   26MOL   C32910379   4.439   0.206   6.107 -0.2835  0.0719 -0.2725
   26MOL   C33010380   4.472   0.326   6.170 -0.0039  0.3112 -1.1075
   26MOL   C33110381   4.674   0.614   6.122 -0.5425  0.4963  0.3132
   26MOL   H33210382   4.543   0.548   6.249 -0.3135 -0.4003  0.0041
   26MOL   H33310383   4.807   0.321   6.120 -0.1691  1.9604  0.2099
   26MOL   H33410384   4.745   0.104   6.006  1.0636  0.2261  1.5185
   26MOL   H33510385   4.525   7.883   5.884 -2.3067  1.5610 -0.9408
   26MOL   H33610386   4.665   7.921   5.986 -1.2450  0.4529  1.6659
   26MOL   H33710387   4.633   8.010   5.831  1.2056 -0.1818  1.4108
   26MOL   H33810388   4.335   0.176   6.105 -0.9281  2.1798 -0.7354
   26MOL   H33910389   4.396   0.392   6.208  0.0972  0.2550 -0.8094
   26MOL   H34010390   4.657   0.713   6.163  0.3621  1.7605 -2.2630
   26MOL   H34110391   4.780   0.611   6.093 -0.7287  0.3123 -0.3652
   26MOL   C34210392   4.586   0.614   5.991 -0.7896  0.6364 -0.1782
   26MOL   C34310393   4.641   0.723   5.889 -0.0009 -0.2912  0.1228
   26MOL   C34410394   4.562   0.840   5.862  0.1788  0.4843  0.4242
   26MOL   C34510395   4.608   0.947   5.782  0.6648  0.2730  0.4484
   26MOL   C34610396   4.745   0.947   5.750 -0.1311 -0.2992 -0.3137
   26MOL   O34710397   4.810   1.051   5.686  0.1743 -0.1888  0.2629
   26MOL   C34810398   4.749   1.178   5.709 -0.6013  0.7326 -0.4629
   26MOL   C34910399   4.824   0.836   5.776 -0.3397  0.0810 -0.5028
   26MOL   C35010400   4.775   0.723   5.843 -0.0828  0.4358 -0.2706
   26MOL   C35110401   4.437   0.634   6.030  0.8778  0.8574 -0.7980
   26MOL   H35210402   4.597   0.514   5.948  1.8589  0.0539  1.6915
   26MOL   H35310403   4.463   0.850   5.903 -0.0230  1.7373 -0.3617
   26MOL   H35410404   4.547   1.028   5.744  3.5765  3.2868  1.9218
   26MOL   H35510405   4.715   1.195   5.811 -0.5731  2.4492 -0.7283
   26MOL   H35610406   4.817   1.262   5.692  0.8475  0.1068  2.0207
   26MOL   H35710407   4.662   1.182   5.643 -1.2324  2.7949  0.4362
   26MOL   H35810408   4.928   0.846   5.746 -0.1289  0.7636  0.4438
   26MOL   H35910409   4.843   0.643   5.869  0.9039  0.6945 -1.9741
   26MOL   H36010410   4.399   0.567   6.107 -0.7790 -0.1400 -2.4359
   26MOL   H36110411   4.424   0.733   6.074 -4.5054 -0.6133  1.3339
   26MOL   C36210412   4.336   0.616   5.912  0.0650 -0.2298  0.2570
   26MOL   C36310413   4.213   0.709   5.933  0.6018 -0.0345  0.6040
   26MOL   C36410414   4.141   0.715   6.053 -0.7313  0.1197  0.4988
   26MOL   C36510415   4.030   0.806   6.077  0.5221 -0.2512  0.6148
   26MOL   C36610416   3.992   0.886   5.967  0.1491 -0.4016 -0.3803
   26MOL   O36710417   3.881   0.967   5.980  0.4865 -0.1219 -0.5807
   26MOL   C36810418   3.804   0.969   6.105 -0.4175 -0.1078 -0.6258
   26MOL   C36910419   4.064   0.884   5.846  0.6869  0.1727 -0.1363
   26MOL   C37010420   4.176   0.801   5.832 -0.4855  0.5534  0.6718
   26MOL   C37110421   4.293   0.466   5.897 -0.3445 -0.1195 -0.5933
   26MOL   H37210422   4.378   0.639   5.814  3.6426 -2.1497  1.2847
   26MOL   H37310423   4.168   0.655   6.138 -3.3370 -2.2004 -0.2550
   26MOL   H37410424   3.973   0.799   6.168  1.1206 -0.4874  0.9779
   26MOL   H37510425   3.724   1.041   6.089  0.1160  0.5092 -0.5487
   26MOL   H37610426   3.758   0.871   6.117 -0.6239 -0.0235 -0.7220
   26MOL   H37710427   3.864   0.990   6.194  0.9569 -2.4467 -0.9820
   26MOL   H37810428   4.031   0.950   5.767 -1.3782  0.3839  0.8716
   26MOL   H37910429   4.220   0.786   5.734 -0.5429 -1.0116  0.8722
   26MOL   H38010430   4.383   0.406   5.890  0.8098  1.4572  0.3075
   26MOL   H38110431   4.247   0.432   5.989  1.9614  0.5497  0.8397
   26MOL   C38210432   4.211   0.436   5.774  0.2223  0.2133  0.3676
   26MOL   C38310433   4.146   0.299   5.781 -0.5213  0.3320 -0.0912
   26MOL   C38410434   4.228   0.190   5.790  0.3462  0.1483  0.7752
   26MOL   C38510435   4.178   0.066   5.830  0.0606  0.5353  0.2336
   26MOL   C38610436   4.043   0.050   5.844 -0.3446 -0.2153  0.3940
   26MOL   O38710437   3.990   7.963   5.877 -0.0991 -0.2783  1.1629
   26MOL   C38810438   4.076   7.860   5.929  0.3756  0.2104 -0.1773
   26MOL   C38910439   3.955   0.163   5.833  0.0031  0.3810  0.1317
   26MOL   C39010440   4.007   0.283   5.796  0.2285 -0.1873 -0.5465
   26MOL   C39110441   4.276   0.460   5.638 -0.0481 -0.6083 -0.1717
   26MOL   H39210442   4.124   0.502   5.770  0.0420 -0.1038 -1.3313
   26MOL   H39310443   4.335   0.202   5.786  0.3583 -0.3156 -0.3728
   26MOL   H39410444   4.247   8.027   5.853 -0.4335  0.2903  0.8658
   26MOL   H39510445   4.014   7.782   5.973 -1.4101  1.0509 -1.1181
   26MOL   H39610446   4.144   7.892   6.007 -0.6169  2.4324 -0.1752
   26MOL   H39710447   4.128   7.815   5.844 -1.1495 -2.0823  0.0470
   26MOL   H39810448   3.849   0.141   5.842  0.1657 -1.1802 -1.4324
   26MOL   H39910449   3.944   0.370   5.790  1.6956  1.0071  0.9760
   26MOL   H40010450   4.377   0.420   5.634  1.1612  1.9359  2.7884
   26MOL   H40110451   4.301   0.566   5.635  1.1346 -0.8213  1.3752
   26MOL   H40210452   4.212   0.431   5.555  0.9503  2.0938 -1.9752
   27MOL     C110453   2.475   2.168   0.623 -0.3788  0.1082 -0.1805
   27MOL     C210454   2.601   2.180   0.707 -0.1003 -0.3608 -0.0078
   27MOL     C310455   2.727   2.113   0.680  0.4455  0.2941  0.6603
   27MOL     C410456   2.842   2.141   0.751 -0.2009  0.0876  0.4549
   27MOL     C510457   2.836   2.239   0.854 -0.3588 -0.1087 -0.0838
   27MOL     O610458   2.955   2.278   0.903  0.3150 -0.1547  0.4533
   27MOL     C710459   2.974   2.417   0.920 -0.3065 -0.0310 -0.2915
   27MOL     C810460   2.715   2.304   0.889  0.7493  0.6567 -0.1670
   27MOL     C910461   2.590   2.268   0.822 -0.2598  0.8971 -0.2398
   27MOL    C1010462   2.366   2.067   0.670  0.2096  0.8386 -0.1587
   27MOL    H1110463   2.501   2.140   0.521  1.1338  2.5681 -0.5180
   27MOL    H1210464   2.735   2.056   0.589 -4.1953 -0.9620  0.9017
   27MOL    H1310465   2.941   2.108   0.723  0.0723 -0.5092  2.0374
   27MOL    H1410466   2.973   2.473   0.827 -1.2945 -0.2589 -0.4257
   27MOL    H1510467   2.907   2.463   0.993  0.5793  1.8073 -0.6176
   27MOL    H1610468   3.077   2.427   0.956 -0.0875  0.8511 -1.1522
   27MOL    H1710469   2.709   2.374   0.971 -0.0208 -1.4944  1.6909
   27MOL    H1810470   2.497   2.311   0.854 -0.7955 -1.2961  1.3409
   27MOL    H1910471   2.418   1.982   0.714  2.5842  1.4775 -1.6217
   27MOL    H2010472   2.307   2.112   0.750  1.5763  0.7132  0.9262
   27MOL    H2110473   2.443   2.271   0.612 -2.7485 -0.5574  0.3572
   27MOL    C2210474   2.266   2.011   0.572  0.0113  0.5292 -0.8488
   27MOL    C2310475   2.193   2.125   0.495  0.6275  0.3039 -0.9151
   27MOL    C2410476   2.070   2.170   0.540  0.1337 -0.3165 -0.0170
   27MOL    C2510477   1.997   2.266   0.467 -0.8028  0.2745  0.4934
   27MOL    C2610478   2.059   2.327   0.349 -0.1858  0.1259 -0.0289
   27MOL    O2710479   1.995   2.414   0.259  0.2120 -0.6796 -0.7573
   27MOL    C2810480   1.873   2.481   0.308 -0.1486 -0.5876 -0.0948
   27MOL    C2910481   2.184   2.292   0.315  0.1319  0.1387  0.3555
   27MOL    C3010482   2.249   2.180   0.377  0.0787 -0.5347  0.3876
   27MOL    C3110483   2.320   1.902   0.477  0.1748  0.0226 -0.4305
   27MOL    H3210484   2.189   1.980   0.643  1.0609  0.9548  0.4890
   27MOL    H3310485   2.010   2.125   0.619  1.5391 -3.0855 -0.4608
   27MOL    H3410486   1.899   2.302   0.496 -0.1757  1.2722  1.4153
   27MOL    H3510487   1.830   2.539   0.227  1.9531 -1.9832 -2.3045
   27MOL    H3610488   1.881   2.529   0.405  1.3376 -2.7490  0.9149
   27MOL    H3710489   1.802   2.399   0.319 -0.4354 -0.0601  2.1295
   27MOL    H3810490   2.229   2.336   0.228 -1.3637  0.3336 -0.3312
   27MOL    H3910491   2.342   2.145   0.335 -1.4295 -2.5214 -1.3812
   27MOL    H4010492   2.229   1.887   0.420 -0.7299  2.6014  0.2476
   27MOL    H4110493   2.397   1.940   0.410  0.8521 -1.9199 -0.7751
   27MOL    C4210494   2.391   1.774   0.538 -0.6941  0.5305  0.0420
   27MOL    C4310495   2.437   1.696   0.414 -0.9865 -0.5928  0.3368
   27MOL    C4410496   2.571   1.704   0.376  0.0640  0.1767 -0.0838
   27MOL    C4510497   2.613   1.636   0.254 -0.7464 -0.0329  0.3752
   27MOL    C4610498   2.519   1.583   0.164 -0.0332 -0.2815  0.2008
   27MOL    O4710499   2.558   1.534   0.047  0.0002 -0.7473  0.4324
   27MOL    C4810500   2.475   1.531   7.967 -0.1107  0.9644  0.1400
   27MOL    C4910501   2.385   1.569   0.213  0.0696  0.1791 -0.7510
   27MOL    C5010502   2.344   1.634   0.331 -0.2973  0.1636 -0.1529
   27MOL    C5110503   2.298   1.715   0.639 -0.6318  0.1340  0.0307
   27MOL    H5210504   2.483   1.806   0.586  0.6765 -0.9606 -1.5138
   27MOL    H5310505   2.628   1.758   0.450 -2.1160  0.3876  1.4804
   27MOL    H5410506   2.719   1.642   0.233 -0.8227  2.1874  0.5488
   27MOL    H5510507   2.532   1.513   7.876  0.0648  0.3470  0.3667
   27MOL    H5610508   2.405   1.449   7.986  0.5169  0.0663 -1.3953
   27MOL    H5710509   2.418   1.624   7.967 -1.9903 -0.1525  0.8822
   27MOL    H5810510   2.314   1.503   0.165 -0.8408  0.3319  0.3732
   27MOL    H5910511   2.242   1.620   0.364 -0.2460 -0.3957 -0.2253
   27MOL    H6010512   2.198   1.711   0.596 -0.5332 -0.2809 -0.1576
   27MOL    H6110513   2.284   1.779   0.726  0.2394 -0.8638  0.9280
   27MOL    C6210514   2.340   1.578   0.694 -0.2358 -0.1703 -0.5855
   27MOL    C6310515   2.237   1.522   0.787 -0.3587  0.0809  0.1043
   27MOL    C6410516   2.168   1.408   0.747 -0.9646  0.0570  0.0942
   27MOL    C6510517   2.071   1.351   0.825 -0.3653  0.5292  0.1924
   27MOL    C6610518   2.039   1.411   0.952  0.1165  0.0082 -0.6117
   27MOL    O6710519   1.947   1.355   1.029 -0.4445  0.4498 -0.1725
   27MOL    C6810520   1.905   1.418   1.152  0.0918 -0.5033 -0.3478
   27MOL    C6910521   2.115   1.517   0.998  0.4447  0.4005  0.3085
   27MOL    C7010522   2.213   1.579   0.916  0.7880  0.1752 -0.3930
   27MOL    C7110523   2.470   1.601   0.779 -0.1644  0.4161  0.1190
   27MOL    H7210524   2.362   1.511   0.611  0.8357 -0.1731 -0.3129
   27MOL    H7310525   2.184   1.372   0.647  0.5388 -0.1524  0.3962
   27MOL    H7410526   2.021   1.266   0.782 -0.1777  0.2359  0.5473
   27MOL    H7510527   1.978   1.401   1.231 -0.3374  0.9064  0.3810
   27MOL    H7610528   1.812   1.370   1.185  0.2648 -0.6523 -0.0745
   27MOL    H7710529   1.883   1.525   1.146 -1.3224 -0.8053 -0.8005
   27MOL    H7810530   2.110   1.563   1.096 -0.6781  1.9250 -0.4274
   27MOL    H7910531   2.259   1.671   0.949  0.4299 -0.7169  2.7269
   27MOL    H8010532   2.540   1.655   0.715 -2.0615  0.9540 -1.5553
   27MOL    H8110533   2.452   1.677   0.854  1.1298  0.3651  0.4959
   27MOL    C8210534   2.540   1.487   0.856  0.3027  0.2968  0.6763
   27MOL    C8310535   2.519   1.345   0.797  0.8720  0.1963 -0.0682
   27MOL    C8410536   2.448   1.254   0.882 -0.0015  0.2369  0.7325
   27MOL    C8510537   2.423   1.123   0.832 -0.1293 -0.0036 -1.0683
   27MOL    C8610538   2.479   1.084   0.706 -0.0690  0.7814  0.1658
   27MOL    O8710539   2.456   0.950   0.660 -0.1428 -0.0446 -0.0048
   27MOL    C8810540   2.480   0.921   0.527  0.8616 -0.6493 -0.1633
   27MOL    C8910541   2.532   1.183   0.619  0.2646 -0.0950 -0.8244
   27MOL    C9010542   2.553   1.312   0.663  0.1100 -0.0066 -0.1040
   27MOL    C9110543   2.689   1.516   0.898 -0.2822 -0.0114 -0.3270
   27MOL    H9210544   2.481   1.474   0.946 -0.5718 -0.0139  0.0718
   27MOL    H9310545   2.427   1.271   0.987 -0.7526  1.3197  0.4110
   27MOL    H9410546   2.381   1.056   0.906 -0.8064 -0.3976 -1.8120
   27MOL    H9510547   2.442   0.821   0.504  2.6830 -2.0639  2.6239
   27MOL    H9610548   2.588   0.916   0.515  1.4499  1.4478  3.5803
   27MOL    H9710549   2.437   0.989   0.455  1.4914 -1.4335 -1.2981
   27MOL    H9810550   2.566   1.155   0.520 -0.3894 -5.5447  0.3059
   27MOL    H9910551   2.611   1.369   0.592  0.0010 -0.5265 -0.6208
   27MOL   H10010552   2.720   1.437   0.967 -0.0140  0.7765  0.4532
   27MOL   H10110553   2.751   1.514   0.808 -0.1448  1.0067 -0.2603
   27MOL   C10210554   2.711   1.655   0.973 -0.4781  0.2619  0.0680
   27MOL   C10310555   2.613   1.670   1.092 -0.0094  0.6180 -0.8141
   27MOL   C10410556   2.528   1.781   1.108  0.2327  0.3010 -0.8722
   27MOL   C10510557   2.438   1.794   1.217 -0.3578  0.1069 -0.0078
   27MOL   C10610558   2.422   1.689   1.310  0.3966  0.6552 -0.1254
   27MOL   O10710559   2.316   1.686   1.400  0.3299  0.5251  0.4612
   27MOL   C10810560   2.288   1.556   1.467 -0.1082  0.0977  0.3748
   27MOL   C10910561   2.516   1.581   1.304  0.6695  0.9959  0.5142
   27MOL   C11010562   2.612   1.575   1.199 -0.0276 -1.1413  0.0174
   27MOL   C11110563   2.862   1.655   1.007  0.0474  0.0123  0.2706
   27MOL   H11210564   2.695   1.743   0.912  0.8260 -1.3963 -2.7819
   27MOL   H11310565   2.530   1.850   1.025 -0.0145  0.8474 -0.4328
   27MOL   H11410566   2.372   1.878   1.204  0.9481  1.3595  1.2352
   27MOL   H11510567   2.279   1.482   1.387 -2.2070  0.4462  0.2652
   27MOL   H11610568   2.372   1.535   1.533 -0.6999  0.0803  1.1391
   27MOL   H11710569   2.192   1.557   1.519  1.2178  2.2747  2.9032
   27MOL   H11810570   2.530   1.502   1.377  3.7089  1.3660  0.3765
   27MOL   H11910571   2.676   1.488   1.207 -0.5235 -1.4411  0.7835
   27MOL   H12010572   2.875   1.564   1.066  0.9617 -0.0919 -0.0833
   27MOL   H12110573   2.921   1.641   0.916  2.1216 -0.8936  1.6969
   27MOL   C12210574   2.926   1.779   1.080  0.1900  0.3665  0.1499
   27MOL   C12310575   3.054   1.817   1.014  0.2500 -0.4523 -0.2696
   27MOL   C12410576   3.164   1.730   0.995 -0.6216 -1.1292  0.1764
   27MOL   C12510577   3.276   1.771   0.921 -0.4677 -0.1279  0.1600
   27MOL   C12610578   3.286   1.902   0.867 -0.4257 -0.7586  0.4803
   27MOL   O12710579   3.393   1.939   0.784  0.0908  0.9103  0.2410
   27MOL   C12810580   3.500   1.844   0.757  0.1500  0.2579 -0.0665
   27MOL   C12910581   3.174   1.989   0.891 -0.2118  0.6125 -0.7149
   27MOL   C13010582   3.069   1.948   0.970  0.2124  0.2478  0.2492
   27MOL   C13110583   2.933   1.754   1.234  0.1439  0.2899  0.2423
   27MOL   H13210584   2.858   1.861   1.058 -1.5829 -1.0053  0.3971
   27MOL   H13310585   3.154   1.627   1.025  1.1126 -0.8727  1.7151
   27MOL   H13410586   3.356   1.699   0.916 -0.9719 -0.6151 -1.0461
   27MOL   H13510587   3.536   1.787   0.843  0.2998  1.6767  0.8346
   27MOL   H13610588   3.469   1.776   0.678 -0.5023 -1.1346  1.3653
   27MOL   H13710589   3.585   1.897   0.715  0.3185 -1.0823 -1.4419
   27MOL   H13810590   3.173   2.085   0.842 -1.7461  1.7612  1.4626
   27MOL   H13910591   2.991   2.022   0.984  1.4804  1.4043  1.3440
   27MOL   H14010592   3.035   1.731   1.263 -0.8280 -0.7893  2.9440
   27MOL   H14110593   2.876   1.662   1.251  1.2155 -0.3878  0.2063
   27MOL   C14210594   2.870   1.855   1.329 -0.7984 -0.5757 -0.4543
   27MOL   C14310595   2.862   1.809   1.476  0.5653  0.2054  0.1060
   27MOL   C14410596   2.744   1.759   1.530  0.1148 -0.1350 -0.4347
   27MOL   C14510597   2.752   1.691   1.652  0.1056  0.3337 -0.3435
   27MOL   C14610598   2.869   1.690   1.728 -0.7467 -0.0362  0.1103
   27MOL   O14710599   2.851   1.642   1.853 -0.8004 -0.3391  0.1271
   27MOL   C14810600   2.967   1.575   1.906  0.1462  0.8184  0.5190
   27MOL   C14910601   2.989   1.745   1.678 -0.4485  0.1316 -0.6469
   27MOL   C15010602   2.986   1.804   1.551 -0.7844 -0.0715 -0.2183
   27MOL   C15110603   2.929   2.000   1.319 -0.2656  0.1440  0.3740
   27MOL   H15210604   2.764   1.861   1.306 -0.4188  2.5082 -1.7526
   27MOL   H15310605   2.661   1.761   1.461  0.0786  0.9899 -0.3746
   27MOL   H15410606   2.660   1.644   1.685  1.0944  0.1837  2.3627
   27MOL   H15510607   3.044   1.641   1.946  3.0228 -0.4672 -2.6343
   27MOL   H15610608   2.942   1.501   1.982  1.3207  0.0272  0.1614
   27MOL   H15710609   3.019   1.515   1.831 -0.5801  2.1361 -1.0822
   27MOL   H15810610   3.084   1.743   1.729  0.0251  0.2733 -1.4969
   27MOL   H15910611   3.072   1.852   1.507 -1.1809 -0.4498 -1.4312
   27MOL   H16010612   2.920   2.036   1.217  0.3707 -1.8152 -0.4020
   27MOL   H16110613   3.033   2.003   1.352 -0.1776  0.5800  0.0646
   27MOL   C16210614   2.854   2.108   1.400  0.1106  0.1616 -0.3554
   27MOL   C16310615   2.709   2.118   1.358  0.8892  0.3771  0.0198
   27MOL   C16410616   2.663   2.165   1.236  0.1822 -1.0441 -0.1532
   27MOL   C16510617   2.528   2.183   1.207  0.1486  0.5248  0.4208
   27MOL   C16610618   2.433   2.148   1.309  0.4350  0.1339 -0.4319
   27MOL   O16710619   2.300   2.165   1.274 -0.0452 -0.3382 -0.4144
   27MOL   C16810620   2.202   2.132   1.372  0.3685  0.4851  0.7533
   27MOL   C16910621   2.477   2.095   1.428  0.6359 -0.5356 -0.0170
   27MOL   C17010622   2.615   2.067   1.453 -1.5058  0.1149  0.0140
   27MOL   C17110623   2.930   2.245   1.393 -0.0522  0.0322 -0.6265
   27MOL   H17210624   2.857   2.079   1.505  2.1107 -1.0074 -0.7124
   27MOL   H17310625   2.732   2.193   1.158  0.6833  0.8828  0.9477
   27MOL   H17410626   2.503   2.222   1.109 -0.8041 -1.6626 -0.2441
   27MOL   H17510627   2.215   2.196   1.459  1.6735  1.8262 -0.3984
   27MOL   H17610628   2.221   2.031   1.408 -0.8346 -0.6813 -1.7248
   27MOL   H17710629   2.098   2.140   1.342  1.0175  0.6790 -1.5412
   27MOL   H17810630   2.407   2.069   1.507  1.3870 -1.2957  0.4021
   27MOL   H17910631   2.641   2.029   1.551 -1.0337  0.8085  0.1561
   27MOL   H18010632   2.924   2.279   1.289 -1.4951 -0.2006 -0.6399
   27MOL   H18110633   3.030   2.237   1.436 -0.4215  2.5278  0.7911
   27MOL   C18210634   2.857   2.368   1.451 -0.4286  0.3357  0.2787
   27MOL   C18310635   2.902   2.493   1.381  0.7712 -0.1920 -0.0186
   27MOL   C18410636   2.810   2.598   1.354  0.1050 -0.2281 -0.4677
   27MOL   C18510637   2.857   2.716   1.288  1.1963 -0.2801 -0.1967
   27MOL   C18610638   2.989   2.728   1.245  0.0891  0.0194 -0.2849
   27MOL   O18710639   3.037   2.842   1.185 -0.1096 -0.3691  0.2556
   27MOL   C18810640   3.168   2.882   1.222 -1.0337  0.0071  0.4867
   27MOL   C18910641   3.074   2.611   1.260 -0.2620 -0.0123  0.1093
   27MOL   C19010642   3.033   2.501   1.332 -0.5852 -0.4957  0.1143
   27MOL   C19110643   2.873   2.366   1.607 -0.4374  0.3630  0.1486
   27MOL   H19210644   2.753   2.350   1.424  0.2096  1.0537 -2.7842
   27MOL   H19310645   2.708   2.605   1.389 -0.0734 -1.2791 -0.7772
   27MOL   H19410646   2.786   2.797   1.282  0.2500 -1.1835 -1.3855
   27MOL   H19510647   3.193   2.985   1.196  1.1897 -0.9508 -1.2201
   27MOL   H19610648   3.239   2.819   1.170 -0.5966 -1.0227  2.2884
   27MOL   H19710649   3.179   2.859   1.328  0.1909 -0.1186  0.3292
   27MOL   H19810650   3.176   2.617   1.226  0.2879 -1.3556  1.4834
   27MOL   H19910651   3.103   2.419   1.332  1.9047  1.5739 -0.6743
   27MOL   H20010652   2.778   2.391   1.654 -1.4735 -1.0918 -1.1013
   27MOL   H20110653   2.873   2.262   1.642 -2.1359 -0.1422 -1.3122
   27MOL   C20210654   2.995   2.432   1.672  0.2441 -0.2312 -0.2431
   27MOL   C20310655   3.053   2.356   1.788 -0.4027 -0.0706  0.0641
   27MOL   C20410656   2.969   2.300   1.889 -0.1956 -0.8489  0.5951
   27MOL   C20510657   3.018   2.223   1.992 -0.0271  0.4725  0.2514
   27MOL   C20610658   3.157   2.213   2.009 -0.7393  0.6262  0.1029
   27MOL   O20710659   3.212   2.151   2.117 -0.1348  0.5019 -0.2563
   27MOL   C20810660   3.146   2.043   2.179 -0.8028 -0.0921 -0.2040
   27MOL   C20910661   3.240   2.267   1.915  0.6381 -0.2385 -0.3108
   27MOL   C21010662   3.192   2.335   1.805  0.1309 -0.6961 -0.4052
   27MOL   C21110663   2.966   2.584   1.708 -0.4750 -0.8255 -0.1873
   27MOL   H21210664   3.075   2.442   1.599  0.2278  1.0370 -0.0948
   27MOL   H21310665   2.863   2.314   1.874 -0.0619  0.3056  0.6837
   27MOL   H21410666   2.943   2.186   2.059 -0.3942  1.1901  0.2403
   27MOL   H21510667   3.227   1.991   2.231  0.9504  2.7876  0.0379
   27MOL   H21610668   3.068   2.079   2.245 -0.1771 -1.8905  1.5696
   27MOL   H21710669   3.113   1.984   2.093 -3.1537  0.6120  0.2023
   27MOL   H21810670   3.346   2.257   1.931  0.9504 -1.4034 -2.9224
   27MOL   H21910671   3.259   2.380   1.733 -0.6973 -0.1301 -0.8361
   27MOL   H22010672   2.888   2.576   1.784 -0.8272 -2.6473 -0.7166
   27MOL   H22110673   2.923   2.640   1.625 -2.1358  0.2527  1.3588
   27MOL   C22210674   3.075   2.677   1.762 -0.4601 -0.4095 -0.4851
   27MOL   C22310675   3.217   2.658   1.702 -0.2091  0.0005  0.1199
   27MOL   C22410676   3.327   2.661   1.785 -0.1541 -0.3759  0.6861
   27MOL   C22510677   3.456   2.645   1.726  1.2760  0.2711 -0.1696
   27MOL   C22610678   3.476   2.639   1.585  0.4648 -0.6999  0.5518
   27MOL   O22710679   3.599   2.638   1.518 -0.1450  0.4839 -0.8778
   27MOL   C22810680   3.724   2.622   1.584  0.0239 -0.7295  0.6111
   27MOL   C22910681   3.360   2.639   1.500 -0.2217  0.2691  0.1436
   27MOL   C23010682   3.235   2.651   1.556 -0.3354 -0.3416 -0.0769
   27MOL   C23110683   3.032   2.827   1.758  0.2326  0.7610 -0.2673
   27MOL   H23210684   3.082   2.643   1.865 -1.8860  0.4555 -0.0805
   27MOL   H23310685   3.322   2.673   1.892 -1.4828  1.6850  0.4124
   27MOL   H23410686   3.542   2.641   1.791  0.5306  1.4696  0.9054
   27MOL   H23510687   3.692   2.565   1.672 -1.7568 -1.0853 -0.2410
   27MOL   H23610688   3.798   2.561   1.532 -3.3900 -3.7682 -0.8629
   27MOL   H23710689   3.768   2.717   1.612 -0.8030 -0.6046  1.4896
   27MOL   H23810690   3.374   2.645   1.393 -0.8593  2.4433  0.1460
   27MOL   H23910691   3.161   2.666   1.480 -0.0503 -1.4036 -0.5769
   27MOL   H24010692   3.115   2.881   1.802  0.3831  0.2075  0.1342
   27MOL   H24110693   3.036   2.863   1.655  3.6153  2.3113  0.3636
   27MOL   C24210694   2.902   2.853   1.843 -0.2542  0.2269  0.4037
   27MOL   C24310695   2.922   2.825   1.990  0.0894  0.7211  0.4990
   27MOL   C24410696   2.850   2.728   2.062 -0.3114  0.0221  0.3165
   27MOL   C24510697   2.863   2.713   2.198 -0.0688 -0.4428 -0.7753
   27MOL   C24610698   2.958   2.786   2.268  0.0767 -0.2032 -0.5805
   27MOL   O24710699   2.978   2.748   2.400  0.1760 -0.1916  0.1043
   27MOL   C24810700   3.055   2.841   2.474  0.3843  0.4791  0.4528
   27MOL   C24910701   3.040   2.880   2.198  0.6713 -0.0702 -0.3532
   27MOL   C25010702   3.020   2.899   2.059 -0.7728  0.4715 -0.0888
   27MOL   C25110703   2.838   2.994   1.826 -0.1431 -0.6978  0.1308
   27MOL   H25210704   2.831   2.784   1.798  1.5420 -0.2914 -1.7933
   27MOL   H25310705   2.780   2.663   2.011 -0.2771 -0.5857  1.0274
   27MOL   H25410706   2.807   2.639   2.254 -0.7142  1.5081  1.2298
   27MOL   H25510707   3.049   2.820   2.581  0.2851  2.7061  0.9108
   27MOL   H25610708   3.160   2.828   2.450  0.2689 -1.5624  0.9692
   27MOL   H25710709   3.023   2.943   2.454  2.6690  1.1767  0.3438
   27MOL   H25810710   3.117   2.940   2.243 -0.5910 -1.2598  3.6025
   27MOL   H25910711   3.082   2.961   1.995 -0.0787 -1.1994 -1.0636
   27MOL   H26010712   2.891   3.063   1.891  0.8290  2.5014 -3.8642
   27MOL   H26110713   2.741   2.990   1.875  1.5525 -0.7622  3.6594
   27MOL   C26210714   2.830   3.048   1.681  0.0191  0.4492  0.4439
   27MOL   C26310715   2.956   3.123   1.637  0.5568  0.4261  0.1376
   27MOL   C26410716   3.033   3.093   1.526  0.6759 -0.3032 -0.3057
   27MOL   C26510717   3.140   3.177   1.491  0.5393  0.7517  0.0949
   27MOL   C26610718   3.176   3.288   1.572  0.7450  0.1194 -0.7149
   27MOL   O26710719   3.287   3.349   1.524  0.1870  0.4820  0.0073
   27MOL   C26810720   3.383   3.399   1.624  1.0627  0.0692  0.8688
   27MOL   C26910721   3.102   3.314   1.692 -0.0514 -0.3635  1.0823
   27MOL   C27010722   2.992   3.229   1.719  0.7686  0.4283  0.1704
   27MOL   C27110723   2.710   3.143   1.656  0.1187 -0.8803  0.2396
   27MOL   H27210724   2.808   2.967   1.612  0.1773  0.3583  0.5002
   27MOL   H27310725   2.996   3.009   1.469 -0.6282  0.8819 -1.2667
   27MOL   H27410726   3.193   3.141   1.404  0.7489 -0.8763  0.8582
   27MOL   H27510727   3.336   3.427   1.719 -1.3216 -0.2694 -0.1726
   27MOL   H27610728   3.423   3.493   1.587  0.7814  0.1726  0.8277
   27MOL   H27710729   3.459   3.323   1.644  0.4143 -1.5991 -2.6648
   27MOL   H27810730   3.117   3.401   1.755  2.8445 -0.9707  1.2991
   27MOL   H27910731   2.927   3.255   1.801  1.2394 -0.5811  0.8798
   27MOL   H28010732   2.718   3.241   1.703  0.2084 -0.2574 -1.0373
   27MOL   H28110733   2.708   3.151   1.547 -1.1912  1.0012  0.3716
   27MOL   C28210734   2.567   3.088   1.683 -0.7688  0.4615 -0.1338
   27MOL   C28310735   2.552   2.939   1.637  0.0338  0.2753  0.4336
   27MOL   C28410736   2.513   2.836   1.726 -1.1904  0.4300  0.1043
   27MOL   C28510737   2.476   2.707   1.688 -0.2998  0.8364  0.0250
   27MOL   C28610738   2.496   2.676   1.550  0.2154  0.6718 -0.4371
   27MOL   O28710739   2.472   2.547   1.517  0.1529  0.2163 -0.0614
   27MOL   C28810740   2.407   2.532   1.386 -0.6391 -0.1323 -0.7646
   27MOL   C28910741   2.527   2.776   1.454  0.3732 -0.1742  0.3556
   27MOL   C29010742   2.562   2.908   1.503 -0.4768 -0.3452  0.5223
   27MOL   C29110743   2.466   3.189   1.631  0.2473  1.2357 -0.3250
   27MOL   H29210744   2.567   3.091   1.792 -1.5445 -0.1517 -0.1113
   27MOL   H29310745   2.498   2.860   1.830  1.6037  0.5156  0.5217
   27MOL   H29410746   2.450   2.638   1.767 -1.6592 -0.8178 -1.8132
   27MOL   H29510747   2.487   2.531   1.312 -0.2265 -0.3914 -0.3182
   27MOL   H29610748   2.370   2.431   1.364  0.9939 -0.4639 -2.1130
   27MOL   H29710749   2.319   2.592   1.365  0.7923  1.8457 -1.1714
   27MOL   H29810750   2.530   2.758   1.347 -1.4508 -0.8610  0.3864
   27MOL   H29910751   2.586   2.989   1.435 -1.7281  1.4112  2.1300
   27MOL   H30010752   2.499   3.293   1.634 -0.2788  1.5262 -2.9828
   27MOL   H30110753   2.460   3.175   1.523  1.4076  0.1266 -0.2578
   27MOL   C30210754   2.326   3.189   1.706  0.0214  0.0702  0.4664
   27MOL   C30310755   2.252   3.319   1.676 -0.1155  0.1302 -0.9548
   27MOL   C30410756   2.198   3.404   1.772  0.8308 -1.0683 -0.3925
   27MOL   C30510757   2.129   3.522   1.725 -0.1351  0.1281 -0.6364
   27MOL   C30610758   2.110   3.563   1.593 -0.8880  0.0466 -1.0037
   27MOL   O30710759   2.039   3.675   1.549  0.0456  0.0467  0.3713
   27MOL   C30810760   1.931   3.716   1.632 -0.2876 -0.1444  0.0690
   27MOL   C30910761   2.163   3.471   1.503  0.5980 -0.5905 -0.0512
   27MOL   C31010762   2.230   3.350   1.536  0.0656 -0.0837  0.2197
   27MOL   C31110763   2.222   3.075   1.673 -0.3405 -0.3809 -0.3587
   27MOL   H31210764   2.337   3.187   1.814  3.6307 -1.2083  0.1446
   27MOL   H31310765   2.213   3.377   1.875 -1.1538 -0.5485  0.0415
   27MOL   H31410766   2.095   3.588   1.803 -0.8430 -0.0101 -0.8194
   27MOL   H31510767   1.843   3.756   1.581 -0.8337  1.2770  2.0620
   27MOL   H31610768   1.966   3.780   1.712 -1.5223  1.5761 -0.7382
   27MOL   H31710769   1.885   3.631   1.683  0.3670 -0.4851  0.0943
   27MOL   H31810770   2.152   3.483   1.396 -0.1729 -0.3690  0.0477
   27MOL   H31910771   2.255   3.287   1.452  0.4065 -1.0881  1.0606
   27MOL   H32010772   2.274   2.982   1.698 -1.6500 -0.8635  0.6220
   27MOL   H32110773   2.207   3.071   1.566 -1.5485  1.9894 -0.2972
   27MOL   C32210774   2.081   3.083   1.740  0.8676  0.4670  0.0194
   27MOL   C32310775   2.064   2.989   1.858 -0.2314  0.5055  0.0654
   27MOL   C32410776   2.070   3.036   1.991  0.5526 -0.4205  0.3643
   27MOL   C32510777   2.042   2.949   2.095 -0.6624 -0.1900  0.6153
   27MOL   C32610778   2.016   2.805   2.079 -0.3517 -0.1526 -0.4189
   27MOL   O32710779   1.985   2.724   2.186 -0.3593  0.2657  0.5590
   27MOL   C32810780   1.957   2.779   2.312 -0.6986  0.5297  0.3801
   27MOL   C32910781   2.026   2.760   1.945  0.2106 -0.0023  0.0532
   27MOL   C33010782   2.052   2.851   1.835  0.3669 -0.8370  0.3230
   27MOL   C33110783   1.966   3.085   1.632 -0.4190  0.1485 -0.3739
   27MOL   H33210784   2.072   3.181   1.788 -0.3298  0.2481  0.2422
   27MOL   H33310785   2.085   3.140   2.015  1.2337 -0.2685 -0.6751
   27MOL   H33410786   2.041   2.986   2.197  0.5837 -0.6609  0.8090
   27MOL   H33510787   2.050   2.822   2.349 -1.1795  0.9257  1.1398
   27MOL   H33610788   1.927   2.701   2.383  3.0291 -0.9297  0.4454
   27MOL   H33710789   1.873   2.848   2.304 -0.7800  0.3589 -0.3069
   27MOL   H33810790   2.027   2.653   1.932  1.5895  0.2873 -2.5609
   27MOL   H33910791   2.056   2.815   1.733 -1.2440 -0.2233  0.0271
   27MOL   H34010792   1.987   3.169   1.567  0.2974 -0.7833 -1.3624
   27MOL   H34110793   1.971   2.999   1.565 -1.4199  0.0956 -0.3951
   27MOL   C34210794   1.826   3.101   1.694  0.2346  0.3507  0.2665
   27MOL   C34310795   1.722   3.035   1.601 -0.0808  0.1902 -0.2139
   27MOL   C34410796   1.723   2.891   1.604  0.1203 -0.4397  0.1332
   27MOL   C34510797   1.644   2.820   1.519  0.6744  0.0921  0.5827
   27MOL   C34610798   1.566   2.883   1.425 -0.6134 -0.3590 -0.3520
   27MOL   O34710799   1.469   2.817   1.344 -0.4536  0.2820  0.1458
   27MOL   C34810800   1.425   2.691   1.378 -0.1386  0.0766  0.0172
   27MOL   C34910801   1.552   3.023   1.430  0.0598 -0.4650 -0.2695
   27MOL   C35010802   1.635   3.101   1.511 -0.5822 -0.1481  0.0961
   27MOL   C35110803   1.794   3.248   1.728  0.0121 -0.2019  0.1787
   27MOL   H35210804   1.827   3.042   1.786  0.2087 -1.2736 -0.7502
   27MOL   H35310805   1.784   2.842   1.679  0.5033 -0.2568 -0.0564
   27MOL   H35410806   1.636   2.713   1.536  1.0124 -0.0942 -0.3750
   27MOL   H35510807   1.511   2.625   1.377  0.8298  1.2906 -1.8783
   27MOL   H35610808   1.375   2.690   1.475  0.3517  0.5101  0.2798
   27MOL   H35710809   1.354   2.651   1.306 -0.1508  1.8179 -0.9743
   27MOL   H35810810   1.481   3.087   1.378 -0.6055 -0.8886  0.1145
   27MOL   H35910811   1.646   3.207   1.496 -1.1216 -0.0122  0.6506
   27MOL   H36010812   1.873   3.302   1.781 -0.1167  1.3700 -1.1507
   27MOL   H36110813   1.780   3.313   1.641 -0.0688  0.5528  0.7450
   27MOL   C36210814   1.656   3.260   1.819 -0.6784  0.1503  0.3702
   27MOL   C36310815   1.592   3.394   1.810 -0.2219 -0.2795 -0.1695
   27MOL   C36410816   1.456   3.406   1.776 -0.5794  0.0426  0.3158
   27MOL   C36510817   1.393   3.532   1.769 -0.2851  0.5590  0.6179
   27MOL   C36610818   1.463   3.654   1.809 -1.2900  0.1198  0.0424
   27MOL   O36710819   1.412   3.779   1.822  0.0213 -0.0658 -0.3111
   27MOL   C36810820   1.270   3.792   1.825 -0.5909  0.2251 -0.1959
   27MOL   C36910821   1.599   3.636   1.843  0.4418  0.2024  0.4174
   27MOL   C37010822   1.661   3.512   1.846 -0.6071 -0.4030 -0.0848
   27MOL   C37110823   1.666   3.198   1.958  0.1963  0.8287  0.6648
   27MOL   H37210824   1.589   3.194   1.764  0.4898  0.7077 -1.7766
   27MOL   H37310825   1.399   3.317   1.755 -1.1096  0.6527 -0.8621
   27MOL   H37410826   1.290   3.527   1.736 -0.3759  0.7611  0.8697
   27MOL   H37510827   1.253   3.900   1.828  3.0260  0.8801 -0.6672
   27MOL   H37610828   1.207   3.744   1.750  1.8202 -2.2037 -0.7663
   27MOL   H37710829   1.216   3.767   1.916 -0.9988 -1.3932 -0.8651
   27MOL   H37810830   1.649   3.728   1.871  1.7887 -0.7621  1.2153
   27MOL   H37910831   1.766   3.512   1.868 -0.1830 -0.1373 -2.0079
   27MOL   H38010832   1.773   3.199   1.981  0.0501  0.5589  1.3667
   27MOL   H38110833   1.613   3.252   2.036  1.6582  3.2220  0.0585
   27MOL   C38210834   1.607   3.054   1.982  0.1239 -0.0852  0.0794
   27MOL   C38310835   1.467   3.033   1.922 -0.1897  0.1508  1.0359
   27MOL   C38410836   1.439   2.935   1.823  0.2962 -0.1319 -0.5299
   27MOL   C38510837   1.316   2.909   1.767  0.5034 -0.1023  0.6754
   27MOL   C38610838   1.210   2.981   1.820 -0.5820  0.3828  0.1799
   27MOL   O38710839   1.083   2.935   1.780  0.8329 -0.2858  0.6192
   27MOL   C38810840   0.982   2.948   1.878 -0.4058  0.1015 -0.2056
   27MOL   C38910841   1.227   3.092   1.903  0.0472  0.5957 -0.5018
   27MOL   C39010842   1.355   3.116   1.963  0.5303 -0.0622 -0.1440
   27MOL   C39110843   1.614   3.020   2.139 -0.5880  0.0402  0.1029
   27MOL   H39210844   1.666   2.979   1.930  1.2173  1.5272 -1.0847
   27MOL   H39310845   1.525   2.876   1.793  0.1498 -1.9850  2.5547
   27MOL   H39410846   1.301   2.829   1.696 -0.2307  0.5591  0.0743
   27MOL   H39510847   0.929   2.853   1.880  1.7295 -1.1032  0.5021
   27MOL   H39610848   0.914   3.028   1.849 -0.5071  0.1009  0.0352
   27MOL   H39710849   1.020   2.964   1.979  0.3827  0.6913 -0.5869
   27MOL   H39810850   1.143   3.143   1.946 -0.3770 -0.1416 -0.4450
   27MOL   H39910851   1.370   3.205   2.023  1.0849  0.4275 -1.0047
   27MOL   H40010852   1.548   3.086   2.195  1.2698  2.3820 -0.4164
   27MOL   H40110853   1.714   3.036   2.178 -0.0383 -2.4650 -0.1574
   27MOL   H40210854   1.588   2.914   2.144 -0.3780 -0.0081  0.1718
   28MOL     C110855   3.636   2.040   0.201  0.2852 -0.1828  0.1499
   28MOL     C210856   3.736   2.010   0.096 -0.7021  0.0523  0.4381
   28MOL     C310857   3.818   2.114   0.034  0.5153  0.0164  0.4935
   28MOL     C410858   3.893   2.084   7.956 -0.4457 -0.2320  0.0711
   28MOL     C510859   3.918   1.953   7.917  0.2240 -0.0606 -1.1742
   28MOL     O610860   4.003   1.931   7.811  0.3632 -0.3886 -0.7418
   28MOL     C710861   4.035   1.802   7.774 -0.2096  0.1188  0.2645
   28MOL     C810862   3.847   1.852   7.983 -0.3448 -0.5146  0.3679
   28MOL     C910863   3.745   1.886   0.038  0.4578 -0.1437 -0.5305
   28MOL    C1010864   3.510   2.114   0.156  0.8315 -0.8555  0.3086
   28MOL    H1110865   3.698   2.089   0.276  1.9026 -2.6875  0.5012
   28MOL    H1210866   3.804   2.217   0.065  1.9348 -0.0416  1.3453
   28MOL    H1310867   3.930   2.171   7.904 -0.3160 -1.2041 -1.5039
   28MOL    H1410868   4.070   1.744   7.859  1.5815  2.8461  1.4593
   28MOL    H1510869   3.949   1.757   7.724  0.1845  0.1428 -0.4463
   28MOL    H1610870   4.120   1.808   7.706  1.3578 -0.6063  2.1192
   28MOL    H1710871   3.859   1.751   7.947 -0.4087 -0.2676 -0.3470
   28MOL    H1810872   3.682   1.805   0.070 -0.9631  0.5892 -1.4535
   28MOL    H1910873   3.548   2.203   0.106 -0.2214 -1.0100 -0.7972
   28MOL    H2010874   3.451   2.058   0.084  1.4038  1.6421 -2.1705
   28MOL    H2110875   3.610   1.947   0.252 -0.6583 -1.0126 -1.7908
   28MOL    C2210876   3.412   2.148   0.263 -0.0836  0.3123 -0.3596
   28MOL    C2310877   3.490   2.206   0.381  0.0737 -0.4932  0.2466
   28MOL    C2410878   3.501   2.123   0.492 -0.2092 -0.6904  0.3150
   28MOL    C2510879   3.585   2.171   0.600  0.2018 -0.0585  0.6541
   28MOL    C2610880   3.655   2.294   0.600  0.3203 -0.8449  0.5231
   28MOL    O2710881   3.749   2.343   0.691  0.2739  0.2013  0.2107
   28MOL    C2810882   3.784   2.256   0.794  0.4349  0.3179 -0.5027
   28MOL    C2910883   3.633   2.371   0.485  0.5441  0.4978 -0.1402
   28MOL    C3010884   3.564   2.329   0.370 -0.4416 -0.2117 -0.0411
   28MOL    C3110885   3.305   2.242   0.210 -0.2005 -0.3618 -0.1806
   28MOL    H3210886   3.362   2.056   0.293  0.9792 -0.0310  0.3878
   28MOL    H3310887   3.443   2.033   0.499 -1.2024 -0.0086  1.0804
   28MOL    H3410888   3.576   2.115   0.692  1.0532 -0.0071  0.7739
   28MOL    H3510889   3.853   2.177   0.765 -0.6463 -0.4999 -0.9178
   28MOL    H3610890   3.693   2.224   0.846  0.3686 -0.2268 -0.9459
   28MOL    H3710891   3.850   2.309   0.863  1.5620 -2.2994  0.5037
   28MOL    H3810892   3.694   2.460   0.477  0.7254  0.5414  1.5389
   28MOL    H3910893   3.570   2.391   0.282 -0.4557  1.0581  0.8235
   28MOL    H4010894   3.353   2.326   0.161 -1.1828 -0.8185 -1.9418
   28MOL    H4110895   3.256   2.191   0.128 -0.2332  3.1059 -2.3820
   28MOL    C4210896   3.178   2.263   0.310 -0.0831  1.0243  0.0859
   28MOL    C4310897   3.118   2.133   0.348  0.5273  0.4178 -0.2597
   28MOL    C4410898   3.033   2.059   0.265 -0.3123 -0.1534  0.5007
   28MOL    C4510899   2.964   1.945   0.311 -0.6809  0.5081  0.1133
   28MOL    C4610900   2.987   1.900   0.436  0.1435  0.6598 -0.1435
   28MOL    O4710901   2.910   1.788   0.471  0.1983  0.5808  0.7360
   28MOL    C4810902   2.882   1.769   0.607 -0.2071 -0.1111 -0.3740
   28MOL    C4910903   3.070   1.970   0.524  0.1039  0.3604 -0.1259
   28MOL    C5010904   3.130   2.090   0.483  0.0560  1.3282 -0.9035
   28MOL    C5110905   3.073   2.367   0.251  0.2737 -0.3800 -0.3073
   28MOL    H5210906   3.213   2.301   0.406  0.0806  0.3756  0.2858
   28MOL    H5310907   3.023   2.084   0.160 -0.8624  0.7463  0.7540
   28MOL    H5410908   2.892   1.891   0.251  0.6929  0.5227 -1.5896
   28MOL    H5510909   2.969   1.761   0.672 -0.5837 -1.4720 -0.0167
   28MOL    H5610910   2.828   1.854   0.648 -1.3738  0.7609 -3.5876
   28MOL    H5710911   2.832   1.672   0.616  0.8473 -0.7022 -0.8264
   28MOL    H5810912   3.087   1.933   0.624 -3.6067 -0.3451  0.3168
   28MOL    H5910913   3.182   2.151   0.555  2.9303 -1.2354 -0.6884
   28MOL    H6010914   2.991   2.375   0.322  0.4582  1.6392 -0.2780
   28MOL    H6110915   3.036   2.335   0.154  0.6646 -0.6431 -0.3723
   28MOL    C6210916   3.123   2.516   0.230  0.5179 -0.0492  0.0415
   28MOL    C6310917   3.147   2.589   0.366 -0.0962  0.3111  0.1770
   28MOL    C6410918   3.261   2.568   0.443 -0.7789  0.5003 -0.1450
   28MOL    C6510919   3.279   2.614   0.576  0.1601  0.2046  0.2632
   28MOL    C6610920   3.178   2.690   0.637  0.0044 -0.2941  0.1894
   28MOL    O6710921   3.202   2.734   0.768  0.2901 -0.3750 -0.1561
   28MOL    C6810922   3.091   2.770   0.850  0.7905 -0.4371 -0.4719
   28MOL    C6910923   3.065   2.717   0.566  0.6437 -0.9014 -0.0720
   28MOL    C7010924   3.050   2.669   0.435 -0.9263 -0.6531 -1.0213
   28MOL    C7110925   3.028   2.598   0.142 -0.0933 -0.1825 -0.0166
   28MOL    H7210926   3.216   2.511   0.174 -0.7307 -0.3400 -2.0587
   28MOL    H7310927   3.330   2.496   0.403 -1.5321 -2.3636  3.4666
   28MOL    H7410928   3.368   2.590   0.634  1.7820  1.1685 -1.7476
   28MOL    H7510929   3.019   2.691   0.870 -2.0929  2.0948 -0.4328
   28MOL    H7610930   3.044   2.864   0.821 -2.6273 -2.4323 -1.7022
   28MOL    H7710931   3.140   2.797   0.944  1.7659  2.8511 -1.8324
   28MOL    H7810932   2.990   2.780   0.612  0.2633 -1.4136  0.0162
   28MOL    H7910933   2.959   2.695   0.382 -1.0363 -0.3635 -0.6950
   28MOL    H8010934   2.926   2.576   0.172 -0.9938  2.3192 -1.1051
   28MOL    H8110935   3.033   2.703   0.169 -1.4403 -0.1334  0.0652
   28MOL    C8210936   3.052   2.593   8.034 -0.1201 -0.5108 -0.2928
   28MOL    C8310937   2.931   2.641   7.953  0.1126 -0.0593 -0.0205
   28MOL    C8410938   2.873   2.768   7.970 -0.0381  0.0739 -1.0679
   28MOL    C8510939   2.785   2.826   7.877 -0.6308  0.1290 -0.1615
   28MOL    C8610940   2.738   2.748   7.770  0.5598 -0.6856 -0.3394
   28MOL    O8710941   2.651   2.798   7.674 -0.4686 -0.0010 -0.0320
   28MOL    C8810942   2.551   2.894   7.719 -0.6204  0.0756 -0.0020
   28MOL    C8910943   2.780   2.614   7.759  0.1748  0.9376 -0.1655
   28MOL    C9010944   2.882   2.564   7.847 -0.0278 -0.5506  0.9225
   28MOL    C9110945   3.181   2.674   7.989 -0.2929  0.4884 -0.3981
   28MOL    H9210946   3.055   2.485   8.020  0.2820 -0.6179  0.5751
   28MOL    H9310947   2.922   2.837   8.037 -0.1211  0.3888 -1.3348
   28MOL    H9410948   2.758   2.928   7.899 -1.3261  0.0694 -0.7457
   28MOL    H9510949   2.578   3.000   7.726 -1.3922  0.4692 -2.3320
   28MOL    H9610950   2.509   2.882   7.819  0.8925  0.0294  0.6288
   28MOL    H9710951   2.464   2.880   7.654  1.6223 -1.4685 -2.7899
   28MOL    H9810952   2.734   2.554   7.682  0.0505  1.2677 -0.3498
   28MOL    H9910953   2.929   2.467   7.842 -1.5202 -1.2264 -0.6792
   28MOL   H10010954   3.162   2.782   7.983 -0.5375  0.6408  2.2832
   28MOL   H10110955   3.258   2.679   0.026 -0.6033  1.0528 -0.1224
   28MOL   C10210956   3.257   2.617   7.864  0.4153  0.0981  0.3075
   28MOL   C10310957   3.355   2.707   7.798 -0.2985  0.2864 -0.6897
   28MOL   C10410958   3.462   2.767   7.872  0.8280  0.4259  0.6219
   28MOL   C10510959   3.550   2.862   7.812 -0.5764 -0.9472 -0.1511
   28MOL   C10610960   3.555   2.874   7.672 -0.3773  0.2791  0.1213
   28MOL   O10710961   3.653   2.955   7.619 -0.1229  0.6112 -0.9068
   28MOL   C10810962   3.650   2.976   7.480  0.6348 -0.2143  0.9061
   28MOL   C10910963   3.458   2.805   7.598  0.5406  0.6732 -0.3236
   28MOL   C11010964   3.354   2.735   7.658  0.3083  0.0956 -0.1222
   28MOL   C11110965   3.325   2.482   7.905  0.8632  0.4861 -1.3997
   28MOL   H11210966   3.175   2.597   7.795  1.1819 -0.1213 -0.5628
   28MOL   H11310967   3.468   2.760   7.980 -2.3583  0.5262  0.8638
   28MOL   H11410968   3.626   2.907   7.875  1.2920 -2.5603 -1.1847
   28MOL   H11510969   3.735   3.041   7.457 -1.6538  2.4771 -0.2319
   28MOL   H11610970   3.645   2.893   7.409 -1.7368  1.8583 -1.4798
   28MOL   H11710971   3.563   3.039   7.461  0.1677 -0.6672  1.5123
   28MOL   H11810972   3.446   2.820   7.492  1.7602  2.3009 -0.2538
   28MOL   H11910973   3.276   2.701   7.591  1.0011  0.2069 -0.9963
   28MOL   H12010974   3.407   2.506   7.973  0.8811 -1.2184 -0.8151
   28MOL   H12110975   3.268   2.429   7.981  1.7402 -0.7437 -1.5923
   28MOL   C12210976   3.367   2.386   7.794  0.1882  0.1766 -0.4662
   28MOL   C12310977   3.316   2.240   7.829  0.7883 -0.1066 -0.0093
   28MOL   C12410978   3.394   2.126   7.843 -0.4439 -0.8792 -0.6197
   28MOL   C12510979   3.340   1.999   7.862  0.0466  0.1007 -0.2543
   28MOL   C12610980   3.202   1.977   7.865  0.3518  0.0082 -0.0707
   28MOL   O12710981   3.135   1.858   7.878  0.2391 -0.0290 -0.2630
   28MOL   C12810982   3.216   1.742   7.877 -0.0925  0.0961 -0.0620
   28MOL   C12910983   3.120   2.094   7.849  0.1430  0.2460 -0.4102
   28MOL   C13010984   3.181   2.219   7.824  1.0900  0.2690 -0.1797
   28MOL   C13110985   3.512   2.398   7.748  0.3203  0.6981  0.1294
   28MOL   H13210986   3.301   2.412   7.711  0.3061 -1.1866 -0.9987
   28MOL   H13310987   3.501   2.122   7.831 -0.0988  1.1278  1.4819
   28MOL   H13410988   3.409   1.916   7.856  1.1449  1.0535 -0.9022
   28MOL   H13510989   3.152   1.656   7.859  0.4192 -0.3743  0.3588
   28MOL   H13610990   3.286   1.752   7.794 -0.3445 -0.0802 -0.2920
   28MOL   H13710991   3.267   1.719   7.971 -2.2513 -0.9964  0.8655
   28MOL   H13810992   3.014   2.080   7.863  0.4018  0.2986  1.7762
   28MOL   H13910993   3.112   2.299   7.806 -2.5920 -2.3702  1.4563
   28MOL   H14010994   3.584   2.372   7.826  1.0426  0.4627 -0.6063
   28MOL   H14110995   3.547   2.500   7.733 -1.0069  1.3207  1.1243
   28MOL   C14210996   3.539   2.319   7.614 -0.2291 -0.2109  0.1507
   28MOL   C14310997   3.510   2.417   7.497 -0.2757  0.4470  0.5455
   28MOL   C14410998   3.603   2.504   7.443  0.8128 -0.6037 -0.2605
   28MOL   C14510999   3.577   2.592   7.338 -0.4971  0.2907 -0.7706
   28MOL   C14611000   3.441   2.599   7.290  0.9595 -0.0322 -0.1025
   28MOL   O14711001   3.394   2.680   7.183  0.0656  0.1716  0.0433
   28MOL   C14811002   3.491   2.750   7.113  0.2456 -0.1544 -0.2569
   28MOL   C14911003   3.343   2.502   7.338  0.1165 -0.0213 -0.6132
   28MOL   C15011004   3.382   2.417   7.448  0.6545 -0.1819  0.8049
   28MOL   C15111005   3.681   2.261   7.619  0.2514 -0.0253  0.2110
   28MOL   H15211006   3.466   2.241   7.594  1.4549 -1.9692  0.6908
   28MOL   H15311007   3.704   2.501   7.481  0.4412 -1.2399  0.7069
   28MOL   H15411008   3.656   2.649   7.293 -0.8349  1.2244 -0.1967
   28MOL   H15511009   3.567   2.684   7.070 -0.5122 -0.8345 -0.5546
   28MOL   H15611010   3.432   2.810   7.044 -1.5321  0.6532  1.9083
   28MOL   H15711011   3.545   2.819   7.177 -0.4989  1.4180 -1.2907
   28MOL   H15811012   3.245   2.503   7.293  0.2844 -1.2282 -1.0300
   28MOL   H15911013   3.299   2.358   7.484 -1.1505  0.6896 -1.7542
   28MOL   H16011014   3.684   2.195   7.706  0.3623  0.1238  0.3187
   28MOL   H16111015   3.741   2.350   7.636 -1.3123  1.0842  0.0435
   28MOL   C16211016   3.724   2.187   7.492 -0.3118 -0.4624 -0.9973
   28MOL   C16311017   3.619   2.088   7.446  0.1121 -0.7438 -0.4549
   28MOL   C16411018   3.596   1.969   7.528 -0.8293  0.0860  0.0851
   28MOL   C16511019   3.485   1.884   7.499  0.8824  0.5021 -0.0308
   28MOL   C16611020   3.406   1.902   7.384 -0.2890 -0.0324  0.1936
   28MOL   O16711021   3.310   1.808   7.366 -0.1969  0.5504 -0.0932
   28MOL   C16811022   3.265   1.795   7.234  0.0917 -0.4936 -0.3717
   28MOL   C16911023   3.435   2.016   7.301 -0.2598  0.4579  0.2855
   28MOL   C17011024   3.545   2.102   7.332 -0.1858  0.4115  0.4709
   28MOL   C17111025   3.860   2.117   7.525  0.0493  0.2106 -0.1182
   28MOL   H17211026   3.746   2.257   7.412  0.3240  1.0810  0.4895
   28MOL   H17311027   3.650   1.948   7.619  0.0247 -0.4638 -0.5413
   28MOL   H17411028   3.457   1.804   7.566 -0.0865  1.2355  0.4420
   28MOL   H17511029   3.224   1.698   7.209 -2.5396  0.4755  0.0795
   28MOL   H17611030   3.349   1.811   7.166  0.5825  0.3576  0.4141
   28MOL   H17711031   3.193   1.874   7.213 -1.0931 -1.6829 -0.8516
   28MOL   H17811032   3.374   2.040   7.215  0.1486  0.7992  0.0846
   28MOL   H17911033   3.573   2.185   7.269  0.7747 -0.7042 -0.6246
   28MOL   H18011034   3.876   2.036   7.453 -1.1993 -0.0904 -0.0760
   28MOL   H18111035   3.838   2.071   7.621 -1.5418 -0.9011 -0.9879
   28MOL   C18211036   3.993   2.209   7.539  0.0360 -0.0671  0.5078
   28MOL   C18311037   3.996   2.323   7.444 -0.3341 -0.1375 -0.5404
   28MOL   C18411038   4.002   2.456   7.494 -0.3275  0.4034 -0.2699
   28MOL   C18511039   4.000   2.559   7.402  0.1898  0.1268  0.1379
   28MOL   C18611040   4.001   2.540   7.261  0.6101 -0.3459  0.3032
   28MOL   O18711041   4.001   2.649   7.183  0.2674  0.2822  0.2499
   28MOL   C18811042   3.985   2.635   7.041 -0.4091  0.0659  0.1571
   28MOL   C18911043   3.993   2.406   7.213 -0.0260  0.1262 -0.3630
   28MOL   C19011044   3.986   2.295   7.307 -0.3365  0.1144 -0.2136
   28MOL   C19111045   4.119   2.131   7.540  0.2002  0.1038 -0.0322
   28MOL   H19211046   3.986   2.256   7.637 -1.7772  0.4604  0.1501
   28MOL   H19311047   4.010   2.481   7.599 -1.5593 -1.1513  0.2174
   28MOL   H19411048   4.001   2.662   7.434 -2.4147 -0.5652  2.5709
   28MOL   H19511049   3.879   2.625   7.015 -0.5704  0.6777  0.5619
   28MOL   H19611050   4.039   2.557   6.987  0.0686  0.8613 -0.5219
   28MOL   H19711051   4.015   2.730   6.997 -1.3209  0.2209 -0.1453
   28MOL   H19811052   3.996   2.377   7.109  1.7181 -0.2745 -0.2135
   28MOL   H19911053   3.987   2.189   7.284 -0.2599  0.4771 -1.9834
   28MOL   H20011054   4.096   2.034   7.583  1.0907  0.4504  1.2590
   28MOL   H20111055   4.148   2.103   7.439 -1.1673  0.8935 -0.6649
   28MOL   C20211056   4.239   2.192   7.628 -0.3055 -0.0995  0.0705
   28MOL   C20311057   4.273   2.334   7.587 -0.2875 -0.3813 -0.1077
   28MOL   C20411058   4.324   2.360   7.459 -0.3861 -0.3472  0.0524
   28MOL   C20511059   4.367   2.493   7.432 -0.1395 -0.7957  0.2287
   28MOL   C20611060   4.356   2.597   7.528  0.3062 -0.1181 -0.5076
   28MOL   O20711061   4.394   2.725   7.492  0.4224 -0.0289 -0.5464
   28MOL   C20811062   4.460   2.798   7.596  0.7575  0.3669  0.4614
   28MOL   C20911063   4.311   2.560   7.654  0.1485  0.3712 -0.4325
   28MOL   C21011064   4.263   2.430   7.685  0.2623  0.6135  0.9802
   28MOL   C21111065   4.357   2.098   7.638  0.0883 -0.9959  0.1191
   28MOL   H21211066   4.199   2.195   7.729 -0.8669 -0.0635 -0.1486
   28MOL   H21311067   4.330   2.283   7.384 -1.5626  0.1582 -0.5657
   28MOL   H21411068   4.409   2.505   7.333  2.6256  1.1180  1.5662
   28MOL   H21511069   4.402   2.800   7.688  0.8970 -1.5343  0.6131
   28MOL   H21611070   4.556   2.758   7.629  1.4162  0.9491 -0.7316
   28MOL   H21711071   4.456   2.905   7.573 -2.2455  0.1424 -0.2488
   28MOL   H21811072   4.300   2.633   7.733  0.8930 -1.7560  1.7058
   28MOL   H21911073   4.217   2.411   7.781  3.1731  1.3470  2.5880
   28MOL   H22011074   4.400   2.090   7.539  0.5475  2.0689  0.0071
   28MOL   H22111075   4.318   1.999   7.658 -0.1297 -1.3029 -1.7979
   28MOL   C22211076   4.462   2.127   7.739  0.3258  0.2284 -0.4523
   28MOL   C22311077   4.417   2.109   7.886 -0.0780 -0.0892  0.2576
   28MOL   C22411078   4.431   2.213   7.979 -0.0280 -0.0401  0.4108
   28MOL   C22511079   4.395   2.193   0.074  0.3322 -0.8361  0.4614
   28MOL   C22611080   4.345   2.066   0.107  0.3303  0.4607  0.2980
   28MOL   O22711081   4.303   2.061   0.240 -0.3030  0.4858  0.5241
   28MOL   C22811082   4.190   1.983   0.263 -0.1216  0.1215 -0.3166
   28MOL   C22911083   4.348   1.956   0.024  0.2642 -1.4991  0.0878
   28MOL   C23011084   4.377   1.977   7.928 -0.6912  0.0919  0.4564
   28MOL   C23111085   4.590   2.050   7.698 -0.1686  0.5491 -0.0417
   28MOL   H23211086   4.493   2.231   7.725 -0.9692  1.1426  2.9733
   28MOL   H23311087   4.477   2.309   7.957 -1.5243  0.7281  0.5357
   28MOL   H23411088   4.407   2.264   0.154  0.0526  0.7293 -0.8592
   28MOL   H23511089   4.106   2.005   0.198  0.0102  0.8122 -0.2543
   28MOL   H23611090   4.217   1.878   0.250  1.2955  0.4870 -0.3557
   28MOL   H23711091   4.175   1.982   0.371  0.5098  2.2067 -0.1957
   28MOL   H23811092   4.317   1.858   0.057  0.9143 -0.9285  2.4962
   28MOL   H23911093   4.372   1.895   7.858 -3.2762 -1.6190  2.5078
   28MOL   H24011094   4.560   1.945   7.700  1.3816  0.1086  1.1094
   28MOL   H24111095   4.622   2.077   7.598 -0.1120 -1.5914 -0.6371
   28MOL   C24211096   4.711   2.089   7.795  0.4237 -0.0427 -0.4649
   28MOL   C24311097   4.805   1.968   7.781  1.0894  0.1854  0.4020
   28MOL   C24411098   4.882   1.954   7.662  0.7459  0.1523 -0.1286
   28MOL   C24511099   4.964   1.846   7.645 -0.1189 -0.5818  0.0109
   28MOL   C24611100   4.982   1.757   7.752  0.4443 -0.3997 -0.1895
   28MOL   O24711101   5.073   1.655   7.728  0.3284  0.2797  0.6380
   28MOL   C24811102   5.084   1.555   7.823 -0.7914 -0.1738  0.1866
   28MOL   C24911103   4.919   1.775   7.876  0.5308 -0.1195  0.4586
   28MOL   C25011104   4.827   1.881   7.887 -0.2537  0.0113 -0.0613
   28MOL   C25111105   4.789   2.220   7.746  1.3409  0.4080  0.6593
   28MOL   H25211106   4.669   2.109   7.894 -0.3789 -0.8981 -0.6198
   28MOL   H25311107   4.882   2.027   7.582 -1.3110 -1.7827 -1.9682
   28MOL   H25411108   5.017   1.829   7.552  0.4680  1.4500 -0.0576
   28MOL   H25511109   5.138   1.586   7.913  0.3810  0.9563 -0.8856
   28MOL   H25611110   4.984   1.518   7.842 -0.6369 -0.3169  0.7416
   28MOL   H25711111   5.147   1.474   7.786  1.0030  0.1168  2.4446
   28MOL   H25811112   4.933   1.709   7.960  0.2818 -0.8092 -0.0306
   28MOL   H25911113   4.780   1.895   7.983 -0.6297 -0.9541 -0.1051
   28MOL   H26011114   4.707   2.293   7.745  1.2788  0.3369 -1.8970
   28MOL   H26111115   4.804   2.217   7.638 -1.7174 -0.8899  0.2193
   28MOL   C26211116   4.913   2.267   7.831 -0.6299 -0.2203  0.2068
   28MOL   C26311117   4.898   2.250   7.982 -0.4070  0.0881 -0.3490
   28MOL   C26411118   4.791   2.312   0.008 -0.2299  0.3917 -0.0084
   28MOL   C26511119   4.780   2.305   0.145  0.5392  1.0728  0.0051
   28MOL   C26611120   4.879   2.245   0.229 -0.3283  0.8815  0.0742
   28MOL   O26711121   4.851   2.246   0.371 -0.1655  0.1860 -0.0570
   28MOL   C26811122   4.938   2.175   0.445 -0.3451 -0.5203  0.8232
   28MOL   C26911123   4.987   2.186   0.165  0.2637  0.0879  0.5125
   28MOL   C27011124   4.995   2.184   0.024  0.4127 -0.5187  0.8185
   28MOL   C27111125   4.946   2.414   7.784  0.6234  0.4234  0.5343
   28MOL   H27211126   4.998   2.210   7.797 -0.7402  1.2159 -2.5959
   28MOL   H27311127   4.709   2.356   7.993 -0.6548  0.8246  0.9511
   28MOL   H27411128   4.692   2.359   0.179  0.9790  1.3468  0.7246
   28MOL   H27511129   4.923   2.068   0.428 -0.9144 -0.4244  0.7157
   28MOL   H27611130   4.928   2.188   0.553 -0.2839  0.4854  0.7062
   28MOL   H27711131   5.041   2.207   0.429 -0.4326 -0.6926 -0.1351
   28MOL   H27811132   5.074   2.159   0.223  1.4019 -0.3005 -1.3231
   28MOL   H27911133   5.066   2.128   8.004  3.3915  1.9368  1.8886
   28MOL   H28011134   4.946   2.417   7.675  0.0852 -2.0249  0.4244
   28MOL   H28111135   4.857   2.470   7.810 -0.3782 -0.9371  0.0829
   28MOL   C28211136   5.069   2.491   7.846 -0.2263  0.5271  0.0195
   28MOL   C28311137   5.051   2.635   7.828 -0.7118  0.8774 -0.5387
   28MOL   C28411138   5.011   2.709   7.941 -0.1901  0.3317 -0.0481
   28MOL   C28511139   4.987   2.846   7.934  0.2219 -0.3274  0.1262
   28MOL   C28611140   5.025   2.917   7.813  0.0261  0.8830  0.7135
   28MOL   O28711141   5.035   3.050   7.801  0.1507 -0.0936  0.5285
   28MOL   C28811142   4.989   3.129   7.918 -0.7131  0.1395  0.6171
   28MOL   C28911143   5.054   2.842   7.696 -0.3583 -0.1683 -0.1258
   28MOL   C29011144   5.065   2.704   7.704  0.5302  0.4505  0.2171
   28MOL   C29111145   5.206   2.443   7.777 -0.1908  0.2102 -0.6872
   28MOL   H29211146   5.079   2.467   7.952  2.3495 -0.7905 -0.4651
   28MOL   H29311147   4.983   2.657   8.031  0.7959 -1.8297 -0.9320
   28MOL   H29411148   4.931   2.891   8.015 -0.1500 -0.2590 -0.1633
   28MOL   H29511149   4.985   3.237   7.902  0.8986  0.0476 -0.4764
   28MOL   H29611150   4.883   3.116   7.941 -0.8502 -1.3481 -0.8042
   28MOL   H29711151   5.041   3.104   8.010 -1.8450  0.0772  1.2500
   28MOL   H29811152   5.082   2.901   7.610  1.4749  0.3171  0.7701
   28MOL   H29911153   5.075   2.655   7.608  0.1321 -0.0086  0.4051
   28MOL   H30011154   5.207   2.425   7.669  2.1371 -0.1099 -0.6414
   28MOL   H30111155   5.278   2.525   7.770  0.1688 -0.0621 -0.1572
   28MOL   C30211156   5.285   2.325   7.840 -0.1859 -0.1187 -0.0298
   28MOL   C30311157   5.395   2.280   7.743  0.0319  0.9254  0.7400
   28MOL   C30411158   5.517   2.354   7.718 -0.0275 -0.2513 -0.0447
   28MOL   C30511159   5.610   2.309   7.623 -0.2748  0.6550 -0.0731
   28MOL   C30611160   5.592   2.182   7.561 -0.5147  0.1626 -0.2755
   28MOL   O30711161   5.690   2.137   7.478 -0.4939 -0.0266 -0.3944
   28MOL   C30811162   5.696   1.998   7.441 -0.4465 -0.1798 -0.2867
   28MOL   C30911163   5.474   2.112   7.585 -0.4916 -0.2659  0.0705
   28MOL   C31011164   5.370   2.163   7.662 -0.3581 -0.2029 -0.4890
   28MOL   C31111165   5.347   2.372   7.974  0.0833  0.2427 -0.2753
   28MOL   H31211166   5.216   2.240   7.844  0.7675 -0.8928  0.0322
   28MOL   H31311167   5.531   2.442   7.779 -2.1790  0.1154 -0.0117
   28MOL   H31411168   5.695   2.374   7.608  1.8090 -1.1512  3.3564
   28MOL   H31511169   5.619   1.971   7.369 -0.3834 -0.1738 -0.3560
   28MOL   H31611170   5.675   1.942   7.532 -0.4684  1.6862  0.8748
   28MOL   H31711171   5.786   1.960   7.394 -0.3646 -0.3717  0.0201
   28MOL   H31811172   5.457   2.018   7.536 -1.4420 -0.0432 -0.0404
   28MOL   H31911173   5.280   2.104   7.676 -1.7132  2.2054  1.3623
   28MOL   H32011174   5.278   2.441   8.023 -0.4711 -1.5341  1.5127
   28MOL   H32111175   5.436   2.435   7.966 -0.3217  1.0056  0.9497
   28MOL   C32211176   5.358   2.264   0.041  0.0278 -0.5109 -0.0242
   28MOL   C32311177   5.423   2.319   0.172  0.3620  0.2109  0.2861
   28MOL   C32411178   5.538   2.394   0.171  0.0005 -0.1935  0.6681
   28MOL   C32511179   5.595   2.460   0.278  0.0722 -0.2451 -0.0012
   28MOL   C32611180   5.539   2.429   0.406 -0.5060  0.2105 -0.7947
   28MOL   O32711181   5.599   2.474   0.523  0.3233  0.5866  0.2217
   28MOL   C32811182   5.739   2.516   0.512  0.8572  0.1303 -0.3227
   28MOL   C32911183   5.435   2.341   0.415 -0.0204 -0.5761 -0.6456
   28MOL   C33011184   5.370   2.294   0.298 -0.5680 -0.4651 -0.2790
   28MOL   C33111185   5.430   2.131   8.036 -0.4095  0.3117  0.0644
   28MOL   H33211186   5.253   2.256   0.070 -0.9678  0.6146 -3.1284
   28MOL   H33311187   5.578   2.415   0.073 -0.0380  0.1342  0.7216
   28MOL   H33411188   5.677   2.529   0.269 -1.3435  1.3041 -1.3345
   28MOL   H33511189   5.774   2.533   0.613 -1.6458  0.5550  0.5217
   28MOL   H33611190   5.747   2.616   0.469 -0.2208 -0.2138 -1.3780
   28MOL   H33711191   5.807   2.450   0.458 -1.1311 -0.0339 -2.7095
   28MOL   H33811192   5.381   2.327   0.508  0.5995  1.2967  0.0175
   28MOL   H33911193   5.284   2.230   0.300 -0.6263 -0.3935 -0.4464
   28MOL   H34011194   5.391   2.091   7.942  0.1170 -2.2158  0.8790
   28MOL   H34111195   5.532   2.156   8.008 -0.1007  0.9051  1.6734
   28MOL   C34211196   5.442   2.021   0.096  0.5888 -0.1813  0.0040
   28MOL   C34311197   5.561   1.940   0.072  0.4244  0.8179  0.7164
   28MOL   C34411198   5.670   1.938   0.163 -0.1925  0.6532  0.4106
   28MOL   C34511199   5.783   1.862   0.138 -0.6107 -0.6668  0.4271
   28MOL   C34611200   5.794   1.791   0.016 -0.4281  0.0456  0.4840
   28MOL   O34711201   5.900   1.704   0.001  0.4604 -0.1999  0.0746
   28MOL   C34811202   5.890   1.593   7.954  0.6158  0.1640 -0.0609
   28MOL   C34911203   5.692   1.797   7.962  0.3518 -0.5944 -0.4666
   28MOL   C35011204   5.573   1.872   7.987  0.7363  0.1158 -0.1804
   28MOL   C35111205   5.304   1.953   0.109 -0.4178  0.5195 -0.0643
   28MOL   H35211206   5.465   2.067   0.192  1.4736 -2.7112  1.0612
   28MOL   H35311207   5.673   1.995   0.254 -1.7829  0.6645  0.4799
   28MOL   H35411208   5.862   1.860   0.211  0.1114  1.8381 -0.2484
   28MOL   H35511209   5.871   1.616   7.849  2.0779 -0.2878 -0.4364
   28MOL   H35611210   5.991   1.553   7.964  0.9448  0.8620 -0.5407
   28MOL   H35711211   5.819   1.523   7.997 -1.8933  2.2621 -0.6469
   28MOL   H35811212   5.702   1.746   7.867 -3.3429 -0.6758 -0.8546
   28MOL   H35911213   5.493   1.869   7.915 -1.3070 -2.6773  2.0745
   28MOL   H36011214   5.225   2.029   0.114  0.1432  1.0268  1.1241
   28MOL   H36111215   5.286   1.909   0.010 -1.2135  1.8192 -0.5215
   28MOL   C36211216   5.291   1.842   0.218 -0.1523 -0.1364 -0.5505
   28MOL   C36311217   5.187   1.747   0.179  0.1689  0.8528 -0.7456
   28MOL   C36411218   5.235   1.617   0.157  0.2175  0.1538  0.3409
   28MOL   C36511219   5.141   1.511   0.152 -0.2496 -0.4923  0.2235
   28MOL   C36611220   5.002   1.541   0.163  0.0891 -0.7180  0.0088
   28MOL   O36711221   4.906   1.450   0.166 -0.2540  0.0986  0.2713
   28MOL   C36811222   4.933   1.320   0.215  0.3685  0.1700  0.0630
   28MOL   C36911223   4.962   1.674   0.156 -0.0106 -0.0513  0.6161
   28MOL   C37011224   5.053   1.783   0.167 -0.1214 -0.1914  0.2766
   28MOL   C37111225   5.250   1.909   0.350  0.0216 -0.0878  0.2773
   28MOL   H37211226   5.388   1.800   0.243 -0.3557 -0.0290  0.4148
   28MOL   H37311227   5.339   1.588   0.154 -0.0165 -0.7254  0.6021
   28MOL   H37411228   5.168   1.408   0.139  0.0130 -0.1794 -1.8453
   28MOL   H37511229   4.865   1.244   0.175 -0.2334  1.1301 -0.7427
   28MOL   H37611230   5.035   1.284   0.225  0.1444 -0.3970  0.3548
   28MOL   H37711231   4.908   1.323   0.321  0.0530 -1.6391  0.0580
   28MOL   H37811232   4.855   1.684   0.140 -0.2480 -3.7208 -0.6833
   28MOL   H37911233   5.012   1.882   0.163 -1.2402 -0.6367  0.5404
   28MOL   H38011234   5.329   1.981   0.371  0.5561 -0.1056 -1.5954
   28MOL   H38111235   5.165   1.975   0.336 -1.0251 -1.1928  1.3224
   28MOL   C38211236   5.229   1.827   0.480 -0.5623  0.6488 -0.7464
   28MOL   C38311237   5.162   1.912   0.582  0.2106  0.2381 -0.4809
   28MOL   C38411238   5.223   2.032   0.627  0.4324 -0.0425 -0.1667
   28MOL   C38511239   5.165   2.097   0.737  0.5407 -0.1326 -0.0812
   28MOL   C38611240   5.057   2.051   0.809  0.8143 -0.0735 -1.2045
   28MOL   O38711241   5.005   2.135   0.908  0.2837  0.5039 -0.4173
   28MOL   C38811242   4.879   2.120   0.973 -0.3326 -0.1374  0.1870
   28MOL   C38911243   4.995   1.935   0.761 -0.3220  1.2495 -0.1943
   28MOL   C39011244   5.050   1.867   0.651  0.2546  0.2806  0.0327
   28MOL   C39111245   5.363   1.776   0.540 -1.0732  0.2626 -0.2266
   28MOL   H39211246   5.165   1.743   0.457 -1.2817  0.8986  0.3229
   28MOL   H39311247   5.305   2.067   0.566  1.6242 -2.2386  0.1212
   28MOL   H39411248   5.200   2.195   0.767 -0.0525 -0.0724  0.4377
   28MOL   H39511249   4.853   2.218   1.012  2.0412  0.8781 -0.7226
   28MOL   H39611250   4.880   2.044   1.052 -0.1763  0.3151  0.6164
   28MOL   H39711251   4.799   2.103   0.900 -1.4191 -1.4957  1.6603
   28MOL   H39811252   4.901   1.898   0.798  1.4416 -1.9173  1.3225
   28MOL   H39911253   5.003   1.774   0.622 -0.3621  0.8937 -0.9813
   28MOL   H40011254   5.410   1.706   0.472  0.5456  0.1260  0.9893
   28MOL   H40111255   5.331   1.718   0.627 -1.5361  0.1796 -0.4531
   28MOL   H40211256   5.431   1.857   0.564 -0.3157 -0.5489  0.4270
   29MOL     C111257   4.248   7.686   6.614  0.1327 -0.0384 -0.2393
   29MOL     C211258   4.314   7.662   6.750  0.3311 -0.2804 -0.7308
   29MOL     C311259   4.265   7.558   6.831 -0.3829  0.1093  0.0731
   29MOL     C411260   4.335   7.522   6.948  0.2044 -0.1154  0.7689
   29MOL     C511261   4.438   7.607   6.996 -0.4574 -0.1344  0.4849
   29MOL     O611262   4.493   7.570   7.113 -0.0200 -0.0378 -0.2162
   29MOL     C711263   4.593   7.653   7.168  0.2601  0.5111 -0.4789
   29MOL     C811264   4.486   7.712   6.913 -0.4627  0.4231  0.0945
   29MOL     C911265   4.427   7.731   6.788 -0.8490 -0.5490 -0.3323
   29MOL    C1011266   4.338   7.661   6.487  0.3921  0.4564  0.4664
   29MOL    H1111267   4.204   7.785   6.625  1.2367  0.4237  0.1040
   29MOL    H1211268   4.173   7.505   6.810 -0.8857  0.7923  0.5139
   29MOL    H1311269   4.306   7.428   6.993  0.6073 -0.6920 -0.1543
   29MOL    H1411270   4.688   7.639   7.117  0.7993 -1.6049  1.0600
   29MOL    H1511271   4.582   7.760   7.187 -1.5928  0.1768  0.4430
   29MOL    H1611272   4.626   7.604   7.259 -0.0945  0.4375 -0.3876
   29MOL    H1711273   4.579   7.761   6.938 -0.4088 -0.2061  1.1393
   29MOL    H1811274   4.470   7.800   6.716  1.9107 -0.6468  1.1333
   29MOL    H1911275   4.429   7.719   6.497  0.8957 -0.2687  0.1236
   29MOL    H2011276   4.365   7.557   6.470  1.8294  0.5994  1.8295
   29MOL    H2111277   4.163   7.619   6.601 -0.0838  0.1835  0.0246
   29MOL    C2211278   4.261   7.706   6.353  0.4228  0.0707 -0.1235
   29MOL    C2311279   4.206   7.846   6.359  0.5498 -0.1015 -0.3088
   29MOL    C2411280   4.076   7.870   6.311  0.7088  0.1166 -0.3353
   29MOL    C2511281   4.025   8.005   6.301 -0.2766 -0.0718  0.0845
   29MOL    C2611282   4.115   0.074   6.326  0.1783  0.0609  0.2426
   29MOL    O2711283   4.065   0.202   6.309  0.0094 -0.5049 -0.2181
   29MOL    C2811284   4.026   0.240   6.175  0.1755  0.1349  0.0573
   29MOL    C2911285   4.244   0.047   6.375  0.0639 -0.5392  0.3747
   29MOL    C3011286   4.286   7.957   6.396  0.6912 -0.0772 -0.0946
   29MOL    C3111287   4.355   7.696   6.225  0.0112  0.2848 -0.2376
   29MOL    H3211288   4.180   7.635   6.343 -1.7861  2.4387  0.3658
   29MOL    H3311289   4.002   7.796   6.285 -0.6117  1.8250 -1.5314
   29MOL    H3411290   3.931   8.024   6.253 -0.4457 -3.2670 -0.9851
   29MOL    H3511291   4.074   0.187   6.093 -1.6799 -0.9207 -0.3846
   29MOL    H3611292   4.054   0.346   6.175  1.8639 -0.3066 -0.8594
   29MOL    H3711293   3.918   0.230   6.165  0.0477  0.5429  0.9726
   29MOL    H3811294   4.312   0.124   6.408  0.0385 -0.1336 -0.5196
   29MOL    H3911295   4.391   7.947   6.420  0.8522  1.1636 -0.2298
   29MOL    H4011296   4.285   7.699   6.141  1.8128 -0.2215 -1.7763
   29MOL    H4111297   4.413   7.787   6.211 -1.6552  1.0794 -2.2401
   29MOL    C4211298   4.456   7.579   6.206  0.2245  0.0129  0.5792
   29MOL    C4311299   4.549   7.595   6.085 -0.3057 -0.6595  0.4546
   29MOL    C4411300   4.491   7.600   5.953 -0.3920 -0.8552 -0.1175
   29MOL    C4511301   4.575   7.609   5.840  0.4724 -0.3297 -0.0647
   29MOL    C4611302   4.717   7.624   5.850  0.7452 -0.2946  0.2522
   29MOL    O4711303   4.803   7.641   5.741 -0.4871  0.3196 -0.4402
   29MOL    C4811304   4.751   7.662   5.615 -0.1893 -0.3645  0.5416
   29MOL    C4911305   4.771   7.632   5.979  0.5306 -0.0400 -0.7855
   29MOL    C5011306   4.690   7.604   6.093 -0.4940 -0.4486 -0.1543
   29MOL    C5111307   4.387   7.446   6.219 -0.4490 -0.1103  0.2656
   29MOL    H5211308   4.524   7.594   6.290  0.6547  0.2052  0.2069
   29MOL    H5311309   4.384   7.585   5.942 -0.9544  2.1791  0.7116
   29MOL    H5411310   4.530   7.607   5.742  0.3640  1.9424 -0.0870
   29MOL    H5511311   4.678   7.743   5.615 -0.3158 -0.4790  0.8471
   29MOL    H5611312   4.830   7.686   5.544 -0.1139 -0.5599  0.5612
   29MOL    H5711313   4.695   7.578   5.574  1.6395 -0.4168 -1.9785
   29MOL    H5811314   4.878   7.632   5.994  0.2622 -0.4679  1.2102
   29MOL    H5911315   4.738   7.592   6.189  2.0435  1.1991 -1.1807
   29MOL    H6011316   4.328   7.426   6.129  0.7574 -1.8847 -0.1598
   29MOL    H6111317   4.305   7.440   6.291 -1.4182  2.0409 -0.6264
   29MOL    C6211318   4.475   7.328   6.231 -0.4051  0.2412 -0.7342
   29MOL    C6311319   4.398   7.199   6.199 -0.0293 -0.5689  0.3121
   29MOL    C6411320   4.439   7.125   6.088 -0.4664  0.3338 -0.0156
   29MOL    C6511321   4.358   7.018   6.048  0.5674  0.5779 -0.3946
   29MOL    C6611322   4.230   6.994   6.108  0.3647  0.4109  0.5902
   29MOL    O6711323   4.135   6.905   6.053 -0.1896 -0.0571  0.2755
   29MOL    C6811324   4.193   6.798   5.980  0.2627 -0.7950  0.0810
   29MOL    C6911325   4.196   7.057   6.224 -0.1138 -0.4993 -0.2396
   29MOL    C7011326   4.276   7.167   6.266 -0.9470 -0.7366  0.3860
   29MOL    C7111327   4.532   7.317   6.376 -0.5584  0.5696  0.1092
   29MOL    H7211328   4.553   7.350   6.158 -1.3628  1.1195 -1.5238
   29MOL    H7311329   4.538   7.137   6.045 -0.4359  1.0914  0.2632
   29MOL    H7411330   4.384   6.958   5.962  1.3892 -0.7676  0.7553
   29MOL    H7511331   4.277   6.753   6.032  1.9513  1.7818 -0.3113
   29MOL    H7611332   4.219   6.826   5.878 -0.8431  2.9393  0.7271
   29MOL    H7711333   4.115   6.725   5.958  1.0940 -1.5571 -0.3475
   29MOL    H7811334   4.113   7.026   6.287 -1.0107  0.4008 -0.9635
   29MOL    H7911335   4.243   7.232   6.346  0.9870 -0.4885  0.9967
   29MOL    H8011336   4.574   7.413   6.406  2.1101 -0.5751  0.1450
   29MOL    H8111337   4.449   7.309   6.446 -0.0348  1.7579  0.8756
   29MOL    C8211338   4.646   7.209   6.400 -0.1830  0.1332  0.0921
   29MOL    C8311339   4.765   7.215   6.305 -0.1028  0.1915 -0.6277
   29MOL    C8411340   4.789   7.098   6.226 -0.1428 -0.1857 -1.0082
   29MOL    C8511341   4.895   7.090   6.146 -0.1569 -0.7459  0.1173
   29MOL    C8611342   4.985   7.202   6.125  0.3075  0.3965  0.4135
   29MOL    O8711343   5.088   7.198   6.042 -0.0839 -0.0102 -0.0251
   29MOL    C8811344   5.139   7.069   6.010 -0.1036  0.0290  0.0353
   29MOL    C8911345   4.958   7.323   6.194  0.7859  0.0821  0.0977
   29MOL    C9011346   4.854   7.322   6.290 -0.4742  0.0341  0.3111
   29MOL    C9111347   4.699   7.214   6.545  0.2120  0.8562 -0.3026
   29MOL    H9211348   4.584   7.120   6.388 -2.4433  1.5674  0.7032
   29MOL    H9311349   4.719   7.016   6.226 -0.5335  0.1460 -0.7480
   29MOL    H9411350   4.901   7.004   6.081 -1.9491  0.0824 -1.1769
   29MOL    H9511351   5.081   7.032   5.925  1.1519  1.4791 -1.4989
   29MOL    H9611352   5.132   6.989   6.083 -1.4208  0.2676  0.1731
   29MOL    H9711353   5.244   7.080   5.983 -0.0169  0.2507  0.4594
   29MOL    H9811354   5.021   7.409   6.180  0.3135  0.2950 -0.8455
   29MOL    H9911355   4.845   7.415   6.345 -2.8570  0.7332 -1.1698
   29MOL   H10011356   4.757   7.306   6.554 -0.5199  1.1238  1.9859
   29MOL   H10111357   4.608   7.222   6.604 -0.2301 -1.6297 -0.5916
   29MOL   C10211358   4.784   7.088   6.582 -0.2679  0.0461 -0.5943
   29MOL   C10311359   4.873   7.111   6.703  0.9741 -0.5403 -0.3733
   29MOL   C10411360   4.985   7.202   6.698  0.6988  1.0297  0.3807
   29MOL   C10511361   5.064   7.235   6.809  0.4546 -0.5494  0.1827
   29MOL   C10611362   5.028   7.180   6.934 -0.3215 -0.4824 -0.9639
   29MOL   O10711363   5.080   7.225   7.049  0.5254 -0.2263 -0.1709
   29MOL   C10811364   5.217   7.252   7.035  0.2156 -0.3623  0.4229
   29MOL   C10911365   4.928   7.085   6.941 -0.1187 -0.9066 -0.5948
   29MOL   C11011366   4.845   7.055   6.826 -1.0051  0.6903 -0.0583
   29MOL   C11111367   4.696   6.956   6.600 -0.2498 -0.2665  0.5327
   29MOL   H11211368   4.857   7.060   6.507 -0.2842  0.6834 -0.8512
   29MOL   H11311369   5.000   7.264   6.610 -0.9828  1.5098  0.3962
   29MOL   H11411370   5.147   7.304   6.799 -0.0693  0.0984  0.2621
   29MOL   H11511371   5.251   7.217   7.132 -0.5836 -3.3222 -0.3361
   29MOL   H11611372   5.268   7.183   6.968  0.7073  1.9763 -1.7132
   29MOL   H11711373   5.240   7.358   7.025 -1.2875 -0.1732 -1.3945
   29MOL   H11811374   4.903   7.033   7.032  0.2217 -1.5882 -0.8866
   29MOL   H11911375   4.759   6.992   6.842 -1.0332  1.1121  1.6203
   29MOL   H12011376   4.631   6.975   6.685  0.9187  0.2127  1.3241
   29MOL   H12111377   4.628   6.945   6.515 -0.5614  0.3390  0.7064
   29MOL   C12211378   4.783   6.830   6.607 -0.6433  0.6065 -0.1000
   29MOL   C12311379   4.821   6.786   6.461  0.1300 -0.5890 -0.3843
   29MOL   C12411380   4.725   6.742   6.368 -0.2785 -0.8690  0.0268
   29MOL   C12511381   4.760   6.724   6.233 -0.6446  0.2574  0.1074
   29MOL   C12611382   4.891   6.737   6.189  0.3029 -0.1675  0.0049
   29MOL   O12711383   4.916   6.723   6.057  0.3126 -0.2558  0.0127
   29MOL   C12811384   5.045   6.681   6.013 -0.2619  0.5868  0.6630
   29MOL   C12911385   4.994   6.761   6.287  0.0904 -0.1400 -0.5273
   29MOL   C13011386   4.958   6.799   6.418  1.0568 -0.2481  0.5392
   29MOL   C13111387   4.713   6.722   6.687  0.4127 -0.3925  0.4163
   29MOL   H13211388   4.880   6.846   6.655 -1.8258  2.5854  1.7169
   29MOL   H13311389   4.624   6.728   6.404 -0.7553 -1.1125 -1.3799
   29MOL   H13411390   4.686   6.705   6.156  0.8443  1.7460 -1.7458
   29MOL   H13511391   5.120   6.760   6.014 -0.8542  1.1387  2.1505
   29MOL   H13611392   5.079   6.594   6.070  0.1295  0.7355  0.6566
   29MOL   H13711393   5.045   6.639   5.912  1.3201  0.8776  0.5224
   29MOL   H13811394   5.098   6.769   6.262  0.0860  1.0487 -0.1938
   29MOL   H13911395   5.041   6.815   6.486  0.6137  1.4829  0.6788
   29MOL   H14011396   4.621   6.686   6.639  1.8381  0.0813 -2.7779
   29MOL   H14111397   4.683   6.773   6.779 -2.2686 -0.4943 -0.3582
   29MOL   C14211398   4.796   6.600   6.743 -0.5340  0.2298  0.0287
   29MOL   C14311399   4.747   6.549   6.885 -0.5506 -0.2062  0.0872
   29MOL   C14411400   4.783   6.612   7.007  0.4146  0.9691  0.3553
   29MOL   C14511401   4.716   6.586   7.127 -0.5838  0.3998  0.4027
   29MOL   C14611402   4.621   6.475   7.137  0.3120 -0.8299  0.6449
   29MOL   O14711403   4.553   6.445   7.249  0.1450 -0.0543 -0.0839
   29MOL   C14811404   4.564   6.540   7.357  0.1268  0.3976 -0.2430
   29MOL   C14911405   4.600   6.403   7.017  0.8247 -0.1280 -0.1003
   29MOL   C15011406   4.651   6.448   6.891  0.0324  0.2182  0.6142
   29MOL   C15111407   4.836   6.487   6.642  0.0228  0.5220  0.4931
   29MOL   H15211408   4.892   6.628   6.787 -0.0596 -2.8043  1.0064
   29MOL   H15311409   4.853   6.695   7.010  1.7427 -0.0716 -0.8438
   29MOL   H15411410   4.746   6.648   7.211  1.1863 -0.7866  0.6792
   29MOL   H15511411   4.523   6.641   7.344 -2.1282 -0.4763 -0.0961
   29MOL   H15611412   4.508   6.500   7.442 -1.1209  1.6492 -0.4601
   29MOL   H15711413   4.669   6.543   7.384 -0.0399  0.1293  0.4566
   29MOL   H15811414   4.533   6.318   7.019 -2.3883  2.2238 -1.5453
   29MOL   H15911415   4.616   6.403   6.799 -4.0541  0.4041  1.9679
   29MOL   H16011416   4.898   6.530   6.564  1.0991  0.6768  1.4168
   29MOL   H16111417   4.740   6.451   6.603  0.0794 -0.8333  1.5618
   29MOL   C16211418   4.906   6.361   6.693  0.8723  0.6682  1.0321
   29MOL   C16311419   5.051   6.389   6.723 -0.5226  0.1723  0.2402
   29MOL   C16411420   5.107   6.332   6.840 -0.1582 -0.5394 -0.1464
   29MOL   C16511421   5.244   6.349   6.877  0.2556 -0.8626  0.3815
   29MOL   C16611422   5.326   6.415   6.781  0.4467 -0.5379  0.6804
   29MOL   O16711423   5.461   6.427   6.799  0.4263 -0.0946 -0.2002
   29MOL   C16811424   5.490   6.505   6.914 -0.1604  0.3295  0.6030
   29MOL   C16911425   5.275   6.477   6.667 -0.3471  0.6468 -0.6874
   29MOL   C17011426   5.134   6.460   6.629 -0.6273  0.0479 -0.4178
   29MOL   C17111427   4.904   6.238   6.600  0.2211 -0.1935  0.1575
   29MOL   H17211428   4.858   6.319   6.782 -0.8013 -0.5712 -0.4037
   29MOL   H17311429   5.051   6.276   6.913  0.4214  1.0355  1.5567
   29MOL   H17411430   5.285   6.304   6.966  1.9890  1.7124  0.9410
   29MOL   H17511431   5.433   6.597   6.928  2.1343  1.5320  2.4578
   29MOL   H17611432   5.595   6.534   6.914 -0.2609  0.7064 -0.5563
   29MOL   H17711433   5.466   6.446   7.003 -1.6865 -1.9638 -1.2730
   29MOL   H17811434   5.334   6.541   6.603  0.3978 -0.3746 -1.0390
   29MOL   H17911435   5.094   6.509   6.542 -2.2205  2.6945  1.7190
   29MOL   H18011436   5.000   6.188   6.616  0.6668  0.9086  0.9468
   29MOL   H18111437   4.908   6.277   6.499 -0.6758  0.3905  0.3504
   29MOL   C18211438   4.787   6.137   6.608 -0.2336  0.1981 -0.8362
   29MOL   C18311439   4.796   6.064   6.738 -0.7212  0.7390 -0.0003
   29MOL   C18411440   4.729   6.106   6.850 -0.1824 -0.6102 -0.1811
   29MOL   C18511441   4.730   6.033   6.975  0.8924  0.2472  0.4865
   29MOL   C18611442   4.802   5.913   6.982 -0.3908 -0.2832  0.4577
   29MOL   O18711443   4.811   5.832   7.089  0.3968  0.0930  0.3579
   29MOL   C18811444   4.787   5.887   7.223 -0.6510 -0.7748  0.1835
   29MOL   C18911445   4.886   5.874   6.872  0.0450  0.0184  0.2856
   29MOL   C19011446   4.880   5.948   6.750 -0.3774 -0.0411  0.4611
   29MOL   C19111447   4.771   6.045   6.485  0.9455  0.1236  0.7461
   29MOL   H19211448   4.697   6.198   6.616  0.3664  0.9527  0.2792
   29MOL   H19311449   4.672   6.197   6.841 -2.1027 -1.7273  0.4266
   29MOL   H19411450   4.661   6.051   7.056  1.2641 -0.5174  0.9754
   29MOL   H19511451   4.841   5.979   7.244 -1.5003 -0.6454  1.9337
   29MOL   H19611452   4.790   5.829   7.315 -1.6222 -0.9644  0.1022
   29MOL   H19711453   4.680   5.908   7.229 -0.0768  1.7307  2.6472
   29MOL   H19811454   4.954   5.791   6.879  1.3657  1.2095  2.0987
   29MOL   H19911455   4.934   5.902   6.668 -3.1835  0.0559 -1.5324
   29MOL   H20011456   4.873   6.007   6.470  0.5602  0.0601 -1.9805
   29MOL   H20111457   4.697   5.966   6.499  1.0936 -0.2827 -0.5998
   29MOL   C20211458   4.747   6.112   6.351 -0.1022 -0.5379  0.3881
   29MOL   C20311459   4.621   6.201   6.357 -0.3195 -0.0674  0.0881
   29MOL   C20411460   4.623   6.344   6.345 -0.5091  0.4723 -0.4037
   29MOL   C20511461   4.507   6.419   6.360 -0.2749  0.1111  0.5177
   29MOL   C20611462   4.384   6.363   6.385 -0.1274  0.6842  0.4292
   29MOL   O20711463   4.277   6.443   6.408  0.0905 -0.3714  0.1070
   29MOL   C20811464   4.164   6.394   6.479  0.0242  0.6393 -0.5680
   29MOL   C20911465   4.381   6.223   6.409  0.3090  0.3460 -0.3701
   29MOL   C21011466   4.498   6.146   6.396  0.2312  0.0063 -1.1726
   29MOL   C21111467   4.727   6.001   6.244 -0.1608  0.1782  0.1073
   29MOL   H21211468   4.830   6.177   6.322 -0.2319 -0.8212 -0.6586
   29MOL   H21311469   4.712   6.403   6.330 -1.8148  1.9378 -2.4909
   29MOL   H21411470   4.501   6.527   6.351 -0.5440  0.1177  0.7606
   29MOL   H21511471   4.190   6.379   6.584  0.4581  2.1492 -0.4442
   29MOL   H21611472   4.088   6.472   6.473 -0.6314  0.0211 -0.2567
   29MOL   H21711473   4.124   6.304   6.433  2.3120 -0.7204  0.0184
   29MOL   H21811474   4.295   6.175   6.454 -1.8508  2.5634 -2.0249
   29MOL   H21911475   4.494   6.044   6.432 -3.2999  0.5051  0.0101
   29MOL   H22011476   4.635   5.947   6.265 -1.3350  1.8329 -0.7527
   29MOL   H22111477   4.806   5.928   6.264  0.4109  0.9342  0.5968
   29MOL   C22211478   4.733   6.035   6.093 -0.1113 -0.4926  0.0545
   29MOL   C22311479   4.857   6.117   6.054  0.2900 -0.0865 -0.6641
   29MOL   C22411480   4.840   6.250   6.008 -0.1597  0.5996  0.2598
   29MOL   C22511481   4.948   6.323   5.954  0.6803 -0.1669  0.0259
   29MOL   C22611482   5.077   6.266   5.961 -0.0425 -0.6586  0.3185
   29MOL   O22711483   5.177   6.349   5.917 -0.3670 -0.0865 -0.1694
   29MOL   C22811484   5.306   6.320   5.948 -0.7641  0.2220  0.5538
   29MOL   C22911485   5.096   6.139   6.019  0.5298  0.8980 -0.1384
   29MOL   C23011486   4.985   6.057   6.064 -0.5724 -0.5630 -0.8258
   29MOL   C23111487   4.695   5.916   6.012 -0.4927 -0.5438 -0.0540
   29MOL   H23211488   4.650   6.106   6.085 -0.8741 -1.4330 -0.4767
   29MOL   H23311489   4.740   6.286   5.990 -0.4294 -1.0724 -1.7940
   29MOL   H23411490   4.934   6.421   5.911 -1.1694 -0.5263 -0.2540
   29MOL   H23511491   5.361   6.413   5.933 -0.5181 -0.2697 -1.7635
   29MOL   H23611492   5.323   6.289   6.051  0.0615 -1.7500 -0.1492
   29MOL   H23711493   5.342   6.243   5.879  0.1408  0.7649  0.4120
   29MOL   H23811494   5.193   6.094   6.035  0.6220  0.5292 -1.7051
   29MOL   H23911495   5.009   5.956   6.095 -2.5609 -0.5817  0.7161
   29MOL   H24011496   4.739   5.825   6.052  0.2175  0.5779  1.8223
   29MOL   H24111497   4.587   5.917   6.032 -0.4052 -2.4053  0.5795
   29MOL   C24211498   4.724   5.929   5.857  0.4887 -0.1530  0.5849
   29MOL   C24311499   4.860   5.861   5.831 -0.3109 -0.6224 -0.1702
   29MOL   C24411500   4.877   5.721   5.843  0.0866 -0.2330 -0.4348
   29MOL   C24511501   4.997   5.661   5.801 -0.4338  0.0233 -0.5041
   29MOL   C24611502   5.112   5.747   5.785 -0.0080  0.5496  0.2688
   29MOL   O24711503   5.242   5.700   5.772 -0.9776  0.1254  0.4106
   29MOL   C24811504   5.271   5.566   5.811  0.6102  0.0364  0.5792
   29MOL   C24911505   5.094   5.884   5.766  0.1722 -0.4639 -0.1083
   29MOL   C25011506   4.963   5.940   5.785  0.2148 -0.3818 -0.4792
   29MOL   C25111507   4.622   5.867   5.768 -0.2051  0.1061 -0.2449
   29MOL   H25211508   4.739   6.034   5.829  0.5174 -0.6061 -1.1603
   29MOL   H25311509   4.793   5.657   5.863 -0.0849 -0.4002 -1.6518
   29MOL   H25411510   5.013   5.555   5.815 -0.3258 -0.1148 -1.6324
   29MOL   H25511511   5.247   5.499   5.728  1.4067  0.6976 -0.1924
   29MOL   H25611512   5.378   5.560   5.829  0.8625  0.6301 -0.6795
   29MOL   H25711513   5.216   5.539   5.901  0.2631 -0.1232  0.3216
   29MOL   H25811514   5.181   5.941   5.736 -1.3578  1.2088 -1.4850
   29MOL   H25911515   4.938   6.044   5.771 -1.0665 -0.6759 -0.3925
   29MOL   H26011516   4.599   5.763   5.791  1.9194 -0.2677  0.2108
   29MOL   H26111517   4.669   5.858   5.670 -1.7195 -0.0038 -0.9767
   29MOL   C26211518   4.495   5.946   5.736  0.3562  0.0289 -0.2597
   29MOL   C26311519   4.402   5.935   5.850  0.0216 -0.1813  0.2434
   29MOL   C26411520   4.367   6.049   5.928 -0.2410  0.0661  0.6881
   29MOL   C26511521   4.268   6.042   6.028 -0.0535 -0.2705 -0.1511
   29MOL   C26611522   4.202   5.918   6.054 -0.0635  0.1951 -0.4994
   29MOL   O26711523   4.111   5.900   6.149  0.4660  0.5766 -0.2507
   29MOL   C26811524   4.108   5.996   6.247  0.0163  0.8475 -0.5218
   29MOL   C26911525   4.239   5.807   5.978  0.0590  0.1471  0.3495
   29MOL   C27011526   4.331   5.813   5.873  0.0915 -0.2891 -0.2114
   29MOL   C27111527   4.435   5.904   5.597 -1.0261  0.3863 -0.1163
   29MOL   H27211528   4.525   6.050   5.736 -1.9917  0.7520 -0.3880
   29MOL   H27311529   4.413   6.145   5.913  0.1034 -0.1657  0.2512
   29MOL   H27411530   4.247   6.134   6.080 -0.4936 -0.9679  0.9178
   29MOL   H27511531   4.070   5.944   6.335  0.0579  0.3062 -0.8198
   29MOL   H27611532   4.052   6.083   6.213  0.2986  0.4148 -2.1489
   29MOL   H27711533   4.210   6.030   6.269  0.2588  0.9762 -1.8171
   29MOL   H27811534   4.183   5.715   5.993  1.9182 -1.4983 -2.2850
   29MOL   H27911535   4.343   5.724   5.814  2.0697  0.9561 -1.7546
   29MOL   H28011536   4.518   5.924   5.529 -0.0767 -1.3757  0.4912
   29MOL   H28111537   4.412   5.797   5.598 -1.9905  0.5932  2.3487
   29MOL   C28211538   4.325   5.993   5.540  0.4465 -0.9754  0.1770
   29MOL   C28311539   4.185   5.938   5.579 -0.2158  0.0284  0.7172
   29MOL   C28411540   4.109   6.014   5.669 -0.1620 -0.6781 -0.0179
   29MOL   C28511541   3.982   5.962   5.712 -0.4341  1.6385 -0.2587
   29MOL   C28611542   3.935   5.839   5.670 -0.0216  1.1006  0.5867
   29MOL   O28711543   3.830   5.775   5.721  0.5657 -0.5093 -0.0169
   29MOL   C28811544   3.764   5.836   5.828  0.1036 -1.0643 -0.1578
   29MOL   C28911545   4.016   5.758   5.573  0.1678 -0.5116  0.4112
   29MOL   C29011546   4.138   5.817   5.521  0.0667 -0.4674  0.7718
   29MOL   C29111547   4.330   5.996   5.386 -0.6116  0.2743  0.1554
   29MOL   H29211548   4.329   6.097   5.570  2.1275 -0.8991 -0.2717
   29MOL   H29311549   4.147   6.104   5.715  1.6483 -1.1103 -0.6182
   29MOL   H29411550   3.934   6.016   5.792 -1.5270  0.1004  0.1486
   29MOL   H29511551   3.733   5.937   5.800  1.6125 -0.8727 -1.1867
   29MOL   H29611552   3.673   5.776   5.836 -0.1516 -0.6082  0.3510
   29MOL   H29711553   3.819   5.831   5.922  1.2453 -0.8533 -0.8021
   29MOL   H29811554   3.970   5.674   5.523 -0.9135 -0.3737  1.1554
   29MOL   H29911555   4.189   5.762   5.443 -1.4194  0.3248 -0.7907
   29MOL   H30011556   4.432   6.032   5.372  0.0690 -1.2369  1.0789
   29MOL   H30111557   4.325   5.890   5.360 -1.3534  0.6002 -1.0382
   29MOL   C30211558   4.228   6.094   5.310 -0.2519 -0.2259 -0.2150
   29MOL   C30311559   4.231   6.228   5.376  0.5561 -0.1857 -0.3808
   29MOL   C30411560   4.107   6.276   5.422  0.1011  0.5900  0.0745
   29MOL   C30511561   4.104   6.399   5.491  0.4069 -0.1342  0.0297
   29MOL   C30611562   4.220   6.474   5.516  0.2606 -0.5005  0.2510
   29MOL   O30711563   4.216   6.605   5.564  0.0533 -0.0018  0.5072
   29MOL   C30811564   4.096   6.654   5.612  0.3171 -0.0562 -0.2294
   29MOL   C30911565   4.341   6.421   5.478 -0.0429 -0.1446 -0.0232
   29MOL   C31011566   4.347   6.302   5.395  0.0061  0.5058 -0.2565
   29MOL   C31111567   4.258   6.095   5.164  0.0785  0.4257  0.0308
   29MOL   H31211568   4.124   6.061   5.317 -0.4961  0.5129 -0.2608
   29MOL   H31311569   4.014   6.222   5.411  1.6458 -1.9999 -0.5442
   29MOL   H31411570   4.012   6.440   5.528 -0.0032 -1.6695  0.7498
   29MOL   H31511571   4.048   6.593   5.689 -0.4803  0.0873 -0.6133
   29MOL   H31611572   4.035   6.661   5.522  0.9912  1.0517 -0.6106
   29MOL   H31711573   4.116   6.752   5.657  0.2842 -0.0155 -0.3022
   29MOL   H31811574   4.434   6.473   5.500 -0.2503 -0.0848  0.7335
   29MOL   H31911575   4.444   6.269   5.361  0.0665 -1.9389  2.1673
   29MOL   H32011576   4.263   5.987   5.147 -1.5486  0.4400 -0.6225
   29MOL   H32111577   4.360   6.127   5.144  0.7698 -1.4903  0.3642
   29MOL   C32211578   4.147   6.150   5.062  0.2922  0.7168  0.3392
   29MOL   C32311579   4.008   6.088   5.089 -0.8500 -0.4007  0.7487
   29MOL   C32411580   3.907   6.176   5.142  0.1605  0.3698  0.7497
   29MOL   C32511581   3.773   6.133   5.142 -0.8885  0.4937 -0.1928
   29MOL   C32611582   3.737   5.998   5.097 -0.2362 -0.2609 -0.2200
   29MOL   O32711583   3.606   5.953   5.089 -0.3445 -0.0516 -0.0939
   29MOL   C32811584   3.504   6.010   5.173  0.2131 -0.2216 -0.1361
   29MOL   C32911585   3.832   5.916   5.047 -0.0519 -0.5629  0.1178
   29MOL   C33011586   3.975   5.953   5.059  0.0594  0.6416  0.1387
   29MOL   C33111587   4.190   6.135   4.914 -0.2648  0.3843  0.1772
   29MOL   H33211588   4.146   6.255   5.092  0.0230  1.1457 -1.1426
   29MOL   H33311589   3.933   6.278   5.164  0.5538  0.6183 -0.8844
   29MOL   H33411590   3.699   6.207   5.169 -2.3100 -1.3890  1.2593
   29MOL   H33511591   3.460   6.097   5.122 -0.4028 -0.1193  0.5595
   29MOL   H33611592   3.537   6.045   5.271 -0.7996 -2.0188  0.8817
   29MOL   H33711593   3.415   5.948   5.182 -0.6365  0.7714 -1.4315
   29MOL   H33811594   3.820   5.815   5.011  0.6760 -0.1799 -1.2687
   29MOL   H33911595   4.063   5.899   5.028  0.5676 -0.1217  2.8031
   29MOL   H34011596   4.270   6.207   4.900 -1.3257  1.5775  0.0839
   29MOL   H34111597   4.230   6.035   4.901 -1.0935 -0.0319  0.7944
   29MOL   C34211598   4.088   6.151   4.801  0.2041 -0.2387  0.0516
   29MOL   C34311599   4.156   6.112   4.667 -0.0546  0.3980 -0.5474
   29MOL   C34411600   4.117   5.998   4.596 -0.5136 -0.4881 -0.0532
   29MOL   C34511601   4.167   5.968   4.468 -0.1534 -0.2195  0.2608
   29MOL   C34611602   4.266   6.050   4.401 -0.6548 -0.1641 -0.7601
   29MOL   O34711603   4.309   6.014   4.275 -0.3412 -0.9141  0.3851
   29MOL   C34811604   4.426   6.079   4.222  0.0511  0.8082 -0.4442
   29MOL   C34911605   4.313   6.156   4.475  0.7981 -0.8021 -0.6898
   29MOL   C35011606   4.261   6.187   4.605  0.4741  0.2416 -0.0317
   29MOL   C35111607   4.016   6.286   4.787 -0.2528  0.6364 -0.3405
   29MOL   H35211608   3.998   6.092   4.822 -1.5146  1.5634 -1.9475
   29MOL   H35311609   4.046   5.936   4.648 -0.8551 -0.2284 -0.2064
   29MOL   H35411610   4.123   5.886   4.415 -1.4122  1.1769 -0.9012
   29MOL   H35511611   4.441   6.039   4.122  0.8906 -2.4528  0.9140
   29MOL   H35611612   4.410   6.187   4.214  1.5046  1.1568  1.0673
   29MOL   H35711613   4.517   6.060   4.279 -1.7998  1.0007  2.6783
   29MOL   H35811614   4.382   6.230   4.438  2.5136 -0.6684  2.5786
   29MOL   H35911615   4.287   6.281   4.651 -0.0419 -0.6757  2.1991
   29MOL   H36011616   3.984   6.329   4.882  0.0766  1.6884 -0.6951
   29MOL   H36111617   4.097   6.355   4.763 -0.5429  1.0458 -0.1515
   29MOL   C36211618   3.902   6.295   4.690 -0.0370  0.1490 -0.0661
   29MOL   C36311619   3.898   6.440   4.636  0.9142 -0.3244  0.8287
   29MOL   C36411620   3.917   6.467   4.496 -0.2741 -0.0449  0.2492
   29MOL   C36511621   3.893   6.596   4.444 -0.9169 -0.4560  0.8375
   29MOL   C36611622   3.875   6.703   4.534 -0.4693  0.2293  0.0524
   29MOL   O36711623   3.863   6.829   4.481 -0.6206  0.1815  0.0254
   29MOL   C36811624   3.761   6.913   4.538 -0.6212  0.3652  0.6208
   29MOL   C36911625   3.859   6.670   4.674  0.2340  0.6601 -0.0268
   29MOL   C37011626   3.867   6.541   4.726 -0.2654  0.0694 -0.1592
   29MOL   C37111627   3.768   6.241   4.749  0.2077 -0.7535  0.1199
   29MOL   H37211628   3.921   6.244   4.595 -0.0056  1.9636 -1.0642
   29MOL   H37311629   3.940   6.386   4.429 -2.3557  0.1723 -0.7669
   29MOL   H37411630   3.915   6.615   4.339  1.0100  1.8595  1.5982
   29MOL   H37511631   3.756   7.005   4.479  0.3813  0.4531  0.6564
   29MOL   H37611632   3.666   6.861   4.535  0.0495 -0.8467  0.0675
   29MOL   H37711633   3.782   6.952   4.637 -2.4568  1.6527  0.5083
   29MOL   H37811634   3.830   6.748   4.742  0.3726 -2.7024  4.0758
   29MOL   H37911635   3.862   6.532   4.834  1.5656  1.8877  0.1039
   29MOL   H38011636   3.779   6.160   4.820 -1.7118 -2.2598 -1.2415
   29MOL   H38111637   3.712   6.312   4.810 -0.6738  0.3802 -1.9313
   29MOL   C38211638   3.676   6.176   4.646 -0.8576  0.1488  0.6458
   29MOL   C38311639   3.534   6.169   4.691  0.2683  0.6014  0.3597
   29MOL   C38411640   3.456   6.282   4.681  0.3626  1.1684 -0.2836
   29MOL   C38511641   3.324   6.280   4.724 -0.1733 -0.1542  0.0719
   29MOL   C38611642   3.275   6.159   4.778  0.1015 -0.5966  0.1208
   29MOL   O38711643   3.145   6.148   4.817  0.3969 -0.0933 -0.0856
   29MOL   C38811644   3.043   6.230   4.761 -0.4001 -0.1775  0.1675
   29MOL   C38911645   3.356   6.043   4.802  0.1097 -0.1979 -1.0401
   29MOL   C39011646   3.484   6.055   4.757 -0.1884 -0.6146  0.4125
   29MOL   C39111647   3.732   6.041   4.606 -0.1430 -0.1949  0.1284
   29MOL   H39211648   3.682   6.241   4.559  2.2403  0.3006  0.9144
   29MOL   H39311649   3.489   6.374   4.635 -0.4067  2.3175  1.4135
   29MOL   H39411650   3.263   6.367   4.704 -2.2303 -1.3952  0.7301
   29MOL   H39511651   3.053   6.336   4.786 -0.8823  0.0045 -0.3957
   29MOL   H39611652   2.947   6.197   4.799 -0.4701  0.0281  0.1668
   29MOL   H39711653   3.044   6.212   4.653  0.5697  2.6573 -0.3419
   29MOL   H39811654   3.318   5.956   4.854 -3.0699  1.4354 -0.5484
   29MOL   H39911655   3.550   5.970   4.768 -0.2507 -0.5935  0.9736
   29MOL   H40011656   3.761   5.969   4.682  2.0778 -0.3682 -0.8558
   29MOL   H40111657   3.818   6.056   4.542  1.4268  0.0402  2.2295
   29MOL   H40211658   3.657   5.996   4.541 -1.0090  0.3787  0.7019
   30MOL     C111659   1.981   6.935   4.192  0.0165 -0.6641 -0.1786
   30MOL     C211660   1.929   6.952   4.048 -0.7934 -0.5188  0.2039
   30MOL     C311661   2.021   6.978   3.947 -0.2698 -0.0767 -0.9154
   30MOL     C411662   1.973   6.987   3.814 -0.1011  0.2110 -0.2359
   30MOL     C511663   1.839   6.954   3.776 -0.0134 -0.0660 -0.1284
   30MOL     O611664   1.806   6.960   3.638  0.0512 -0.5259 -0.1359
   30MOL     C711665   1.690   6.885   3.605 -0.1365  0.3516 -0.0119
   30MOL     C811666   1.752   6.926   3.877 -0.3273  0.1963 -0.2945
   30MOL     C911667   1.796   6.918   4.013  0.0122 -0.2280 -0.1038
   30MOL    C1011668   1.879   6.921   4.307 -0.8302 -0.0978  0.0578
   30MOL    H1111669   2.038   7.025   4.219 -0.4671 -0.5827  0.5650
   30MOL    H1211670   2.122   7.011   3.965 -0.8804  0.3483  1.8947
   30MOL    H1311671   2.029   7.014   3.726  0.4363  0.7644  0.2732
   30MOL    H1411672   1.694   6.871   3.497 -1.2658 -0.4306  0.0346
   30MOL    H1511673   1.691   6.785   3.649 -2.1603  0.0708 -0.5439
   30MOL    H1611674   1.599   6.939   3.634 -1.7032 -1.3603 -1.5858
   30MOL    H1711675   1.648   6.902   3.862 -0.3810  0.3240 -0.1243
   30MOL    H1811676   1.725   6.895   4.091  0.6114 -1.7936  0.0055
   30MOL    H1911677   1.813   7.008   4.304 -0.7456 -0.0845 -1.7946
   30MOL    H2011678   1.823   6.829   4.291 -0.0303 -0.6674  0.4942
   30MOL    H2111679   2.057   6.857   4.192  0.5798 -0.1457  2.0829
   30MOL    C2211680   1.942   6.899   4.446  0.0039  0.3967  0.1611
   30MOL    C2311681   2.046   7.003   4.484  0.1425 -0.3558 -0.0647
   30MOL    C2411682   2.007   7.122   4.544 -0.3951  0.0531 -0.1161
   30MOL    C2511683   2.098   7.216   4.588 -0.7137 -0.5097  0.3971
   30MOL    C2611684   2.240   7.196   4.571 -0.4266  0.1559 -0.4380
   30MOL    O2711685   2.329   7.288   4.623  0.0145 -0.1973 -0.4110
   30MOL    C2811686   2.471   7.254   4.616 -0.1339 -0.4668 -0.1075
   30MOL    C2911687   2.276   7.077   4.497 -0.1989 -0.8169 -0.7251
   30MOL    C3011688   2.183   6.976   4.467 -0.3287  0.3206  0.5321
   30MOL    C3111689   1.844   6.864   4.563 -0.2330  0.5773 -0.7009
   30MOL    H3211690   1.993   6.803   4.441 -0.0289  0.3603  0.5231
   30MOL    H3311691   1.901   7.142   4.554 -0.8162 -2.5244  1.0831
   30MOL    H3411692   2.071   7.306   4.642  0.0289 -1.0849  1.7553
   30MOL    H3511693   2.481   7.201   4.711 -0.7798  2.1763  1.4699
   30MOL    H3611694   2.541   7.333   4.643 -0.6966  0.1578 -0.4879
   30MOL    H3711695   2.511   7.196   4.533  0.3433  0.8197 -0.7945
   30MOL    H3811696   2.377   7.073   4.460 -0.0061  1.8901 -0.6260
   30MOL    H3911697   2.206   6.882   4.417 -1.5618  0.1708  0.2258
   30MOL    H4011698   1.770   6.943   4.578 -0.3469  0.2565  0.4556
   30MOL    H4111699   1.790   6.779   4.522  0.5788 -0.3936  0.2056
   30MOL    C4211700   1.906   6.833   4.699 -0.3628 -0.2725 -0.0203
   30MOL    C4311701   1.890   6.688   4.740  0.9302  0.4309 -0.0642
   30MOL    C4411702   1.760   6.636   4.740  1.2049  0.0900  0.1349
   30MOL    C4511703   1.740   6.506   4.787  0.2032  0.0460  0.2031
   30MOL    C4611704   1.841   6.420   4.830 -1.0651  0.1048  0.5403
   30MOL    O4711705   1.824   6.294   4.882 -0.3015  0.0244  0.3159
   30MOL    C4811706   1.697   6.248   4.921  0.1176  0.1022 -0.4384
   30MOL    C4911707   1.967   6.483   4.833 -0.4469  0.0119 -0.2817
   30MOL    C5011708   1.995   6.612   4.788 -0.0745  0.8917  0.1450
   30MOL    C5111709   1.853   6.932   4.804  0.1750 -0.5489 -0.0255
   30MOL    H5211710   2.013   6.850   4.687 -0.0086 -0.9382  1.9786
   30MOL    H5311711   1.667   6.685   4.716 -0.7439 -2.8738  1.2764
   30MOL    H5411712   1.637   6.472   4.788  1.0944 -3.0840 -2.8473
   30MOL    H5511713   1.617   6.261   4.848 -1.4260 -0.4950  1.0909
   30MOL    H5611714   1.695   6.143   4.952  1.9160  0.4056  0.7748
   30MOL    H5711715   1.672   6.300   5.014  3.0936 -0.8403  0.9400
   30MOL    H5811716   2.054   6.425   4.859  0.9113  1.6635 -1.0179
   30MOL    H5911717   2.095   6.653   4.790 -0.2730  1.3389  1.4091
   30MOL    H6011718   1.749   6.907   4.825 -0.7606  1.6305 -1.8029
   30MOL    H6111719   1.844   7.037   4.774 -0.8027 -1.1730 -1.9742
   30MOL    C6211720   1.941   6.927   4.936  0.3607 -0.2824 -0.0015
   30MOL    C6311721   1.864   6.904   5.069  0.8106  0.3147 -0.4740
   30MOL    C6411722   1.755   6.985   5.099 -0.5908 -0.2412  0.2155
   30MOL    C6511723   1.672   6.962   5.209  0.0033 -0.0122 -0.0469
   30MOL    C6611724   1.693   6.852   5.291 -0.1662 -0.1288 -0.7960
   30MOL    O6711725   1.595   6.818   5.390  0.2403 -0.4075  0.3562
   30MOL    C6811726   1.577   6.682   5.416 -0.3168  0.4535  0.2048
   30MOL    C6911727   1.804   6.769   5.263 -0.6024  0.0039  0.4451
   30MOL    C7011728   1.887   6.794   5.152 -0.4864  0.0961  0.9868
   30MOL    C7111729   2.015   7.062   4.947  0.2331 -0.1953  0.4074
   30MOL    H7211730   2.016   6.850   4.916  0.7216  0.0212  0.1721
   30MOL    H7311731   1.730   7.066   5.032  3.1579 -0.0447 -1.0488
   30MOL    H7411732   1.578   7.009   5.235 -0.6881  0.0092 -2.4338
   30MOL    H7511733   1.555   6.624   5.327  0.2538 -0.2921  0.5388
   30MOL    H7611734   1.494   6.676   5.487  0.7650  0.5286  1.4844
   30MOL    H7711735   1.654   6.632   5.475  0.5250  0.3775 -0.9466
   30MOL    H7811736   1.839   6.682   5.317  1.7458  0.1181 -0.8078
   30MOL    H7911737   1.968   6.725   5.133 -2.1778 -1.4846 -0.6970
   30MOL    H8011738   2.075   7.070   4.856  2.1498  2.9923  1.8634
   30MOL    H8111739   1.943   7.144   4.948 -0.3912 -0.7506  1.6168
   30MOL    C8211740   2.114   7.072   5.063  0.0336 -0.3164 -0.2609
   30MOL    C8311741   2.214   6.957   5.062 -0.1674  0.4961  0.3324
   30MOL    C8411742   2.302   6.941   4.948  0.8182  0.1670 -0.6166
   30MOL    C8511743   2.392   6.834   4.943 -0.3953 -0.2702  0.0988
   30MOL    C8611744   2.400   6.741   5.048  0.4823  0.1200  0.2350
   30MOL    O8711745   2.492   6.635   5.042  0.8266  0.0812 -0.4020
   30MOL    C8811746   2.471   6.517   5.117 -0.6100  0.0085  0.1683
   30MOL    C8911747   2.321   6.772   5.165 -0.1226 -0.1131  0.0761
   30MOL    C9011748   2.222   6.867   5.168  0.7204  0.4427  0.5240
   30MOL    C9111749   2.179   7.210   5.080  0.1445  0.0670  0.0588
   30MOL    H9211750   2.052   7.047   5.149  0.3160 -0.1021  0.0093
   30MOL    H9311751   2.301   7.009   4.865  0.1289 -1.1590 -1.7248
   30MOL    H9411752   2.459   6.824   4.858 -2.0218 -1.9251 -1.0282
   30MOL    H9511753   2.486   6.523   5.225  4.9112  1.0783 -0.5052
   30MOL    H9611754   2.540   6.447   5.069 -0.1596 -1.4184  2.8275
   30MOL    H9711755   2.373   6.479   5.090 -0.9190  1.1430 -0.3393
   30MOL    H9811756   2.336   6.718   5.257  1.0176 -0.1771 -0.1470
   30MOL    H9911757   2.162   6.867   5.257  1.8271 -3.0827  1.3696
   30MOL   H10011758   2.258   7.191   5.153  0.4883 -1.4036 -0.6726
   30MOL   H10111759   2.222   7.244   4.986  0.7154  1.2249  0.7351
   30MOL   C10211760   2.086   7.325   5.131 -0.0332 -0.5785  0.0187
   30MOL   C10311761   2.025   7.270   5.265  0.1636  0.1776  0.3935
   30MOL   C10411762   2.108   7.247   5.374 -0.1713 -0.4583  0.8202
   30MOL   C10511763   2.057   7.177   5.479  0.3527  0.7352 -0.4016
   30MOL   C10611764   1.919   7.150   5.494 -0.2543  0.1997 -1.1099
   30MOL   O10711765   1.865   7.091   5.608  0.0496  0.0927 -0.2780
   30MOL   C10811766   1.729   7.048   5.622 -0.1091  0.3969 -0.3988
   30MOL   C10911767   1.837   7.176   5.382 -0.2928  0.4075 -0.0008
   30MOL   C11011768   1.892   7.236   5.263  0.4772 -0.2991 -0.2235
   30MOL   C11111769   2.156   7.461   5.143 -0.7289 -0.2195  0.2535
   30MOL   H11211770   2.009   7.322   5.053 -1.4871  1.7716  1.3160
   30MOL   H11311771   2.215   7.260   5.360 -0.6629  2.1124 -1.0681
   30MOL   H11411772   2.124   7.147   5.558 -3.4544 -2.4544  1.7866
   30MOL   H11511773   1.704   6.971   5.549  0.4378  1.0818 -1.3071
   30MOL   H11611774   1.719   7.002   5.721  0.1413 -1.2854 -1.1358
   30MOL   H11711775   1.660   7.130   5.607  1.1041  1.8031  1.4697
   30MOL   H11811776   1.731   7.156   5.380 -0.1097 -1.0180  2.3467
   30MOL   H11911777   1.821   7.234   5.182 -0.5026  1.1070  0.6028
   30MOL   H12011778   2.230   7.451   5.222 -0.8662  1.9421  0.6671
   30MOL   H12111779   2.205   7.477   5.047 -1.3953  0.1724 -0.0227
   30MOL   C12211780   2.068   7.578   5.183 -0.4733 -0.1468 -0.9044
   30MOL   C12311781   1.939   7.586   5.092  0.1135 -0.0666 -0.7056
   30MOL   C12411782   1.946   7.596   4.954 -0.0633 -0.1463 -0.3539
   30MOL   C12511783   1.825   7.607   4.880  0.3906  0.5326 -0.5154
   30MOL   C12611784   1.694   7.595   4.944 -0.1230  0.2904 -0.4458
   30MOL   O12711785   1.582   7.600   4.870  0.0665 -0.4596 -0.2708
   30MOL   C12811786   1.456   7.609   4.928  0.0637  0.0839  0.2802
   30MOL   C12911787   1.696   7.579   5.081  0.7598  0.5316 -1.1096
   30MOL   C13011788   1.815   7.566   5.150 -0.6270 -0.2733 -0.3215
   30MOL   C13111789   2.143   7.708   5.189  0.2500  0.5294 -0.0320
   30MOL   H13211790   2.035   7.541   5.280 -1.9899  3.1397 -0.0913
   30MOL   H13311791   2.043   7.610   4.907  0.5185  1.2743  1.2066
   30MOL   H13411792   1.835   7.614   4.773  1.2555  0.2489 -0.4601
   30MOL   H13511793   1.432   7.512   4.970 -1.4556  0.8572  1.2465
   30MOL   H13611794   1.459   7.685   5.006  1.4230 -1.1436  1.4467
   30MOL   H13711795   1.390   7.640   4.846  1.5826 -0.1566 -1.0662
   30MOL   H13811796   1.606   7.561   5.139  0.6917  1.0257 -1.0572
   30MOL   H13911797   1.798   7.546   5.255 -1.4297 -2.0098 -0.7736
   30MOL   H14011798   2.141   7.759   5.092  1.6086  0.6404 -0.0159
   30MOL   H14111799   2.249   7.688   5.206 -0.0206 -0.1498  0.8874
   30MOL   C14211800   2.097   7.792   5.307 -0.4257 -0.0940 -0.2342
   30MOL   C14311801   2.201   7.903   5.325  0.0745  0.1302  0.3974
   30MOL   C14411802   2.301   7.883   5.427  0.4513 -0.1456 -0.6683
   30MOL   C14511803   2.402   7.984   5.444  0.4882  0.5518 -0.1470
   30MOL   C14611804   2.415   0.052   5.354  0.1505 -0.2066  0.6735
   30MOL   O14711805   2.507   0.153   5.375  0.0857 -0.2047 -0.3239
   30MOL   C14811806   2.483   0.282   5.321 -0.2363  0.2723 -0.4272
   30MOL   C14911807   2.322   0.059   5.251  0.3252  0.1321  0.2325
   30MOL   C15011808   2.219   8.009   5.232  0.0179  0.7145 -0.1446
   30MOL   C15111809   1.951   7.849   5.304 -0.5792  0.0422 -0.3067
   30MOL   H15211810   2.116   7.727   5.392  0.4103 -0.1460 -0.4544
   30MOL   H15311811   2.300   7.798   5.493 -2.5747  1.8941  2.0278
   30MOL   H15411812   2.465   7.980   5.532 -1.0039  0.8788  0.9740
   30MOL   H15511813   2.501   0.272   5.214  3.0836 -0.7657  0.1596
   30MOL   H15611814   2.384   0.327   5.327 -0.3192 -0.1740  1.7984
   30MOL   H15711815   2.545   0.356   5.372 -0.5746 -0.3732  0.9378
   30MOL   H15811816   2.325   0.134   5.173 -0.6326  1.0624  1.0732
   30MOL   H15911817   2.155   8.008   5.145  0.2332  0.4099 -0.3013
   30MOL   H16011818   1.892   7.801   5.225  1.1981 -1.1535 -0.9403
   30MOL   H16111819   1.958   7.954   5.277  3.9179  0.5421  2.4281
   30MOL   C16211820   1.876   7.832   5.445  0.0673 -0.1600 -0.3258
   30MOL   C16311821   1.734   7.785   5.432 -0.0996  0.4226  0.3997
   30MOL   C16411822   1.642   7.861   5.355  1.0791 -0.3152 -0.3431
   30MOL   C16511823   1.505   7.824   5.344  0.5134  0.5970 -0.3025
   30MOL   C16611824   1.460   7.708   5.409 -0.4267  0.2226  0.2759
   30MOL   O16711825   1.325   7.678   5.397 -0.2517 -0.4514 -0.1528
   30MOL   C16811826   1.281   7.564   5.471 -0.4689 -0.5791  0.0959
   30MOL   C16911827   1.552   7.627   5.474 -0.3217 -0.7926 -0.0188
   30MOL   C17011828   1.688   7.662   5.487 -0.1083  0.5566 -0.6169
   30MOL   C17111829   1.889   7.955   5.534 -0.1473 -0.0251 -0.9304
   30MOL   H17211830   1.922   7.747   5.495 -2.2550 -3.1547 -2.9847
   30MOL   H17311831   1.672   7.944   5.293 -0.6873 -0.4047 -1.3587
   30MOL   H17411832   1.432   7.874   5.282 -3.2133  0.4562  3.7301
   30MOL   H17511833   1.310   7.472   5.419  0.2131  0.5511 -1.5765
   30MOL   H17611834   1.172   7.571   5.481 -0.3723  0.4308  0.4453
   30MOL   H17711835   1.322   7.568   5.571  1.0694 -0.9240 -0.5027
   30MOL   H17811836   1.527   7.530   5.516  0.4833 -1.5351 -1.2138
   30MOL   H17911837   1.753   7.596   5.543 -1.9499 -0.8004 -0.0612
   30MOL   H18011838   1.856   0.011   5.492 -1.8002 -0.6490 -1.1228
   30MOL   H18111839   1.996   7.972   5.531  0.2564 -2.3629 -0.4048
   30MOL   C18211840   1.822   7.948   5.674  0.0969 -0.7177  0.1321
   30MOL   C18311841   1.695   8.035   5.673  0.2310  0.3021  0.0478
   30MOL   C18411842   1.693   0.135   5.688  0.6923  0.0707 -0.0510
   30MOL   C18511843   1.573   0.210   5.697 -0.1150  0.7514  0.1830
   30MOL   C18611844   1.451   0.141   5.689  0.7862  0.4875 -0.2994
   30MOL   O18711845   1.341   0.224   5.704 -0.0753  0.0187  0.4760
   30MOL   C18811846   1.209   0.173   5.720 -0.8532  0.1259  0.0652
   30MOL   C18911847   1.454   8.039   5.678  0.2641 -0.1728  0.1374
   30MOL   C19011848   1.573   7.968   5.664  0.3159  0.3240  0.3161
   30MOL   C19111849   1.925   7.996   5.780  0.8453 -0.0322  0.2186
   30MOL   H19211850   1.786   7.849   5.704 -1.3515 -0.2998 -0.1884
   30MOL   H19311851   1.787   0.188   5.689  1.2235 -0.8010 -1.7705
   30MOL   H19411852   1.564   0.317   5.701 -0.6710  0.6621  1.6327
   30MOL   H19511853   1.210   0.070   5.757 -0.0867 -0.2934 -1.1002
   30MOL   H19611854   1.138   0.177   5.638 -1.7360  0.4587  0.8317
   30MOL   H19711855   1.151   0.246   5.776 -1.0545  0.3642 -0.4516
   30MOL   H19811856   1.359   7.988   5.665 -0.0111  0.0305  1.3270
   30MOL   H19911857   1.571   7.860   5.662 -0.5276  0.3124  1.3537
   30MOL   H20011858   1.963   0.056   5.760  0.2935 -0.3284 -2.4249
   30MOL   H20111859   1.868   8.000   5.873  1.9479  1.5202  0.8510
   30MOL   C20211860   2.037   7.893   5.809  0.5622 -0.2272 -0.2423
   30MOL   C20311861   1.992   7.748   5.824 -0.3521 -0.3678  0.7737
   30MOL   C20411862   1.903   7.701   5.920 -0.2500  0.0762 -0.0662
   30MOL   C20511863   1.857   7.567   5.912  0.1040 -0.0035  0.2733
   30MOL   C20611864   1.903   7.478   5.810 -0.4745  0.0836  0.0816
   30MOL   O20711865   1.862   7.348   5.800  0.3239 -0.5152  0.3008
   30MOL   C20811866   1.833   7.280   5.926  0.0823  0.1252 -0.0495
   30MOL   C20911867   1.997   7.523   5.712 -0.7468  0.5153 -0.7711
   30MOL   C21011868   2.052   7.655   5.731  0.0011 -1.1851 -0.2291
   30MOL   C21111869   2.110   7.943   5.939  0.5495 -0.1341 -0.0882
   30MOL   H21211870   2.111   7.899   5.729  0.7472 -0.9526 -0.1197
   30MOL   H21311871   1.874   7.772   5.995  0.6509 -0.3138  0.6778
   30MOL   H21411872   1.799   7.531   5.996 -0.0742 -2.0203 -0.6608
   30MOL   H21511873   1.856   7.176   5.900 -0.4378 -0.0618  0.2341
   30MOL   H21611874   1.903   7.312   6.003 -0.7677 -3.1557  2.1666
   30MOL   H21711875   1.730   7.290   5.959  0.4234  0.8947  0.7753
   30MOL   H21811876   2.039   7.453   5.641 -0.5915 -1.3329  1.0649
   30MOL   H21911877   2.129   7.686   5.662 -0.5436 -3.1366 -1.7487
   30MOL   H22011878   2.033   7.943   6.016  1.0605  0.8966  0.4375
   30MOL   H22111879   2.137   0.008   5.925 -0.2999  0.3449  1.7477
   30MOL   C22211880   2.220   7.853   5.989 -0.6115  0.1893  0.1141
   30MOL   C22311881   2.340   7.874   5.897 -0.1685  0.3884 -0.3599
   30MOL   C22411882   2.379   8.005   5.849 -0.2373 -0.3288 -0.6542
   30MOL   C22511883   2.494   8.019   5.771 -0.4739 -0.6839 -0.6880
   30MOL   C22611884   2.575   7.907   5.735  0.1599  0.4988 -0.4376
   30MOL   O22711885   2.691   7.918   5.663  0.0981 -0.3820  0.5349
   30MOL   C22811886   2.744   0.006   5.629 -0.1760 -0.5341 -0.1374
   30MOL   C22911887   2.531   7.785   5.782  0.6237 -0.3536 -0.1680
   30MOL   C23011888   2.419   7.769   5.862  0.3116  0.2490  0.1037
   30MOL   C23111889   2.262   7.872   6.140  0.2324 -0.2010  0.1128
   30MOL   H23211890   2.194   7.748   5.981 -3.2413  0.8326 -0.5409
   30MOL   H23311891   2.325   0.050   5.888 -0.3090 -0.0027 -1.4483
   30MOL   H23411892   2.515   0.082   5.744  0.8014 -0.5740  0.7191
   30MOL   H23511893   2.828   8.023   5.564 -0.2533  0.1974 -0.4975
   30MOL   H23611894   2.669   0.066   5.578 -2.0466 -1.0229  1.9711
   30MOL   H23711895   2.774   0.061   5.718 -1.8504  2.1698 -1.1967
   30MOL   H23811896   2.595   7.702   5.756 -0.8908 -1.5104 -0.3192
   30MOL   H23911897   2.396   7.669   5.895 -3.0356 -0.0427 -2.7785
   30MOL   H24011898   2.306   7.971   6.147 -0.6380  0.2006 -0.0088
   30MOL   H24111899   2.167   7.864   6.194  0.4016 -1.4132  0.2404
   30MOL   C24211900   2.369   7.782   6.209  0.1733  0.1939  0.6836
   30MOL   C24311901   2.378   7.815   6.354  0.3217 -0.6190  0.5724
   30MOL   C24411902   2.258   7.790   6.431 -0.3687 -0.9053  0.3998
   30MOL   C24511903   2.267   7.795   6.570  0.0716 -0.0525 -0.0483
   30MOL   C24611904   2.383   7.836   6.636  0.0161  0.1838 -0.5304
   30MOL   O24711905   2.382   7.844   6.773  0.4199 -0.6634  0.0031
   30MOL   C24811906   2.491   7.886   6.834  0.0557 -0.3159 -0.4203
   30MOL   C24911907   2.499   7.876   6.559  0.4394  0.2743  0.1242
   30MOL   C25011908   2.496   7.855   6.416 -0.0168 -0.0288 -0.6558
   30MOL   C25111909   2.345   7.630   6.184  0.6891 -0.3450  0.4608
   30MOL   H25211910   2.463   7.816   6.165 -0.7193  0.2551 -1.2441
   30MOL   H25311911   2.172   7.745   6.384 -1.1300  1.0192 -0.0715
   30MOL   H25411912   2.183   7.762   6.629  1.7516 -2.9532  0.8041
   30MOL   H25511913   2.557   7.800   6.829  0.9706  0.2512  1.3788
   30MOL   H25611914   2.519   7.982   6.792 -1.0491  1.0549  1.8793
   30MOL   H25711915   2.450   7.896   6.934  0.2202 -0.4430 -0.3394
   30MOL   H25811916   2.593   7.905   6.603 -0.1555  3.5775 -0.6699
   30MOL   H25911917   2.589   7.871   6.364  1.6742 -0.0676  2.2409
   30MOL   H26011918   2.327   7.612   6.078 -1.3567 -0.7090  0.8464
   30MOL   H26111919   2.244   7.603   6.216  1.5294 -0.9857  2.6595
   30MOL   C26211920   2.458   7.538   6.241  0.2414  0.2072 -0.5046
   30MOL   C26311921   2.594   7.538   6.161 -0.2101  0.0508 -0.3253
   30MOL   C26411922   2.713   7.576   6.226 -0.7908 -0.1456  0.2755
   30MOL   C26511923   2.838   7.559   6.162  0.3084 -0.5435 -0.5457
   30MOL   C26611924   2.852   7.515   6.029  0.2288 -0.5354 -0.7107
   30MOL   O26711925   2.968   7.495   5.966 -0.3073 -0.9791 -1.1209
   30MOL   C26811926   3.088   7.559   6.021  0.1961 -0.2730 -0.0533
   30MOL   C26911927   2.734   7.485   5.958  0.2442  0.2295  0.5089
   30MOL   C27011928   2.605   7.505   6.019 -0.0083 -0.1833 -0.3755
   30MOL   C27111929   2.401   7.391   6.238  0.0945 -0.8202  0.7011
   30MOL   H27211930   2.472   7.564   6.346 -0.7830  0.4915 -0.4366
   30MOL   H27311931   2.712   7.618   6.325 -2.8310 -1.4552  0.8426
   30MOL   H27411932   2.925   7.585   6.221 -0.2372 -0.3900  0.1990
   30MOL   H27511933   3.091   7.667   6.007 -0.8167 -0.4908 -2.0590
   30MOL   H27611934   3.177   7.524   5.968 -0.1600 -0.5772 -0.4531
   30MOL   H27711935   3.104   7.514   6.119 -0.2725  1.3186  0.7670
   30MOL   H27811936   2.741   7.450   5.856 -0.1197  1.5070  0.0504
   30MOL   H27911937   2.517   7.470   5.966 -2.2497  1.6447  1.9967
   30MOL   H28011938   2.353   7.365   6.143  2.2891 -0.4266 -0.5562
   30MOL   H28111939   2.475   7.311   6.243  0.9449  0.0120  1.5925
   30MOL   C28211940   2.298   7.364   6.352 -0.0244  0.1475 -0.2057
   30MOL   C28311941   2.376   7.356   6.487  0.3228 -0.1864  0.3552
   30MOL   C28411942   2.458   7.248   6.522 -0.5036 -0.5031 -0.1861
   30MOL   C28511943   2.553   7.259   6.626 -0.1838  0.2353 -0.3942
   30MOL   C28611944   2.554   7.374   6.700  0.8866  0.4564  0.1158
   30MOL   O28711945   2.636   7.373   6.806 -0.0146  0.2007  0.5467
   30MOL   C28811946   2.583   7.440   6.923 -1.0006  0.9233  0.2954
   30MOL   C28911947   2.459   7.480   6.675  0.3111 -0.1982 -0.4454
   30MOL   C29011948   2.371   7.471   6.568 -0.5142  0.3984  0.1571
   30MOL   C29111949   2.211   7.237   6.328 -0.1205  0.5613  0.4434
   30MOL   H29211950   2.232   7.450   6.361 -1.2417 -0.9796  2.2505
   30MOL   H29311951   2.456   7.157   6.464  0.2692 -0.4506 -0.3027
   30MOL   H29411952   2.629   7.185   6.647  0.7992  1.1833 -0.5763
   30MOL   H29511953   2.575   7.548   6.919  0.2485  1.1316  2.7058
   30MOL   H29611954   2.480   7.405   6.932 -1.0543  0.8065 -0.6589
   30MOL   H29711955   2.653   7.407   7.000 -0.2183  0.3963 -0.6297
   30MOL   H29811956   2.447   7.566   6.738  2.5673 -0.5757  0.5386
   30MOL   H29911957   2.300   7.550   6.549 -0.7113  0.0632 -0.5299
   30MOL   H30011958   2.163   7.241   6.230 -1.1492 -0.8207  0.8868
   30MOL   H30111959   2.273   7.148   6.318 -0.8894  0.1070 -0.3021
   30MOL   C30211960   2.088   7.224   6.423 -0.0685  0.0362 -0.6907
   30MOL   C30311961   1.969   7.186   6.336 -0.8770  0.6728  0.8636
   30MOL   C30411962   1.975   7.058   6.273 -0.0183 -0.0570  0.1733
   30MOL   C30511963   1.866   7.016   6.192  0.2880 -0.2225  0.0840
   30MOL   C30611964   1.753   7.091   6.184  0.0584 -0.0973 -0.8810
   30MOL   O30711965   1.640   7.048   6.122 -0.1936 -0.2844 -0.8217
   30MOL   C30811966   1.646   6.923   6.052  0.8695  0.8218  0.2920
   30MOL   C30911967   1.751   7.221   6.234 -0.2259 -0.2477 -0.3189
   30MOL   C31011968   1.856   7.271   6.310  0.6967  0.2333 -0.2611
   30MOL   C31111969   2.113   7.136   6.548  1.0497  0.3117  1.0363
   30MOL   H31211970   2.076   7.324   6.464 -0.8256 -0.4772  0.3335
   30MOL   H31311971   2.062   6.997   6.295  0.3810  1.0974  1.8446
   30MOL   H31411972   1.862   6.910   6.172  1.8698 -0.5493  1.3592
   30MOL   H31511973   1.706   6.920   5.961 -1.8427  0.0048 -1.5473
   30MOL   H31611974   1.554   6.897   5.999 -0.1015  0.9310  1.8890
   30MOL   H31711975   1.671   6.836   6.112  1.1691  0.3684 -0.4824
   30MOL   H31811976   1.676   7.297   6.215 -0.3517 -0.0557  0.8872
   30MOL   H31911977   1.854   7.375   6.341  1.0490  0.0466  0.4065
   30MOL   H32011978   2.221   7.136   6.559  1.3742  0.3760 -1.6773
   30MOL   H32111979   2.091   7.033   6.521 -0.4672  0.0750  3.1284
   30MOL   C32211980   2.057   7.160   6.687  0.2303 -0.0775  0.2370
   30MOL   C32311981   1.903   7.158   6.681  0.4326  0.2857  0.2759
   30MOL   C32411982   1.837   7.032   6.679  0.3480  0.3257 -0.0036
   30MOL   C32511983   1.702   7.021   6.664 -0.2122  0.2567  0.2715
   30MOL   C32611984   1.621   7.136   6.632 -0.3780 -0.2422 -0.0520
   30MOL   O32711985   1.495   7.111   6.593  0.3195  1.1239  0.1617
   30MOL   C32811986   1.426   7.211   6.527  0.3610  0.1791  0.0720
   30MOL   C32911987   1.682   7.264   6.648  0.1629 -0.1133 -0.2928
   30MOL   C33011988   1.825   7.279   6.676  0.6216 -0.3166 -0.4471
   30MOL   C33111989   2.118   7.281   6.765 -0.0285  1.0226  1.0810
   30MOL   H33211990   2.093   7.070   6.737  0.3072 -0.9342 -1.3603
   30MOL   H33311991   1.897   6.942   6.687 -0.4570 -0.4011 -1.9314
   30MOL   H33411992   1.664   6.920   6.666 -1.3525  0.6656  0.1845
   30MOL   H33511993   1.424   7.293   6.599  0.4587  1.1563 -1.0310
   30MOL   H33611994   1.325   7.182   6.500  0.5722 -1.6049  1.1125
   30MOL   H33711995   1.475   7.248   6.437  0.9354 -0.5530  0.0762
   30MOL   H33811996   1.626   7.355   6.639 -0.2035 -0.3754 -0.7079
   30MOL   H33911997   1.872   7.376   6.683  0.9402 -0.5260  0.2878
   30MOL   H34011998   2.224   7.286   6.738  0.0709 -0.8407  1.0705
   30MOL   H34111999   2.080   7.369   6.714  3.5014  1.2029 -1.3926
   30MOL   C34212000   2.075   7.279   6.919 -0.1371  0.1048  0.3041
   30MOL   C34312001   2.107   7.413   6.998  0.9986 -0.7515  0.5191
   30MOL   C34412002   2.210   7.502   6.954 -0.0439  0.2561  0.6595
   30MOL   C34512003   2.228   7.624   7.023 -0.0426  0.4165 -0.4513
   30MOL   C34612004   2.157   7.659   7.136  0.5263 -0.3906  0.3292
   30MOL   O34712005   2.182   7.774   7.213 -0.3406 -0.5016 -0.2488
   30MOL   C34812006   2.304   7.840   7.194  0.0614 -0.3530 -0.2012
   30MOL   C34912007   2.061   7.563   7.187 -1.0801 -0.0518 -0.1545
   30MOL   C35012008   2.041   7.441   7.116 -0.0653 -0.0385  0.7568
   30MOL   C35112009   2.143   7.162   6.994  0.8514  0.4874 -0.4441
   30MOL   H35212010   1.966   7.273   6.925 -0.0809 -1.0661  0.1782
   30MOL   H35312011   2.264   7.488   6.861 -0.9091 -0.3271  0.2479
   30MOL   H35412012   2.292   7.691   6.969 -0.9703  0.4268 -1.5603
   30MOL   H35512013   2.297   7.901   7.104  0.3871  2.3708  1.5717
   30MOL   H35612014   2.310   7.897   7.286  0.6383 -0.4727 -0.1602
   30MOL   H35712015   2.383   7.764   7.199  0.1085 -0.2744  0.3411
   30MOL   H35812016   2.011   7.588   7.279  0.5773 -0.1648  0.7996
   30MOL   H35912017   1.971   7.371   7.159 -0.4874  1.4878  2.6412
   30MOL   H36012018   2.209   7.102   6.930 -0.0971 -1.6676  0.5521
   30MOL   H36112019   2.206   7.219   7.061 -2.5412  1.0064  2.4646
   30MOL   C36212020   2.055   7.066   7.077 -0.0312  0.0475  0.8160
   30MOL   C36312021   2.132   7.029   7.199 -0.6678  0.6468  0.9107
   30MOL   C36412022   2.240   6.927   7.184  0.7184  0.4119  0.7013
   30MOL   C36512023   2.308   6.878   7.299  0.6167  0.0912  0.4280
   30MOL   C36612024   2.281   6.932   7.424  0.6805  0.5004 -0.2217
   30MOL   O36712025   2.351   6.896   7.543  0.4113 -0.1736  0.3821
   30MOL   C36812026   2.419   6.774   7.536 -0.4469 -0.1139  0.1115
   30MOL   C36912027   2.180   7.034   7.433 -0.5125 -0.3491 -0.4646
   30MOL   C37012028   2.113   7.089   7.323 -0.1402  0.0305 -0.4592
   30MOL   C37112029   2.009   6.950   6.988  0.5422  0.1079 -0.3429
   30MOL   H37212030   1.966   7.118   7.112 -1.5948 -1.9443 -0.1335
   30MOL   H37312031   2.266   6.879   7.091 -0.9407 -0.1641  0.5038
   30MOL   H37412032   2.391   6.812   7.280  0.1317 -0.5635  0.5749
   30MOL   H37512033   2.416   6.730   7.635 -0.2654 -2.5390 -0.9330
   30MOL   H37612034   2.371   6.703   7.469 -0.9883  0.1639  0.2068
   30MOL   H37712035   2.521   6.785   7.496 -0.4613  1.6345  0.5000
   30MOL   H37812036   2.153   7.067   7.533 -0.4061  0.0262 -0.5576
   30MOL   H37912037   2.046   7.174   7.324  0.0960  0.2085  0.4860
   30MOL   H38012038   1.938   6.995   6.918 -2.6452 -1.6800  1.6124
   30MOL   H38112039   2.092   6.926   6.922  3.2475  0.4259  2.8513
   30MOL   C38212040   1.948   6.824   7.050  0.4414  0.7520  0.7150
   30MOL   C38312041   1.943   6.714   6.943  0.5514 -0.8463  0.0768
   30MOL   C38412042   2.037   6.606   6.944  0.2979 -0.6037 -0.4325
   30MOL   C38512043   2.019   6.510   6.846 -0.0836  0.5254  0.7883
   30MOL   C38612044   1.915   6.503   6.754  0.6561 -0.4652  0.1532
   30MOL   O38712045   1.923   6.400   6.666  0.2717 -0.0364 -0.0897
   30MOL   C38812046   1.806   6.363   6.598  0.0176 -0.4838 -0.2860
   30MOL   C38912047   1.821   6.612   6.761  0.5770 -0.2177  0.0530
   30MOL   C39012048   1.842   6.720   6.850  0.7752  0.1313  0.4586
   30MOL   C39112049   1.814   6.837   7.132 -0.3358 -0.1739 -0.9212
   30MOL   H39212050   2.028   6.786   7.113 -1.0953 -1.3570  1.4523
   30MOL   H39312051   2.111   6.611   7.022  0.3765 -0.8925 -0.4868
   30MOL   H39412052   2.099   6.438   6.856  0.1115  0.5782 -0.3539
   30MOL   H39512053   1.772   6.439   6.528 -0.0230 -0.2845 -0.0509
   30MOL   H39612054   1.728   6.333   6.668 -0.5222 -1.0844 -1.1375
   30MOL   H39712055   1.829   6.269   6.549 -0.9270 -1.2336  0.6792
   30MOL   H39812056   1.736   6.604   6.695  0.1715  0.2610  0.5115
   30MOL   H39912057   1.781   6.809   6.841  1.5200  0.3896 -2.4158
   30MOL   H40012058   1.815   6.936   7.177 -0.0382 -0.8285  0.5310
   30MOL   H40112059   1.807   6.759   7.208  0.5464 -2.3566 -3.0032
   30MOL   H40212060   1.726   6.832   7.067 -1.1357  0.9617  0.0490
   31MOL     C112061   3.462   1.372   7.995  0.5820  0.0974 -0.6444
   31MOL     C212062   3.607   1.417   8.020  0.5669  0.4197  0.5628
   31MOL     C312063   3.642   1.477   0.099  0.0267 -0.1582  0.0649
   31MOL     C412064   3.780   1.519   0.124 -0.6777  0.4472  0.2935
   31MOL     C512065   3.875   1.506   0.022 -0.0887 -0.0509  0.0920
   31MOL     O612066   4.006   1.551   0.038  0.2438  0.4289  0.1407
   31MOL     C712067   4.046   1.624   0.154 -0.2251 -0.6089 -0.3474
   31MOL     C812068   3.835   1.447   7.938 -0.4112 -0.9117  0.4381
   31MOL     C912069   3.702   1.407   7.914 -0.7615  0.7675 -0.0377
   31MOL    C1012070   3.423   1.325   7.849  0.4544  0.5981 -0.1163
   31MOL    H1112071   3.401   1.461   8.007  0.1784 -0.3769  0.9442
   31MOL    H1212072   3.566   1.476   0.176  1.7619  3.1555  1.9037
   31MOL    H1312073   3.805   1.552   0.224 -0.3683  1.0867  0.0045
   31MOL    H1412074   4.139   1.682   0.152  0.4342 -1.3809  3.0495
   31MOL    H1512075   3.962   1.690   0.172 -1.5993 -1.9716 -1.6442
   31MOL    H1612076   4.043   1.560   0.242 -1.0338 -2.2879 -1.5790
   31MOL    H1712077   3.910   1.440   7.860 -1.4860  1.0590 -0.8135
   31MOL    H1812078   3.678   1.359   7.820  0.4752 -1.7771  0.8847
   31MOL    H1912079   3.466   1.392   7.775 -0.0131 -0.2461 -1.1619
   31MOL    H2012080   3.477   1.233   7.827 -0.3084  0.0899  0.1144
   31MOL    H2112081   3.423   1.315   0.039  0.5927  1.4299  0.2716
   31MOL    C2212082   3.272   1.309   7.826 -0.1474 -0.2143 -0.1182
   31MOL    C2312083   3.224   1.297   7.680  0.2211  0.5333 -0.1156
   31MOL    C2412084   3.172   1.408   7.615 -0.0035  0.1099  0.2361
   31MOL    C2512085   3.138   1.392   7.478  0.5252  0.0382  0.7067
   31MOL    C2612086   3.167   1.278   7.413 -0.4451  1.1303  0.5582
   31MOL    O2712087   3.125   1.279   7.276 -0.3308  0.0455  0.0291
   31MOL    C2812088   3.210   1.207   7.182 -0.5264 -0.0078 -0.2781
   31MOL    C2912089   3.222   1.162   7.475 -0.2268 -0.1889 -0.4505
   31MOL    C3012090   3.245   1.175   7.613  0.2821  0.9853 -0.3114
   31MOL    C3112091   3.203   1.202   7.924 -0.0509  0.4318  0.0466
   31MOL    H3212092   3.234   1.402   7.868 -0.5321  0.1535 -1.2506
   31MOL    H3312093   3.164   1.506   7.661 -0.0761  0.1064  0.2301
   31MOL    H3412094   3.090   1.470   7.422  1.6256 -1.0336 -1.8487
   31MOL    H3512095   3.311   1.231   7.214 -0.3265 -1.5709  0.3152
   31MOL    H3612096   3.192   1.239   7.080  1.0223 -1.5977 -1.0729
   31MOL    H3712097   3.203   1.098   7.182  2.0873 -0.2314  1.6500
   31MOL    H3812098   3.248   1.073   7.421  0.0739 -0.1327 -0.4042
   31MOL    H3912099   3.283   1.088   7.664 -0.6803 -0.1344 -1.4255
   31MOL    H4012100   3.251   1.106   7.905  1.2026  1.3972 -1.8997
   31MOL    H4112101   3.236   1.213   8.027  1.3082 -0.2575 -0.3106
   31MOL    C4212102   3.056   1.195   7.918 -0.0299  0.2481  0.1926
   31MOL    C4312103   2.999   1.335   7.955  0.6697  0.0763  0.3908
   31MOL    C4412104   2.937   1.407   7.858  0.2795 -0.5646  0.0992
   31MOL    C4512105   2.887   1.537   7.893  0.4217 -0.6539  0.0396
   31MOL    C4612106   2.896   1.578   8.029  0.7520 -0.2773  0.2404
   31MOL    O4712107   2.851   1.702   0.037 -0.2585  0.5190 -0.0729
   31MOL    C4812108   2.812   1.792   7.975  0.1077 -0.7080  0.1845
   31MOL    C4912109   2.959   1.501   0.077  0.5538  0.4570 -0.0360
   31MOL    C5012110   3.017   1.382   0.047 -0.0369  0.5259 -0.1853
   31MOL    C5112111   2.998   1.089   8.024  0.3243 -0.0191  0.5963
   31MOL    H5212112   3.013   1.174   7.821 -2.1232  1.3830  0.8393
   31MOL    H5312113   2.929   1.366   7.758  1.2050  0.7488 -0.5335
   31MOL    H5412114   2.849   1.605   7.817  0.4684  2.4449  2.6547
   31MOL    H5512115   2.721   1.760   7.925  1.7675 -0.9058 -2.8850
   31MOL    H5612116   2.811   1.893   8.016 -1.1281 -0.9318  0.6974
   31MOL    H5712117   2.888   1.808   7.897 -0.6441  1.6346 -0.1155
   31MOL    H5812118   2.977   1.542   0.175  0.8757 -0.3924  0.2628
   31MOL    H5912119   3.079   1.324   0.114 -0.6531 -0.5431 -0.5340
   31MOL    H6012120   2.891   1.110   8.028  0.6954  1.7574  1.8936
   31MOL    H6112121   3.041   1.122   0.079  2.4110  0.3746 -0.4577
   31MOL    C6212122   3.034   0.942   8.016  0.1496 -0.5871  0.6059
   31MOL    C6312123   3.008   0.890   7.875 -0.1503 -0.4111  0.2499
   31MOL    C6412124   2.871   0.874   7.833  0.3161  0.6741 -0.3211
   31MOL    C6512125   2.844   0.831   7.704  0.5881  0.0817  0.2772
   31MOL    C6612126   2.949   0.806   7.615  0.0526  0.2815  0.8078
   31MOL    O6712127   2.922   0.765   7.486  0.6242  0.3365  0.9688
   31MOL    C6812128   2.988   0.829   7.375  0.8373 -0.4150  0.4868
   31MOL    C6912129   3.078   0.811   7.657  0.3383  0.3680 -0.2541
   31MOL    C7012130   3.106   0.861   7.785 -0.1038 -0.4540  0.4636
   31MOL    C7112131   2.964   0.853   0.077  0.5396 -0.1290 -0.0112
   31MOL    H7212132   3.141   0.952   8.033  0.5028  2.3271 -2.6682
   31MOL    H7312133   2.788   0.894   7.899 -1.6864 -3.7232 -1.3067
   31MOL    H7412134   2.741   0.825   7.673  0.9166 -1.5554 -0.5857
   31MOL    H7512135   3.028   0.919   7.421 -1.7526 -0.0725  2.1805
   31MOL    H7612136   2.925   0.854   7.289 -0.0121  1.6631  1.6887
   31MOL    H7712137   3.069   0.769   7.332  1.6666  0.6156  0.5924
   31MOL    H7812138   3.159   0.780   7.593 -1.2736 -1.3183 -1.5310
   31MOL    H7912139   3.210   0.864   7.815 -0.1188  0.2801  0.4576
   31MOL    H8012140   2.858   0.876   0.088  0.1533 -1.8859 -0.0306
   31MOL    H8112141   2.969   0.750   0.043  1.1408  0.5675 -2.1176
   31MOL    C8212142   3.046   0.837   0.209  0.7083 -0.1424  0.7259
   31MOL    C8312143   3.030   0.971   0.290  0.2024  0.1767  0.1807
   31MOL    C8412144   2.900   1.019   0.317 -0.0882 -0.0404 -1.2008
   31MOL    C8512145   2.880   1.146   0.369  0.1632 -0.0046  0.3814
   31MOL    C8612146   2.988   1.232   0.384 -0.0172 -0.0183 -0.0686
   31MOL    O8712147   2.988   1.361   0.429 -0.5582  0.0885 -0.7164
   31MOL    C8812148   2.861   1.426   0.432 -0.8487 -0.1797  0.0636
   31MOL    C8912149   3.118   1.178   0.359 -0.1555 -0.1608  0.5242
   31MOL    C9012150   3.143   1.050   0.320 -0.3778  0.8053 -0.1069
   31MOL    C9112151   3.014   0.721   0.298  0.2771  0.3083  0.5055
   31MOL    H9212152   3.150   0.833   0.177 -0.1621 -1.7876 -2.0326
   31MOL    H9312153   2.819   0.951   0.292  0.8353 -1.5337 -0.2191
   31MOL    H9412154   2.784   1.184   0.401 -0.1437 -0.4301 -0.0138
   31MOL    H9512155   2.864   1.527   0.473 -0.7120 -0.6579  1.2309
   31MOL    H9612156   2.799   1.377   0.506  1.4025 -1.2542  1.2839
   31MOL    H9712157   2.806   1.433   0.338 -2.2404  1.3255  0.9736
   31MOL    H9812158   3.202   1.242   0.382 -0.5816  1.2549 -1.7499
   31MOL    H9912159   3.240   1.004   0.310 -0.7605 -0.2600  0.9093
   31MOL   H10012160   2.922   0.744   0.353 -1.7458 -0.9845 -2.1962
   31MOL   H10112161   2.996   0.627   0.247 -0.8584  0.1628  1.1486
   31MOL   C10212162   3.137   0.695   0.390 -0.2065  0.4503  0.2318
   31MOL   C10312163   3.082   0.667   0.527 -0.6239 -0.6267  0.1181
   31MOL   C10412164   3.065   0.784   0.610 -0.2871  0.2303 -0.1635
   31MOL   C10512165   3.019   0.772   0.739 -0.6154 -1.2353 -1.0754
   31MOL   C10612166   2.973   0.650   0.787  0.0335 -0.2539  0.5579
   31MOL   O10712167   2.912   0.624   0.903 -0.6890  0.3358 -0.7132
   31MOL   C10812168   2.892   0.739   0.988  0.9231 -0.0148 -0.4864
   31MOL   C10912169   2.987   0.532   0.708 -0.5982 -0.3551 -0.3089
   31MOL   C11012170   3.046   0.540   0.574 -0.2302  0.6486  0.1041
   31MOL   C11112171   3.227   0.571   0.346 -0.1929 -1.0092  0.5940
   31MOL   H11212172   3.193   0.789   0.393 -0.2625  0.5691 -1.7251
   31MOL   H11312173   3.093   0.884   0.580  0.6811 -0.3885 -1.4069
   31MOL   H11412174   3.008   0.860   0.801  0.8240 -0.7484 -1.4888
   31MOL   H11512175   2.977   0.804   1.006 -1.3768  2.6418  1.1174
   31MOL   H11612176   2.812   0.801   0.947  0.5858  0.2506  0.5452
   31MOL   H11712177   2.852   0.707   1.085 -0.0967  0.4255 -0.7490
   31MOL   H11812178   2.951   0.439   0.750  0.4503 -0.5277  0.2034
   31MOL   H11912179   3.058   0.447   0.520  0.3781  0.2221  0.9683
   31MOL   H12012180   3.188   0.471   0.362 -2.9913 -0.1056 -0.2494
   31MOL   H12112181   3.253   0.592   0.242  1.6839 -0.0678  1.2218
   31MOL   C12212182   3.361   0.576   0.425 -0.3975 -0.2918  0.3723
   31MOL   C12312183   3.446   0.704   0.392  0.4222  0.2218  0.7702
   31MOL   C12412184   3.509   0.719   0.263  0.3322 -0.0097 -0.4383
   31MOL   C12512185   3.567   0.840   0.227  0.2986  0.8908 -0.3082
   31MOL   C12612186   3.557   0.950   0.312 -0.6889 -0.2338  0.6870
   31MOL   O12712187   3.615   1.069   0.270  0.5155  0.2766 -0.4002
   31MOL   C12812188   3.634   1.095   0.136 -0.3666 -0.1845  0.2008
   31MOL   C12912189   3.497   0.938   0.436 -0.8323 -0.3877 -0.1063
   31MOL   C13012190   3.438   0.817   0.477 -0.3238  0.0934  0.2885
   31MOL   C13112191   3.445   0.442   0.417  0.3624 -0.5096 -0.1412
   31MOL   H13212192   3.339   0.595   0.530  0.3165  0.2809  0.4243
   31MOL   H13312193   3.507   0.630   0.201 -1.7061 -2.5194  3.0425
   31MOL   H13412194   3.621   0.847   0.134 -0.5145 -1.7449 -1.0125
   31MOL   H13512195   3.547   1.074   0.073 -0.8542  1.6216  0.2618
   31MOL   H13612196   3.662   1.200   0.125  1.2363 -0.5626  0.5035
   31MOL   H13712197   3.715   1.036   0.092 -0.5485 -0.4601  0.2355
   31MOL   H13812198   3.489   1.027   0.496  0.3734 -0.3647  0.0480
   31MOL   H13912199   3.379   0.825   0.567 -0.1943 -1.7771  0.5462
   31MOL   H14012200   3.549   0.467   0.436  0.3383 -1.2335  0.9943
   31MOL   H14112201   3.448   0.416   0.311  1.7330  1.2780 -0.5571
   31MOL   C14212202   3.395   0.325   0.510 -0.0282 -0.0259 -0.4872
   31MOL   C14312203   3.394   0.194   0.439 -0.4042 -0.4686  0.3544
   31MOL   C14412204   3.274   0.138   0.398  0.0698 -0.3438  0.2543
   31MOL   C14512205   3.283   0.019   0.328 -0.3020 -0.2674 -0.7353
   31MOL   C14612206   3.395   7.974   0.316  0.4611 -0.0679 -0.3578
   31MOL   O14712207   3.377   7.844   0.262 -0.5056 -0.5087 -0.3104
   31MOL   C14812208   3.459   7.744   0.306  0.0312 -0.4655  0.9568
   31MOL   C14912209   3.513   8.029   0.365  0.0339  0.1751  0.3592
   31MOL   C15012210   3.515   0.119   0.425 -0.3475 -0.1164 -0.9761
   31MOL   C15112211   3.479   0.325   0.644 -0.4433 -0.3649 -0.2742
   31MOL   H15212212   3.291   0.352   0.526 -0.6230 -1.5492 -1.6706
   31MOL   H15312213   3.186   0.199   0.405 -0.1560 -0.5321 -0.9320
   31MOL   H15412214   3.191   8.015   0.293 -1.6044  1.0018  1.0117
   31MOL   H15512215   3.465   7.667   0.229  2.8931  0.2853  0.3970
   31MOL   H15612216   3.558   7.784   0.325 -1.4749  3.0001  1.7554
   31MOL   H15712217   3.420   7.690   0.393 -1.4663  0.5392  0.9187
   31MOL   H15812218   3.612   7.986   0.359  1.1426  2.1435  3.1995
   31MOL   H15912219   3.604   0.175   0.449 -0.8087  0.1481  0.1425
   31MOL   H16012220   3.464   0.416   0.702 -0.2438 -1.9926  2.3910
   31MOL   H16112221   3.582   0.312   0.609 -0.6617 -2.2108 -0.2509
   31MOL   C16212222   3.440   0.217   0.750  0.0240  0.4014  0.2024
   31MOL   C16312223   3.292   0.213   0.782  0.2798 -0.1784  0.1543
   31MOL   C16412224   3.247   0.303   0.876  0.9478 -0.6101 -0.1732
   31MOL   C16512225   3.115   0.297   0.918 -0.1761  0.2727 -0.1739
   31MOL   C16612226   3.024   0.203   0.868  0.1294  0.3563 -0.4209
   31MOL   O16712227   2.891   0.209   0.907  0.2345 -0.7397 -0.0862
   31MOL   C16812228   2.807   0.101   0.866 -0.4958 -0.1147 -0.1979
   31MOL   C16912229   3.072   0.112   0.770  0.4007  0.0571  0.3211
   31MOL   C17012230   3.207   0.118   0.727  0.6077 -0.0422 -0.3062
   31MOL   C17112231   3.537   0.235   0.878  0.2255 -0.1417 -0.5042
   31MOL   H17212232   3.457   0.129   0.689  0.7270 -0.8166  2.0919
   31MOL   H17312233   3.308   0.382   0.920 -0.0817  0.6251 -0.9299
   31MOL   H17412234   3.083   0.369   0.992  0.2601 -0.3579  0.6458
   31MOL   H17512235   2.774   0.124   0.765 -0.9146 -0.2455 -0.0905
   31MOL   H17612236   2.714   0.109   0.923 -1.6845  1.0023 -2.2376
   31MOL   H17712237   2.854   0.004   0.885 -1.0766 -0.1115  1.3582
   31MOL   H17812238   3.016   0.037   0.717 -0.4370  1.3488 -0.6436
   31MOL   H17912239   3.245   0.043   0.660 -0.7290 -0.7323 -0.3216
   31MOL   H18012240   3.495   0.164   0.949 -0.2743 -0.8443 -1.4812
   31MOL   H18112241   3.515   0.332   0.921 -2.8139 -2.2735  3.0270
   31MOL   C18212242   3.681   0.209   0.856 -0.7339 -0.0322 -0.2790
   31MOL   C18312243   3.711   0.084   0.772 -0.0627  0.0117 -0.4968
   31MOL   C18412244   3.644   7.998   0.801  0.3827 -0.6295 -0.2752
   31MOL   C18512245   3.664   7.887   0.715  0.2134 -0.6989 -0.3070
   31MOL   C18612246   3.749   7.901   0.604  0.1676  0.6686 -0.2962
   31MOL   O18712247   3.764   7.795   0.513 -0.1808  0.6207 -0.4625
   31MOL   C18812248   3.835   7.805   0.393 -0.6717 -0.0552  0.0190
   31MOL   C18912249   3.817   8.026   0.582 -0.3299  0.8961  0.1721
   31MOL   C19012250   3.805   0.097   0.666 -1.0895  0.7983  0.4949
   31MOL   C19112251   3.761   0.185   0.991 -0.4080 -0.1091 -0.4774
   31MOL   H19212252   3.726   0.288   0.796 -1.0380  1.7311  1.7504
   31MOL   H19312253   3.580   7.987   0.887  0.5061  0.9494  0.0290
   31MOL   H19412254   3.618   7.793   0.739 -1.0936  0.2471  0.9413
   31MOL   H19512255   3.941   7.783   0.409 -0.5360 -0.0028 -0.7548
   31MOL   H19612256   3.831   7.903   0.346  1.0859  0.0682  0.0733
   31MOL   H19712257   3.809   7.725   0.323  1.0211 -0.9176  0.3409
   31MOL   H19812258   3.900   8.039   0.515 -0.7745  2.0764 -0.1481
   31MOL   H19912259   3.857   0.188   0.642  2.1829 -0.8110  1.2536
   31MOL   H20012260   3.711   0.142   1.078  2.3544 -0.2927  1.0730
   31MOL   H20112261   3.832   0.104   0.977  0.0065  0.0126  0.8643
   31MOL   C20212262   3.847   0.305   1.032 -0.4302 -0.5434 -0.5815
   31MOL   C20312263   3.944   0.278   1.146  0.3917  0.3257 -0.1097
   31MOL   C20412264   4.085   0.261   1.137  0.3716 -0.5928 -0.4316
   31MOL   C20512265   4.162   0.243   1.251 -0.9799 -0.3724 -0.0322
   31MOL   C20612266   4.108   0.216   1.377 -0.4942 -0.3541  0.0280
   31MOL   O20712267   4.192   0.195   1.479 -0.2931 -0.4265 -0.3011
   31MOL   C20812268   4.129   0.169   1.608 -0.2419  0.1422  0.3581
   31MOL   C20912269   3.970   0.230   1.388 -0.1822 -0.0800  0.3151
   31MOL   C21012270   3.889   0.253   1.274  0.5063 -0.2179  0.0836
   31MOL   C21112271   3.770   0.438   1.060  0.0342 -0.8945 -0.1582
   31MOL   H21212272   3.909   0.320   0.944 -0.5328  1.5489 -0.3332
   31MOL   H21312273   4.125   0.260   1.036 -0.6547 -2.7773 -0.8624
   31MOL   H21412274   4.268   0.223   1.256 -0.8252  0.7888  2.0026
   31MOL   H21512275   4.080   0.258   1.647 -2.1202 -0.3894 -0.7196
   31MOL   H21612276   4.062   0.083   1.607 -1.8690  1.3479  2.2232
   31MOL   H21712277   4.192   0.143   1.693 -2.3546 -1.1640  1.5776
   31MOL   H21812278   3.911   0.211   1.476 -1.0950 -1.3387 -0.5429
   31MOL   H21912279   3.782   0.246   1.279  0.5648 -0.2368  1.8049
   31MOL   H22012280   3.724   0.428   1.158  1.5407 -2.0175  0.4516
   31MOL   H22112281   3.693   0.447   0.983  0.4270 -1.0198 -0.5706
   31MOL   C22212282   3.846   0.564   1.043 -0.0648  0.1596  0.1148
   31MOL   C22312283   3.863   0.582   0.891 -0.0375  0.6125 -0.1111
   31MOL   C22412284   3.991   0.561   0.835  0.6626 -0.1662 -0.4548
   31MOL   C22512285   4.022   0.610   0.708 -0.0351 -0.6486 -0.1732
   31MOL   C22612286   3.921   0.667   0.624 -0.0256 -0.1101 -0.0696
   31MOL   O22712287   3.960   0.717   0.503  0.3787 -0.5979  0.5933
   31MOL   C22812288   3.857   0.757   0.414  0.7354  0.2821  0.3466
   31MOL   C22912289   3.791   0.671   0.677  0.6574 -0.5509 -0.1070
   31MOL   C23012290   3.762   0.626   0.808 -0.1228  0.1146 -0.1640
   31MOL   C23112291   3.788   0.682   1.121  0.1413 -0.3941  0.3122
   31MOL   H23212292   3.950   0.553   1.075 -0.4578 -0.0051  1.3533
   31MOL   H23312293   4.075   0.525   0.892  1.5524  1.2283 -0.8630
   31MOL   H23412294   4.122   0.616   0.668 -0.2452 -0.4871 -0.6914
   31MOL   H23512295   3.812   0.850   0.449  1.0370  0.7417 -0.4794
   31MOL   H23612296   3.909   0.781   0.321 -1.3963 -1.1306 -1.2463
   31MOL   H23712297   3.786   0.677   0.398 -1.4956  2.1461  0.5855
   31MOL   H23812298   3.704   0.701   0.621  1.5103 -1.6538 -2.0577
   31MOL   H23912299   3.666   0.634   0.857  0.1991 -1.4543  0.7459
   31MOL   H24012300   3.829   0.773   1.077  0.4084  0.3648  2.1039
   31MOL   H24112301   3.680   0.684   1.109  0.1215 -0.4336  0.4758
   31MOL   C24212302   3.814   0.684   1.272 -0.4209 -0.1889 -0.1538
   31MOL   C24312303   3.965   0.688   1.306 -0.8111  0.2375  0.0091
   31MOL   C24412304   4.025   0.579   1.368 -0.1343 -0.4467 -0.5637
   31MOL   C24512305   4.163   0.579   1.402  0.1030  0.5858 -0.0247
   31MOL   C24612306   4.242   0.690   1.360 -0.6217 -0.1020 -0.8367
   31MOL   O24712307   4.381   0.694   1.391  0.3592 -0.2003  0.0279
   31MOL   C24812308   4.464   0.585   1.354  0.4941 -0.0925 -0.6145
   31MOL   C24912309   4.180   0.803   1.303  0.9668 -0.5298  0.1087
   31MOL   C25012310   4.045   0.802   1.278 -0.2367 -0.1227  0.3234
   31MOL   C25112311   3.745   0.800   1.348  0.8756  0.7862  0.3596
   31MOL   H25212312   3.776   0.593   1.319  0.3138 -0.5460 -0.2322
   31MOL   H25312313   3.961   0.495   1.391  0.1527 -0.3161  0.7604
   31MOL   H25412314   4.199   0.498   1.463 -0.2049  0.7378  0.3521
   31MOL   H25512315   4.431   0.536   1.263  0.4124 -3.4661  1.1405
   31MOL   H25612316   4.570   0.607   1.355 -0.0196  2.7264 -2.5426
   31MOL   H25712317   4.454   0.502   1.424 -2.4656  0.6213 -0.1084
   31MOL   H25812318   4.240   0.892   1.287 -1.8952  1.6777  1.3543
   31MOL   H25912319   3.989   0.883   1.233 -0.7785 -2.8201 -4.1245
   31MOL   H26012320   3.646   0.822   1.310  0.4292  0.5407  1.3616
   31MOL   H26112321   3.802   0.890   1.324  0.9738  0.8871  0.9626
   31MOL   C26212322   3.744   0.791   1.507  0.2845  0.2951 -0.4116
   31MOL   C26312323   3.695   0.655   1.551 -1.2439  0.6831  0.5320
   31MOL   C26412324   3.563   0.612   1.519  0.0570 -0.0588  0.1310
   31MOL   C26512325   3.531   0.471   1.528  0.1511 -0.0754 -0.0382
   31MOL   C26612326   3.618   0.380   1.596  0.5322 -0.3561 -0.2517
   31MOL   O26712327   3.584   0.251   1.612 -0.0404  0.5162  0.1495
   31MOL   C26812328   3.635   0.185   1.729 -0.1241 -0.5597  0.4797
   31MOL   C26912329   3.750   0.427   1.639 -0.3132 -0.5054 -0.2251
   31MOL   C27012330   3.785   0.567   1.618 -0.3892  0.2817  0.3672
   31MOL   C27112331   3.687   0.910   1.590 -0.5252  0.0262 -0.0837
   31MOL   H27212332   3.850   0.804   1.531  0.2586 -0.4468  0.1168
   31MOL   H27312333   3.493   0.672   1.462  0.6868  1.3340  0.8074
   31MOL   H27412334   3.433   0.434   1.501 -0.2376  1.6586 -1.0342
   31MOL   H27512335   3.739   0.159   1.710  0.4132  0.7449  1.5388
   31MOL   H27612336   3.585   0.092   1.753  0.6794 -0.5462  2.2649
   31MOL   H27712337   3.627   0.258   1.810  0.5376 -0.9339  0.8871
   31MOL   H27812338   3.826   0.365   1.683  1.4343  1.1806 -0.8236
   31MOL   H27912339   3.886   0.588   1.647  0.2811 -2.9560  0.5520
   31MOL   H28012340   3.581   0.918   1.567 -0.4688  1.1893  0.0162
   31MOL   H28112341   3.696   0.889   1.697 -0.6836 -1.2420 -0.3090
   31MOL   C28212342   3.748   1.050   1.556  0.5120  0.1942 -0.0987
   31MOL   C28312343   3.897   1.067   1.575 -0.0942 -0.8962 -1.0873
   31MOL   C28412344   3.955   1.012   1.689  0.1847 -0.6118 -0.2851
   31MOL   C28512345   4.091   1.018   1.715 -0.0293 -0.3456  0.1268
   31MOL   C28612346   4.175   1.094   1.625  0.1537  0.0554 -0.2367
   31MOL   O28712347   4.306   1.099   1.652 -0.8573 -0.9056 -0.6724
   31MOL   C28812348   4.393   1.155   1.554  0.6090  0.9583 -0.3496
   31MOL   C28912349   4.107   1.164   1.518 -0.4653 -0.0572  0.1540
   31MOL   C29012350   3.972   1.142   1.487  0.1121 -0.1587 -0.2642
   31MOL   C29112351   3.677   1.164   1.628  0.1043  0.2187 -0.3533
   31MOL   H29212352   3.722   1.057   1.451 -0.2635  0.4242  0.1058
   31MOL   H29312353   3.900   0.949   1.758  1.2428 -0.9589  0.2591
   31MOL   H29412354   4.132   0.973   1.805  0.2874 -2.1931 -0.9089
   31MOL   H29512355   4.378   1.260   1.528  1.1831  0.7813 -1.4326
   31MOL   H29612356   4.498   1.146   1.579  0.8710  1.7213 -1.1324
   31MOL   H29712357   4.374   1.110   1.456 -0.8876  0.6029  0.0998
   31MOL   H29812358   4.163   1.231   1.454 -0.5690  2.2173  2.3717
   31MOL   H29912359   3.925   1.194   1.405 -0.4384 -0.6666 -0.2649
   31MOL   H30012360   3.667   1.135   1.732  2.5289  2.7150  0.6415
   31MOL   H30112361   3.734   1.256   1.611 -1.3704  1.0093 -1.1654
   31MOL   C30212362   3.538   1.210   1.576 -0.6007 -0.6977 -0.0659
   31MOL   C30312363   3.463   1.298   1.682 -0.4770  0.1636  1.1146
   31MOL   C30412364   3.324   1.288   1.705  0.3655  0.6500 -0.6181
   31MOL   C30512365   3.270   1.353   1.815 -0.6945 -0.4880  0.0741
   31MOL   C30612366   3.341   1.447   1.895 -0.0917 -0.5289 -0.1091
   31MOL   O30712367   3.276   1.504   1.997  0.0211 -0.2495 -0.1374
   31MOL   C30812368   3.351   1.538   2.111 -0.0266  0.3826  0.5798
   31MOL   C30912369   3.475   1.461   1.868  1.2579 -0.6150  0.3776
   31MOL   C31012370   3.536   1.388   1.764  0.5670  0.3745  0.0245
   31MOL   C31112371   3.542   1.285   1.444  0.7418 -0.5890  0.2250
   31MOL   H31212372   3.472   1.124   1.569 -2.8909  1.1537 -1.8722
   31MOL   H31312373   3.264   1.211   1.659 -1.0737  0.4710  1.4988
   31MOL   H31412374   3.163   1.343   1.826 -0.5847 -1.1744  0.6052
   31MOL   H31512375   3.416   1.458   2.146  1.1218 -0.0812 -2.4990
   31MOL   H31612376   3.288   1.573   2.193  0.3803  3.7504 -0.4715
   31MOL   H31712377   3.414   1.623   2.089 -1.1458  1.8478  2.8378
   31MOL   H31812378   3.535   1.539   1.913 -1.2146  0.2649  2.2486
   31MOL   H31912379   3.640   1.412   1.748  1.1713  0.4181  3.6044
   31MOL   H32012380   3.634   1.262   1.390  0.3607 -0.8644 -0.3038
   31MOL   H32112381   3.547   1.390   1.473 -0.2384 -0.8677  1.4801
   31MOL   C32212382   3.421   1.254   1.346 -0.1945 -0.3393 -0.8584
   31MOL   C32312383   3.433   1.130   1.257 -0.0376 -0.1972 -0.2272
   31MOL   C32412384   3.333   1.025   1.259  0.2494  0.1271  0.0540
   31MOL   C32512385   3.348   0.915   1.169  0.0713 -0.2386  1.6480
   31MOL   C32612386   3.467   0.904   1.087  0.6152  0.3514  0.4310
   31MOL   O32712387   3.483   0.811   0.991 -0.2604  0.2685  0.3169
   31MOL   C32812388   3.398   0.692   1.002 -0.1565  0.4770  0.0736
   31MOL   C32912389   3.561   1.009   1.085  0.1851 -0.3415 -0.5174
   31MOL   C33012390   3.542   1.122   1.175 -0.2816  0.0715  0.5022
   31MOL   C33112391   3.393   1.382   1.268  0.3238 -0.0737 -0.2035
   31MOL   H33212392   3.330   1.234   1.403  0.0516  0.2207 -0.2627
   31MOL   H33312393   3.249   1.042   1.326 -0.0039  0.9366 -0.4603
   31MOL   H33412394   3.272   0.838   1.178 -3.3767  2.9312  0.9560
   31MOL   H33512395   3.410   0.641   0.906  0.1137  1.4173 -0.3964
   31MOL   H33612396   3.291   0.709   1.006 -0.7006 -3.1117  3.4411
   31MOL   H33712397   3.427   0.626   1.083  0.9727  0.9207  0.0381
   31MOL   H33812398   3.643   1.014   1.015  1.2672  0.5660  0.7781
   31MOL   H33912399   3.615   1.201   1.171 -0.6696  0.5181  2.0015
   31MOL   H34012400   3.483   1.418   1.218  0.9171 -1.9609 -0.4984
   31MOL   H34112401   3.333   1.359   1.180 -0.6357 -1.6245  0.8343
   31MOL   C34212402   3.321   1.496   1.337  1.0230  0.2079  0.3006
   31MOL   C34312403   3.178   1.458   1.365  1.1188 -0.0258 -0.0991
   31MOL   C34412404   3.090   1.436   1.257 -0.1303  0.6242 -1.1575
   31MOL   C34512405   2.962   1.388   1.272  0.0460  0.5948 -0.1863
   31MOL   C34612406   2.909   1.387   1.401  0.7231  0.3333  0.7225
   31MOL   O34712407   2.789   1.336   1.414 -0.5319 -0.7185  0.2956
   31MOL   C34812408   2.719   1.331   1.533 -0.1601  0.0821  0.2009
   31MOL   C34912409   2.988   1.428   1.511  1.0312 -0.4060 -0.1896
   31MOL   C35012410   3.122   1.465   1.492 -0.2771  0.6377 -0.3246
   31MOL   C35112411   3.337   1.625   1.257 -0.7183  0.7055 -0.0239
   31MOL   H35212412   3.367   1.498   1.436  0.2427 -0.6417  0.6822
   31MOL   H35312413   3.131   1.441   1.157 -0.6262  0.2145 -1.3816
   31MOL   H35412414   2.893   1.356   1.195  0.3729 -1.7395  0.4289
   31MOL   H35512415   2.767   1.262   1.603 -0.1239 -0.5142 -0.4030
   31MOL   H35612416   2.707   1.430   1.577 -0.6810  0.6867 -1.2624
   31MOL   H35712417   2.624   1.280   1.520  0.7109 -1.5830  0.2151
   31MOL   H35812418   2.950   1.428   1.612  0.1633  0.3089 -0.5109
   31MOL   H35912419   3.177   1.504   1.576 -1.9815  1.1361  0.5904
   31MOL   H36012420   3.338   1.602   1.150 -0.2255 -0.1271  0.1527
   31MOL   H36112421   3.252   1.693   1.260 -1.0814  0.2620 -0.1163
   31MOL   C36212422   3.459   1.710   1.295  0.3539 -0.8583  0.4195
   31MOL   C36312423   3.448   1.743   1.438 -0.4314  0.7052 -0.0118
   31MOL   C36412424   3.554   1.710   1.517  0.0299  0.6057 -1.0639
   31MOL   C36512425   3.547   1.741   1.658 -0.9732 -0.3469  0.3554
   31MOL   C36612426   3.438   1.804   1.719 -1.2232 -0.0168 -0.1756
   31MOL   O36712427   3.442   1.852   1.849  0.1642 -0.0148  0.0747
   31MOL   C36812428   3.329   1.919   1.900 -0.0550  0.2606  0.5916
   31MOL   C36912429   3.330   1.840   1.632  0.1819  0.9022 -0.0625
   31MOL   C37012430   3.330   1.807   1.496  0.2702 -0.5382  0.7496
   31MOL   C37112431   3.470   1.828   1.201 -0.4279  0.5429  0.1663
   31MOL   H37212432   3.542   1.641   1.277 -0.0010 -1.3687  0.7241
   31MOL   H37312433   3.641   1.659   1.478  0.6830  0.1288  1.0006
   31MOL   H37412434   3.638   1.719   1.710  0.3608  0.2574 -1.6444
   31MOL   H37512435   3.334   1.942   2.006 -1.1729 -0.7416  0.8733
   31MOL   H37612436   3.322   2.011   1.843  0.7181  0.2579  0.4857
   31MOL   H37712437   3.237   1.862   1.886  0.0133 -0.2031  1.9620
   31MOL   H37812438   3.247   1.899   1.668 -0.9156 -1.0698  0.7102
   31MOL   H37912439   3.253   1.846   1.431  0.1594  0.0927  1.2464
   31MOL   H38012440   3.505   1.797   1.102  0.2777 -0.5621  0.7475
   31MOL   H38112441   3.370   1.868   1.187 -0.5878  0.6164  1.4505
   31MOL   C38212442   3.563   1.946   1.247  0.1306 -0.2611  0.3907
   31MOL   C38312443   3.519   2.080   1.194  0.1406 -0.0056  0.9857
   31MOL   C38412444   3.469   2.182   1.280 -0.1957  0.3683 -0.9565
   31MOL   C38512445   3.414   2.303   1.228  0.3110  0.4514  0.2862
   31MOL   C38612446   3.408   2.326   1.093  0.2143  0.5027  0.0493
   31MOL   O38712447   3.359   2.450   1.054 -0.1280 -0.3273  0.1644
   31MOL   C38812448   3.385   2.478   0.923  0.9827  0.2834 -0.4261
   31MOL   C38912449   3.448   2.222   1.003 -0.2813  0.1345  0.0766
   31MOL   C39012450   3.513   2.107   1.054  0.0971  0.2132 -0.7241
   31MOL   C39112451   3.709   1.908   1.212 -1.0224 -0.7883 -0.5169
   31MOL   H39212452   3.559   1.961   1.355  0.9317  2.3875  0.0729
   31MOL   H39312453   3.478   2.173   1.387  1.6340  1.8352 -0.9724
   31MOL   H39412454   3.376   2.377   1.296  1.5831  0.0094  1.5103
   31MOL   H39512455   3.354   2.582   0.916 -2.9011 -0.8063 -0.6901
   31MOL   H39612456   3.332   2.418   0.849  1.0673  3.0574 -2.8025
   31MOL   H39712457   3.493   2.483   0.913  1.2572 -0.8204  1.6464
   31MOL   H39812458   3.433   2.234   0.897  2.2877 -1.8651 -0.5559
   31MOL   H39912459   3.532   2.024   0.986  0.2890  0.8680 -1.4738
   31MOL   H40012460   3.722   1.925   1.105  1.2694 -1.3293 -0.3363
   31MOL   H40112461   3.744   1.806   1.231 -1.3506 -0.5424  1.4762
   31MOL   H40212462   3.774   1.983   1.256 -2.2207  0.7524 -1.3317
   32MOL     C112463   1.754   1.189   4.813  0.2985  0.4771 -0.2790
   32MOL     C212464   1.728   1.291   4.926  0.1963 -0.2720 -0.3844
   32MOL     C312465   1.613   1.294   5.004 -0.2284  0.6659  0.0056
   32MOL     C412466   1.593   1.388   5.107  0.1310  0.0339  0.0460
   32MOL     C512467   1.698   1.474   5.133 -0.2432 -0.0203  0.6168
   32MOL     O612468   1.698   1.558   5.241 -0.2543  0.1843 -0.2045
   32MOL     C712469   1.714   1.495   5.373  0.1615 -0.0316  0.4450
   32MOL     C812470   1.817   1.477   5.051  0.9165 -0.5070 -0.4896
   32MOL     C912471   1.827   1.378   4.950  0.4687 -0.2082 -0.0145
   32MOL    C1012472   1.661   1.221   4.698 -1.0622  0.0001 -0.8277
   32MOL    H1112473   1.739   1.092   4.862  0.8244  0.6900  0.3059
   32MOL    H1212474   1.537   1.219   4.990 -0.6581  1.1521 -0.2723
   32MOL    H1312475   1.503   1.391   5.166  0.1355 -1.6260  0.1623
   32MOL    H1412476   1.720   1.388   5.356  1.6201  0.0827  0.1912
   32MOL    H1512477   1.801   1.541   5.419 -0.2826 -1.6923  3.0082
   32MOL    H1612478   1.629   1.509   5.439 -1.8361 -0.5860 -1.9295
   32MOL    H1712479   1.896   1.549   5.066  1.5520 -0.9899 -1.3959
   32MOL    H1812480   1.907   1.371   4.878  3.1919 -0.0166  2.8875
   32MOL    H1912481   1.641   1.129   4.642  0.4899 -0.8689 -0.0176
   32MOL    H2012482   1.560   1.240   4.732 -0.7010 -1.7216  1.3500
   32MOL    H2112483   1.859   1.175   4.790  0.8084  0.5544  1.8713
   32MOL    C2212484   1.717   1.334   4.606  0.0061  0.7502 -0.0639
   32MOL    C2312485   1.831   1.271   4.526  0.3647 -0.6274  0.1569
   32MOL    C2412486   1.822   1.145   4.456  0.3724  0.1938  0.0204
   32MOL    C2512487   1.928   1.088   4.389 -0.4256  0.5496 -0.3334
   32MOL    C2612488   2.057   1.143   4.404 -0.5725  0.3393 -0.2935
   32MOL    O2712489   2.166   1.081   4.351 -0.7316  0.5793 -0.4370
   32MOL    C2812490   2.147   0.975   4.258 -0.3079 -0.4016 -0.1235
   32MOL    C2912491   2.072   1.260   4.479  0.1783 -0.9567 -0.4143
   32MOL    C3012492   1.959   1.324   4.536 -0.7124 -0.1388 -0.4754
   32MOL    C3112493   1.616   1.390   4.505 -0.3910  1.0207  0.3492
   32MOL    H3212494   1.750   1.418   4.666  2.0179 -0.0412 -0.0395
   32MOL    H3312495   1.727   1.096   4.442  1.2332 -1.4457 -0.1855
   32MOL    H3412496   1.907   0.989   4.350 -0.0615  0.1302  0.5258
   32MOL    H3512497   2.239   0.935   4.216 -0.7459 -0.0574 -1.4418
   32MOL    H3612498   2.100   1.009   4.166  1.1597  0.7758 -0.4582
   32MOL    H3712499   2.091   0.890   4.297 -0.8056  0.0316  0.1067
   32MOL    H3812500   2.172   1.300   4.485 -0.7472  1.3701 -0.2272
   32MOL    H3912501   1.973   1.412   4.597 -0.0140 -1.9826  2.1383
   32MOL    H4012502   1.658   1.449   4.424  0.1607  2.1560  1.4328
   32MOL    H4112503   1.575   1.300   4.459  0.7482  0.8214 -0.2928
   32MOL    C4212504   1.496   1.466   4.578  0.6667 -0.0276  0.0802
   32MOL    C4312505   1.370   1.437   4.501  0.1751 -0.1598  0.6916
   32MOL    C4412506   1.371   1.459   4.362 -0.3463  0.0217 -0.3069
   32MOL    C4512507   1.265   1.418   4.284  0.4119  0.9869  0.2891
   32MOL    C4612508   1.146   1.361   4.349 -0.5841 -0.5364  0.1906
   32MOL    O4712509   1.030   1.323   4.290 -0.5628 -0.8360  0.2125
   32MOL    C4812510   1.015   1.342   4.149 -0.2067  0.9907  0.7292
   32MOL    C4912511   1.148   1.346   4.490 -0.2501 -0.3867 -0.0543
   32MOL    C5012512   1.259   1.385   4.566 -0.4226  0.9131  0.6302
   32MOL    C5112513   1.519   1.618   4.583 -0.1536  0.8725  0.2037
   32MOL    H5212514   1.478   1.428   4.678  1.0907 -0.4116  0.0123
   32MOL    H5312515   1.458   1.501   4.313  0.8174  0.6894  2.2405
   32MOL    H5412516   1.269   1.409   4.177 -0.7655 -0.3225  0.3330
   32MOL    H5512517   0.913   1.312   4.124  0.2581 -0.8172  0.9449
   32MOL    H5612518   1.038   1.443   4.115  1.5443 -0.1524 -1.6333
   32MOL    H5712519   1.079   1.281   4.085 -2.9979 -1.1625 -0.1426
   32MOL    H5812520   1.065   1.301   4.544  0.6685 -1.5523  0.3999
   32MOL    H5912521   1.259   1.365   4.673 -0.5720  2.2105  0.8823
   32MOL    H6012522   1.533   1.670   4.489 -0.4749  0.1775 -0.2363
   32MOL    H6112523   1.616   1.634   4.629 -1.0712  3.3102  1.3802
   32MOL    C6212524   1.416   1.692   4.675 -0.2204  0.1789 -0.1384
   32MOL    C6312525   1.396   1.834   4.624  0.4667  0.1859  0.1797
   32MOL    C6412526   1.496   1.930   4.642  0.4251 -0.1232 -0.6334
   32MOL    C6512527   1.464   2.066   4.647  0.7918 -0.2120  0.5416
   32MOL    C6612528   1.341   2.109   4.598 -0.7067 -0.3816 -0.9767
   32MOL    O6712529   1.326   2.245   4.595  0.1864  0.3835 -0.2761
   32MOL    C6812530   1.222   2.291   4.503  0.3463  0.4293 -0.1693
   32MOL    C6912531   1.246   2.012   4.552  0.2383  0.2030 -0.2040
   32MOL    C7012532   1.274   1.878   4.568 -0.8533 -0.1475 -0.0577
   32MOL    C7112533   1.471   1.694   4.821 -0.2715  0.2344  0.5836
   32MOL    H7212534   1.324   1.633   4.673 -0.4374  0.5288 -1.0414
   32MOL    H7312535   1.599   1.907   4.665  0.8530  0.0965 -2.2662
   32MOL    H7412536   1.543   2.134   4.674  1.2010 -0.5347  0.1868
   32MOL    H7512537   1.235   2.399   4.515  3.3261  0.2091 -1.0740
   32MOL    H7612538   1.120   2.274   4.538 -0.3976  0.3518 -2.3434
   32MOL    H7712539   1.221   2.265   4.397 -0.3307 -1.6598  0.3203
   32MOL    H7812540   1.151   2.041   4.510  0.2916 -0.7685 -1.0072
   32MOL    H7912541   1.197   1.807   4.541  0.6136 -1.0516 -1.9846
   32MOL    H8012542   1.495   1.591   4.844 -0.3498  0.0682 -0.0750
   32MOL    H8112543   1.561   1.753   4.835 -0.9346  1.5883 -0.7019
   32MOL    C8212544   1.363   1.740   4.926  0.5054  0.3146  0.2454
   32MOL    C8312545   1.241   1.654   4.936 -0.2694  1.0376 -0.1004
   32MOL    C8412546   1.108   1.708   4.930  1.0563 -0.5707  0.1487
   32MOL    C8512547   0.992   1.622   4.924  0.1935  0.4075  0.1441
   32MOL    C8612548   1.012   1.477   4.925  1.1344 -0.0444  0.4910
   32MOL    O8712549   0.908   1.386   4.934 -0.4136 -0.6510  0.3106
   32MOL    C8812550   0.913   1.271   4.860 -0.0074 -0.1081  0.3822
   32MOL    C8912551   1.143   1.429   4.933 -0.3100  0.3079  0.2397
   32MOL    C9012552   1.257   1.514   4.932 -0.9598 -0.2854  0.6291
   32MOL    C9112553   1.419   1.755   5.066 -0.1191 -0.5615  0.2800
   32MOL    H9212554   1.308   1.830   4.900 -0.9704 -0.4924  0.4762
   32MOL    H9312555   1.084   1.811   4.911 -0.8784 -1.2462 -1.2076
   32MOL    H9412556   0.899   1.676   4.922 -0.8027 -1.1726  2.1212
   32MOL    H9512557   0.866   1.276   4.762 -0.4813  1.9510  0.6861
   32MOL    H9612558   0.874   1.200   4.933 -0.3889  1.8759  2.1702
   32MOL    H9712559   1.014   1.243   4.832 -0.1467 -1.2507  1.0061
   32MOL    H9812560   1.156   1.322   4.941 -1.4314  0.1366 -0.1646
   32MOL    H9912561   1.349   1.461   4.949 -1.1196 -0.5705  0.6198
   32MOL   H10012562   1.441   1.658   5.111 -0.9473 -0.0392  1.8510
   32MOL   H10112563   1.519   1.798   5.066  0.2830 -1.4758 -0.7737
   32MOL   C10212564   1.336   1.834   5.168  0.4097  0.4558 -0.1350
   32MOL   C10312565   1.375   1.803   5.308 -0.2161 -0.1868  0.4074
   32MOL   C10412566   1.278   1.798   5.407 -0.3134  0.0392 -0.5306
   32MOL   C10512567   1.318   1.784   5.542 -0.6441 -0.2568 -0.5689
   32MOL   C10612568   1.447   1.759   5.582  0.0649  1.2363 -0.0986
   32MOL   O10712569   1.463   1.737   5.721 -0.7348  0.3026 -0.3158
   32MOL   C10812570   1.585   1.673   5.755 -0.2688 -0.1993  0.2318
   32MOL   C10912571   1.550   1.765   5.481 -0.4431  0.0301 -0.2630
   32MOL   C11012572   1.510   1.786   5.348 -0.9547 -0.3716 -0.3769
   32MOL   C11112573   1.356   1.986   5.136 -0.3916  0.0587 -0.3045
   32MOL   H11212574   1.232   1.815   5.141  0.1863  0.9867  0.3317
   32MOL   H11312575   1.178   1.816   5.369 -0.6583  4.2257  2.0175
   32MOL   H11412576   1.239   1.775   5.615 -0.2742 -0.2327 -0.1633
   32MOL   H11512577   1.591   1.575   5.707  0.8025  0.0356 -0.1332
   32MOL   H11612578   1.675   1.720   5.715  0.5612 -1.7575  0.2267
   32MOL   H11712579   1.598   1.670   5.863  0.0562 -0.1148  0.1940
   32MOL   H11812580   1.655   1.755   5.506 -0.2006 -0.3200 -1.3808
   32MOL   H11912581   1.589   1.804   5.275 -1.8120 -0.8563 -1.4396
   32MOL   H12012582   1.440   2.013   5.200  0.1390 -0.3492 -0.8252
   32MOL   H12112583   1.374   2.007   5.030  1.0914  0.5448  0.0352
   32MOL   C12212584   1.243   2.075   5.180  0.0661  0.2364 -0.8828
   32MOL   C12312585   1.128   2.068   5.085  0.3580  0.0207 -0.3851
   32MOL   C12412586   1.000   2.045   5.144  0.2299  0.6778 -0.1592
   32MOL   C12512587   0.887   2.060   5.060 -0.1052 -0.3908  0.5214
   32MOL   C12612588   0.896   2.062   4.919 -0.1644  0.3529 -0.2496
   32MOL   O12712589   0.779   2.065   4.841  0.2763 -0.0882  0.2984
   32MOL   C12812590   0.805   2.020   4.710  0.9485  0.0863  0.1321
   32MOL   C12912591   1.026   2.070   4.865  0.3846 -0.3212 -0.8998
   32MOL   C13012592   1.140   2.079   4.944  0.0467  0.7205  0.0184
   32MOL   C13112593   1.283   2.221   5.193  0.3292 -0.2089  0.3767
   32MOL   H13212594   1.205   2.034   5.274 -2.2248  0.8477 -1.5186
   32MOL   H13312595   0.988   2.036   5.251 -1.3619 -0.2710 -0.4069
   32MOL   H13412596   0.790   2.075   5.106  0.0431  4.2265 -0.4236
   32MOL   H13512597   0.855   2.099   4.655 -0.7199 -0.5840 -2.4435
   32MOL   H13612598   0.845   1.920   4.694  1.5831  0.8063 -3.1210
   32MOL   H13712599   0.703   2.018   4.672  1.0127  3.6359 -0.3751
   32MOL   H13812600   1.052   2.064   4.761  1.3255  0.0157 -0.6911
   32MOL   H13912601   1.238   2.090   4.899 -0.0651  2.6232  0.2109
   32MOL   H14012602   1.285   2.265   5.093 -1.2220  0.1736  0.5070
   32MOL   H14112603   1.384   2.231   5.234 -0.0222 -1.4227  1.5460
   32MOL   C14212604   1.187   2.299   5.288  0.5427 -0.3982 -0.7918
   32MOL   C14312605   1.181   2.245   5.429 -0.0594 -0.2589  0.3954
   32MOL   C14412606   1.297   2.230   5.505 -0.7069 -0.5178  0.0733
   32MOL   C14512607   1.294   2.177   5.638 -0.3268  0.1346  0.8674
   32MOL   C14612608   1.173   2.140   5.692 -0.2913 -1.1803 -0.2490
   32MOL   O14712609   1.155   2.102   5.824 -0.1003  0.0004  0.2698
   32MOL   C14812610   1.272   2.068   5.898  0.0252 -0.0235  0.3094
   32MOL   C14912611   1.058   2.142   5.611  0.4403  0.0582 -0.2678
   32MOL   C15012612   1.060   2.191   5.479 -0.8963  0.4776  0.3124
   32MOL   C15112613   1.210   2.454   5.287 -0.0030  0.4378  0.0046
   32MOL   H15212614   1.086   2.296   5.246  1.2860 -1.8572 -2.5343
   32MOL   H15312615   1.392   2.265   5.468 -0.1699 -1.7432  0.2783
   32MOL   H15412616   1.381   2.185   5.702  1.2935 -0.0935 -1.2668
   32MOL   H15512617   1.355   2.138   5.906  0.5310 -0.2025 -2.8220
   32MOL   H15612618   1.246   2.051   6.002  1.2125  0.9859  0.7812
   32MOL   H15712619   1.307   1.968   5.873 -1.4810 -0.4914 -0.0076
   32MOL   H15812620   0.963   2.117   5.656  1.4731  1.0356  2.5372
   32MOL   H15912621   0.967   2.203   5.426  0.4954  0.1639 -2.3329
   32MOL   H16012622   1.304   2.466   5.340 -0.5023  0.6717  0.8340
   32MOL   H16112623   1.125   2.490   5.344 -0.1527  0.3858 -0.1842
   32MOL   C16212624   1.199   2.530   5.151  1.0329  0.6499  0.3288
   32MOL   C16312625   1.227   2.677   5.167 -0.0029 -0.2139 -0.3568
   32MOL   C16412626   1.124   2.758   5.223  0.1708 -0.4779 -0.2989
   32MOL   C16512627   1.141   2.896   5.245 -0.3974 -0.5192 -0.6778
   32MOL   C16612628   1.263   2.957   5.219 -0.1608 -0.0159  0.4729
   32MOL   O16712629   1.290   3.091   5.241 -0.4355 -0.0461  0.4732
   32MOL   C16812630   1.188   3.188   5.262  0.2873 -0.5498  0.1078
   32MOL   C16912631   1.361   2.874   5.162 -0.3396 -0.8320 -0.2265
   32MOL   C17012632   1.351   2.738   5.141  0.7456  0.7000 -0.2525
   32MOL   C17112633   1.067   2.506   5.079  0.4713  0.2856  0.5274
   32MOL   H17212634   1.279   2.506   5.080  0.0027  0.6082 -0.8373
   32MOL   H17312635   1.030   2.712   5.250 -1.0049  2.9254  1.8011
   32MOL   H17412636   1.057   2.945   5.292 -0.2785 -1.3124  0.3690
   32MOL   H17512637   1.147   3.198   5.362 -1.8654  0.6823 -0.8604
   32MOL   H17612638   1.101   3.169   5.198  1.2251  3.0855 -2.3540
   32MOL   H17712639   1.240   3.280   5.236  1.4911 -0.7427  1.8009
   32MOL   H17812640   1.458   2.918   5.144 -1.7978  1.9501 -1.5357
   32MOL   H17912641   1.439   2.684   5.107  0.8455  0.7414 -0.0654
   32MOL   H18012642   0.993   2.526   5.157  1.8065  3.6208  1.0132
   32MOL   H18112643   1.064   2.401   5.048 -1.2307  0.1919  0.9361
   32MOL   C18212644   1.023   2.588   4.957 -0.5361 -0.4503 -0.6819
   32MOL   C18312645   0.889   2.546   4.908 -0.0770 -0.5800  0.5906
   32MOL   C18412646   0.886   2.442   4.811  0.1185  0.1528 -0.0197
   32MOL   C18512647   0.764   2.388   4.769 -0.3397 -0.2173  0.1118
   32MOL   C18612648   0.647   2.433   4.828  0.3028  0.5563  0.1374
   32MOL   O18712649   0.528   2.373   4.789 -0.3817 -0.3044  0.4096
   32MOL   C18812650   0.402   2.436   4.819  0.6007 -0.0951 -0.5098
   32MOL   C18912651   0.648   2.526   4.933  0.3567 -0.1053  0.0067
   32MOL   C19012652   0.770   2.586   4.976 -0.9238  0.3432  0.1460
   32MOL   C19112653   1.119   2.622   4.841  0.1342 -0.0974  0.3070
   32MOL   H19212654   1.003   2.680   5.013 -0.9566 -0.4151 -0.8934
   32MOL   H19312655   0.979   2.403   4.774 -0.0542 -1.0855  0.8353
   32MOL   H19412656   0.751   2.318   4.688 -0.4223  1.5128 -1.4049
   32MOL   H19512657   0.324   2.369   4.783 -0.2099  0.1490  0.7627
   32MOL   H19612658   0.393   2.540   4.786  1.7918  0.0830 -0.2728
   32MOL   H19712659   0.386   2.427   4.926 -0.2003 -3.1112 -0.8470
   32MOL   H19812660   0.557   2.551   4.985  0.4081  1.2758 -0.5266
   32MOL   H19912661   0.779   2.656   5.058  1.6966 -1.5149  1.5070
   32MOL   H20012662   1.217   2.643   4.884  1.4679 -1.9730 -1.7165
   32MOL   H20112663   1.133   2.533   4.780 -0.5643 -0.0290  0.0426
   32MOL   C20212664   1.071   2.732   4.746  0.2554  0.3396  0.3017
   32MOL   C20312665   1.151   2.731   4.616 -0.3007  0.0965 -0.6999
   32MOL   C20412666   1.292   2.722   4.607  0.4490  0.5173  0.1595
   32MOL   C20512667   1.363   2.726   4.487 -0.6133 -0.2341 -1.3147
   32MOL   C20612668   1.294   2.747   4.368 -0.1400  0.4229  0.1507
   32MOL   O20712669   1.366   2.733   4.254 -0.0985 -0.0067 -0.2259
   32MOL   C20812670   1.310   2.665   4.146  0.0580 -0.7294  0.3954
   32MOL   C20912671   1.150   2.748   4.371 -0.2073  0.5712 -0.1464
   32MOL   C21012672   1.080   2.740   4.496  0.0288 -0.6225  0.2297
   32MOL   C21112673   1.085   2.871   4.817 -0.6864  0.2249  0.6268
   32MOL   H21212674   0.970   2.719   4.706 -0.0843  0.2879  1.1737
   32MOL   H21312675   1.355   2.698   4.691  0.7479 -0.0316 -0.2157
   32MOL   H21412676   1.470   2.726   4.476 -0.3937 -1.9922  0.4826
   32MOL   H21512677   1.380   2.632   4.069  0.4461  3.3559 -1.1070
   32MOL   H21612678   1.253   2.579   4.181 -0.1253 -0.2558  1.2813
   32MOL   H21712679   1.244   2.734   4.094  1.8633  0.7202 -0.0079
   32MOL   H21812680   1.092   2.762   4.281 -1.2875 -1.1808  0.2514
   32MOL   H21912681   0.973   2.751   4.497 -0.0091 -1.0118  0.7171
   32MOL   H22012682   1.183   2.915   4.802 -0.7867  0.3853  0.4335
   32MOL   H22112683   1.065   2.860   4.923  0.2357 -1.1665  0.6604
   32MOL   C22212684   0.993   2.973   4.754 -0.2792 -0.9927 -0.6650
   32MOL   C22312685   0.842   2.940   4.775  0.7420  0.0977  0.3738
   32MOL   C22412686   0.790   2.927   4.902  0.0954 -0.1010  0.3000
   32MOL   C22512687   0.652   2.903   4.924 -0.3447  0.3712  0.2704
   32MOL   C22612688   0.559   2.889   4.814 -0.2419 -0.9439  0.6713
   32MOL   O22712689   0.424   2.867   4.830  0.2660  0.0073  0.2314
   32MOL   C22812690   0.373   2.813   4.952 -0.5926  0.4833 -0.2894
   32MOL   C22912691   0.613   2.904   4.685 -0.4407  0.1952  0.4422
   32MOL   C23012692   0.754   2.925   4.666 -0.1166  0.0985  0.3097
   32MOL   C23112693   1.031   3.115   4.805 -0.2227  0.2513 -0.4047
   32MOL   H23212694   1.010   2.973   4.646  0.8373  1.6363 -0.5211
   32MOL   H23312695   0.862   2.926   4.982  0.8462  0.4780 -0.3660
   32MOL   H23412696   0.619   2.898   5.027  2.2149 -1.2521  1.0764
   32MOL   H23512697   0.364   2.893   5.026 -2.3601 -2.9726  3.4321
   32MOL   H23612698   0.273   2.773   4.931  0.0235 -0.7962 -0.8507
   32MOL   H23712699   0.443   2.739   4.990  1.5645  2.9893  0.7016
   32MOL   H23812700   0.555   2.886   4.595 -0.6967  3.1630 -0.0135
   32MOL   H23912701   0.782   2.923   4.562 -2.6160 -0.2201 -0.3960
   32MOL   H24012702   1.012   3.100   4.912 -1.3891 -0.0077 -0.6321
   32MOL   H24112703   1.139   3.126   4.801 -0.2489  0.9853  0.5951
   32MOL   C24212704   0.960   3.237   4.745  0.7157  0.8865  0.2055
   32MOL   C24312705   0.920   3.342   4.850 -0.4664 -0.0904 -0.8491
   32MOL   C24412706   0.802   3.415   4.830  0.0091 -0.0986 -0.2202
   32MOL   C24512707   0.772   3.526   4.908  0.1019  1.0008  0.0771
   32MOL   C24612708   0.863   3.579   5.002 -0.2025 -0.0116 -0.5834
   32MOL   O24712709   0.852   3.703   5.055 -0.1555 -0.5668  0.6248
   32MOL   C24812710   0.725   3.777   5.035  0.4383 -0.4137  0.3258
   32MOL   C24912711   0.980   3.503   5.025 -0.3557  0.1285 -0.0873
   32MOL   C25012712   0.998   3.377   4.961  0.5787  0.3724  0.7822
   32MOL   C25112713   1.032   3.290   4.625 -0.0747 -0.0008  0.1851
   32MOL   H25212714   0.866   3.192   4.713  1.7968 -1.2731 -0.0750
   32MOL   H25312715   0.732   3.384   4.753  2.3156 -1.0351 -2.0237
   32MOL   H25412716   0.683   3.583   4.886  0.3777  1.6222  0.5557
   32MOL   H25512717   0.734   3.868   5.094 -0.5919  0.1109 -0.3114
   32MOL   H25612718   0.699   3.809   4.934  0.0264  1.4175  1.0016
   32MOL   H25712719   0.653   3.712   5.085 -2.0782  2.1197  0.1004
   32MOL   H25812720   1.053   3.536   5.097  0.8334 -1.8219 -0.3717
   32MOL   H25912721   1.088   3.323   4.989  0.2940 -1.0905 -1.0488
   32MOL   H26012722   1.100   3.225   4.571 -0.2871  0.4679 -0.6599
   32MOL   H26112723   1.095   3.371   4.661  1.4814 -1.4926  0.8813
   32MOL   C26212724   0.935   3.360   4.524 -0.3612 -0.6967 -0.4335
   32MOL   C26312725   0.860   3.248   4.454 -0.6949  0.6901  0.3689
   32MOL   C26412726   0.931   3.146   4.384 -0.7850 -0.4335 -0.4854
   32MOL   C26512727   0.867   3.037   4.322 -0.2719 -0.3028 -0.3539
   32MOL   C26612728   0.719   3.025   4.321 -0.4582  0.1603 -0.4855
   32MOL   O26712729   0.645   2.926   4.261  0.2966  0.9900  0.4170
   32MOL   C26812730   0.714   2.844   4.173 -0.5808  0.0083 -0.5456
   32MOL   C26912731   0.654   3.133   4.381 -0.5673 -0.5281  0.5224
   32MOL   C27012732   0.721   3.237   4.448  0.1588  0.0960 -0.1881
   32MOL   C27112733   1.021   3.446   4.432 -0.5883 -0.3545  0.3806
   32MOL   H27212734   0.866   3.420   4.583  1.0687  0.5231  0.0018
   32MOL   H27312735   1.038   3.153   4.368 -0.8412 -0.0454 -0.6945
   32MOL   H27412736   0.928   2.968   4.265  1.5028  0.5522  0.4894
   32MOL   H27512737   0.656   2.752   4.169  1.5246 -1.4124  0.8099
   32MOL   H27612738   0.805   2.808   4.220 -0.5659 -0.4366 -0.9197
   32MOL   H27712739   0.730   2.878   4.071  3.6487 -2.0968 -0.6756
   32MOL   H27812740   0.547   3.121   4.386 -0.7673  0.6349 -0.7923
   32MOL   H27912741   0.668   3.316   4.499 -0.2838 -0.4451  0.2005
   32MOL   H28012742   1.098   3.502   4.485 -0.3730 -0.2303 -0.0651
   32MOL   H28112743   1.084   3.377   4.375 -0.0957  0.7908 -0.4670
   32MOL   C28212744   0.954   3.550   4.338 -0.2682 -0.4043  0.2761
   32MOL   C28312745   0.901   3.670   4.411  0.7530  0.0236  0.1038
   32MOL   C28412746   0.785   3.654   4.490  0.2076  0.0199 -0.2545
   32MOL   C28512747   0.730   3.766   4.555 -0.7898 -0.1350  0.1982
   32MOL   C28612748   0.798   3.889   4.548  0.3805 -0.0480  0.1500
   32MOL   O28712749   0.740   4.004   4.595  0.0546  0.2171  0.5948
   32MOL   C28812750   0.605   3.995   4.624  0.0547 -0.2075 -0.3575
   32MOL   C28912751   0.921   3.896   4.481 -0.1574  0.1681 -0.0017
   32MOL   C29012752   0.974   3.788   4.413  0.1799  0.6716 -0.4877
   32MOL   C29112753   0.860   3.490   4.233 -0.5105  0.3855  0.1004
   32MOL   H29212754   1.039   3.585   4.279 -2.0455  1.5567 -1.2132
   32MOL   H29312755   0.731   3.561   4.503 -0.9341  0.4867 -1.5182
   32MOL   H29412756   0.636   3.743   4.604 -0.1196 -1.7386  0.7735
   32MOL   H29512757   0.569   4.094   4.654 -1.7378 -0.8154 -0.4413
   32MOL   H29612758   0.557   3.964   4.531  1.0923  1.7396 -1.5926
   32MOL   H29712759   0.587   3.931   4.710 -1.8269  1.2681  0.3730
   32MOL   H29812760   0.972   3.991   4.476 -0.5295  0.3820  0.2330
   32MOL   H29912761   1.062   3.807   4.354  0.1835  0.5213 -0.5311
   32MOL   H30012762   0.901   3.410   4.170 -1.9819  1.9577 -2.9617
   32MOL   H30112763   0.781   3.438   4.286  0.3106  0.3200  1.2867
   32MOL   C30212764   0.801   3.598   4.136 -0.5792  0.0636 -0.2049
   32MOL   C30312765   0.909   3.685   4.068  0.2443  0.4843 -0.0402
   32MOL   C30412766   1.025   3.638   4.005  0.0596 -0.1905 -0.5847
   32MOL   C30512767   1.122   3.723   3.942 -0.2753  0.8064  0.1241
   32MOL   C30612768   1.099   3.863   3.935 -0.0410  1.1551 -0.0267
   32MOL   O30712769   1.187   3.941   3.869 -0.2460 -0.4922  0.5349
   32MOL   C30812770   1.180   4.087   3.866  1.6036 -0.6014  0.5925
   32MOL   C30912771   0.982   3.909   3.996 -0.2412 -0.0432  0.0031
   32MOL   C31012772   0.890   3.826   4.064  0.2028  0.7089 -0.1106
   32MOL   C31112773   0.708   3.533   4.036 -0.1062 -0.4597  0.1593
   32MOL   H31212774   0.742   3.666   4.197 -2.4273 -1.4934 -0.2102
   32MOL   H31312775   1.044   3.532   4.011  0.4349  0.0329  4.2691
   32MOL   H31412776   1.204   3.671   3.894  1.3179  3.4806 -0.1093
   32MOL   H31512777   1.087   4.131   3.831  1.7656 -1.4210 -0.9085
   32MOL   H31612778   1.259   4.108   3.794  0.3017  2.1771 -0.1225
   32MOL   H31712779   1.199   4.134   3.963 -3.4523  1.2097  0.8431
   32MOL   H31812780   0.979   4.017   3.996 -0.0653 -0.0146 -1.9124
   32MOL   H31912781   0.802   3.878   4.100 -0.6291 -0.1043 -0.9289
   32MOL   H32012782   0.676   3.432   4.062 -0.1049 -0.0061  1.9973
   32MOL   H32112783   0.765   3.528   3.944 -4.0876 -0.0415 -2.4573
   32MOL   C32212784   0.572   3.617   4.020  0.1851 -0.2198  0.7549
   32MOL   C32312785   0.488   3.629   4.153  0.2049  0.1186 -0.2378
   32MOL   C32412786   0.411   3.740   4.178  0.0026 -0.4119 -0.8537
   32MOL   C32512787   0.362   3.769   4.306  0.1593 -0.0617  0.0771
   32MOL   C32612788   0.376   3.674   4.410  0.0323 -0.4019  0.2221
   32MOL   O32712789   0.318   3.692   4.536 -0.1827 -0.2260  0.1988
   32MOL   C32812790   0.239   3.810   4.556 -0.0701 -0.0305  0.4849
   32MOL   C32912791   0.448   3.551   4.384  0.9468  0.5091  0.1914
   32MOL   C33012792   0.509   3.532   4.254  0.3147 -0.2032  0.2432
   32MOL   C33112793   0.468   3.549   3.919 -0.0366 -0.4496 -0.7697
   32MOL   H33212794   0.597   3.716   3.984 -1.2986  1.1019  3.2715
   32MOL   H33312795   0.398   3.809   4.096 -1.1442  1.1473  0.6089
   32MOL   H33412796   0.299   3.855   4.321  0.3796  0.0637  0.2889
   32MOL   H33512797   0.161   3.786   4.484  0.1919  1.4272 -0.3021
   32MOL   H33612798   0.297   3.901   4.544  1.4124 -1.0197  0.0311
   32MOL   H33712799   0.195   3.816   4.655 -2.1627  1.2240 -0.4828
   32MOL   H33812800   0.452   3.476   4.462 -0.6285  0.0276 -0.1782
   32MOL   H33912801   0.544   3.431   4.238  0.2696 -0.8639  3.9567
   32MOL   H34012802   0.440   3.448   3.949  0.0355  0.0563  1.0598
   32MOL   H34112803   0.375   3.604   3.931  0.5838  0.7523 -1.3929
   32MOL   C34212804   0.501   3.548   3.769  0.1462  0.6661 -0.1069
   32MOL   C34312805   0.596   3.659   3.722  0.1465 -0.1066  0.0647
   32MOL   C34412806   0.728   3.622   3.695 -0.3742 -0.0176 -0.1090
   32MOL   C34512807   0.811   3.719   3.631 -0.0160  0.3776 -0.4231
   32MOL   C34612808   0.776   3.854   3.630  0.2111  0.1789 -0.4340
   32MOL   O34712809   0.863   3.955   3.591  0.3216 -0.1168 -0.4149
   32MOL   C34812810   0.999   3.924   3.574 -0.0252  0.1012 -0.0261
   32MOL   C34912811   0.649   3.894   3.671 -0.1935  0.2735  0.0292
   32MOL   C35012812   0.555   3.797   3.718  0.0004 -0.2800 -0.4436
   32MOL   C35112813   0.376   3.523   3.674 -0.5194 -0.6765  0.0776
   32MOL   H35212814   0.554   3.454   3.752  1.5369  1.6686 -1.3458
   32MOL   H35312815   0.769   3.523   3.710 -1.1556 -0.3092  0.1502
   32MOL   H35412816   0.907   3.687   3.593  0.0541 -0.0210  0.0853
   32MOL   H35512817   1.039   3.870   3.659 -1.4974  0.3638  0.8585
   32MOL   H35612818   1.001   3.866   3.481 -0.4198  0.3769 -0.2101
   32MOL   H35712819   1.060   4.013   3.559 -1.1560  1.1875  1.7513
   32MOL   H35812820   0.615   3.997   3.679 -3.5525 -0.7371 -0.3314
   32MOL   H35912821   0.451   3.825   3.731 -0.1092 -0.1738 -1.4823
   32MOL   H36012822   0.323   3.439   3.719  0.2867 -0.8974  0.6284
   32MOL   H36112823   0.308   3.607   3.685 -0.7731 -1.1693  2.6729
   32MOL   C36212824   0.414   3.513   3.524 -0.3087 -0.5691  0.3098
   32MOL   C36312825   0.299   3.570   3.436 -0.6425 -1.1744 -1.1930
   32MOL   C36412826   0.309   3.704   3.397  0.0424 -0.3794  0.0209
   32MOL   C36512827   0.219   3.760   3.301 -0.8756  0.2663 -0.2041
   32MOL   C36612828   0.109   3.683   3.266 -0.7145 -0.7418 -0.0737
   32MOL   O36712829   0.001   3.730   3.201  0.3418  0.3225 -0.4217
   32MOL   C36812830   0.010   3.844   3.111 -0.1849 -0.7428 -0.5804
   32MOL   C36912831   0.085   3.557   3.315 -0.4480  0.6036  0.5246
   32MOL   C37012832   0.182   3.497   3.400 -0.6004  0.3084  0.4599
   32MOL   C37112833   0.454   3.370   3.484 -1.0909  0.2859  0.7550
   32MOL   H37212834   0.505   3.570   3.506  0.4552 -1.6938  0.5598
   32MOL   H37312835   0.397   3.760   3.424 -0.5845 -0.1367  1.6368
   32MOL   H37412836   0.222   3.860   3.259 -0.5857  0.9837  1.4869
   32MOL   H37512837   7.964   3.857   3.045  0.7845 -1.4601 -2.0060
   32MOL   H37612838   0.033   3.935   3.167  3.2723 -0.7314 -1.8519
   32MOL   H37712839   0.100   3.823   3.053 -0.2146 -1.0358 -0.5204
   32MOL   H37812840   8.030   3.509   3.294 -0.0931  1.0880 -2.3735
   32MOL   H37912841   0.168   3.396   3.435  0.3561 -0.4573 -1.2797
   32MOL   H38012842   0.532   3.324   3.544 -2.0389 -0.9925  1.0284
   32MOL   H38112843   0.365   3.308   3.488  0.7742 -2.5122  0.4094
   32MOL   C38212844   0.496   3.359   3.328  0.0682 -0.2045 -0.2414
   32MOL   C38312845   0.434   3.237   3.264  0.0481 -0.0781 -0.2760
   32MOL   C38412846   0.471   3.109   3.311 -0.1054 -0.3144  0.5811
   32MOL   C38512847   0.416   2.991   3.256 -0.9777 -0.5738 -0.0657
   32MOL   C38612848   0.304   2.998   3.173  0.2905 -0.2373  0.2403
   32MOL   O38712849   0.236   2.881   3.139 -0.2966 -0.5024 -0.2879
   32MOL   C38812850   0.115   2.908   3.071  0.1314 -0.5356  0.1208
   32MOL   C38912851   0.254   3.128   3.144  0.3026 -0.1548 -0.2694
   32MOL   C39012852   0.326   3.249   3.178  0.0225 -0.1218 -0.4982
   32MOL   C39112853   0.646   3.374   3.306  0.3991 -0.0074 -0.2049
   32MOL   H39212854   0.451   3.447   3.282  3.2596  1.5065 -0.2360
   32MOL   H39312855   0.554   3.107   3.381  1.8155  0.4426 -1.6233
   32MOL   H39412856   0.447   2.894   3.289  0.7810 -0.9819 -2.7678
   32MOL   H39512857   0.129   2.961   2.977 -0.5551  0.4519  0.5642
   32MOL   H39612858   0.042   2.969   3.124 -1.2414 -1.0075 -1.2064
   32MOL   H39712859   0.077   2.811   3.040  0.9217 -0.9227  0.3271
   32MOL   H39812860   0.168   3.145   3.080 -1.6881 -0.4333  2.2374
   32MOL   H39912861   0.284   3.343   3.146 -0.1144  1.4322  3.8863
   32MOL   H40012862   0.664   3.470   3.354 -1.2900  0.4299 -0.3901
   32MOL   H40112863   0.670   3.391   3.201 -2.2516  0.2569 -0.7977
   32MOL   H40212864   0.700   3.285   3.338  1.2411  0.9171  1.0119
   33MOL     C112865   5.621   6.070   2.458 -0.7887 -0.1126 -0.3667
   33MOL     C212866   5.605   5.921   2.410  0.0674 -0.6550 -0.1622
   33MOL     C312867   5.617   5.813   2.501 -0.3410 -0.3057  0.1067
   33MOL     C412868   5.620   5.677   2.461 -0.4575  0.0876  0.4489
   33MOL     C512869   5.603   5.652   2.325  0.3192  0.2904  0.3134
   33MOL     O612870   5.596   5.515   2.299  0.1367 -0.3708  0.2664
   33MOL     C712871   5.561   5.475   2.172 -0.3770 -0.4032  0.6129
   33MOL     C812872   5.584   5.754   2.227  0.8515  0.0572  0.1968
   33MOL     C912873   5.585   5.891   2.273 -0.3007  0.8693  0.1303
   33MOL    C1012874   5.486   6.146   2.445 -0.1924  0.1803  0.5166
   33MOL    H1112875   5.693   6.114   2.389 -1.6771 -0.9095 -1.8342
   33MOL    H1212876   5.620   5.838   2.606 -2.0095 -1.0213  0.3415
   33MOL    H1312877   5.640   5.596   2.530  1.0896 -1.0945 -1.3323
   33MOL    H1412878   5.463   5.514   2.141 -0.5472  1.3615  3.2095
   33MOL    H1512879   5.626   5.517   2.095 -0.3147 -2.0958 -0.2675
   33MOL    H1612880   5.562   5.367   2.174  1.5678 -0.3717  2.4868
   33MOL    H1712881   5.582   5.721   2.125  1.5229  2.2797 -0.5595
   33MOL    H1812882   5.578   5.968   2.197  2.2938 -1.2560 -2.3993
   33MOL    H1912883   5.421   6.108   2.367  0.7678 -3.2910  1.2797
   33MOL    H2012884   5.441   6.138   2.544  1.2712 -0.5679  1.1453
   33MOL    H2112885   5.651   6.071   2.563 -0.0361 -0.0122 -0.5754
   33MOL    C2212886   5.494   6.299   2.417  0.2357 -0.0797  0.1758
   33MOL    C2312887   5.524   6.331   2.276 -0.6482 -0.5311  0.9845
   33MOL    C2412888   5.431   6.308   2.174 -0.5057  1.4491  0.7897
   33MOL    C2512889   5.458   6.357   2.040  0.0382 -0.1608 -0.4302
   33MOL    C2612890   5.576   6.426   2.018 -0.3690 -0.6124 -0.0344
   33MOL    O2712891   5.589   6.490   1.896  0.1113  1.1018 -0.4305
   33MOL    C2812892   5.706   6.571   1.873 -0.2700  0.4207 -1.1009
   33MOL    C2912893   5.666   6.448   2.124 -0.7624 -0.0608  0.3231
   33MOL    C3012894   5.643   6.400   2.249  0.7807 -0.4542  0.0250
   33MOL    C3112895   5.361   6.362   2.470 -0.0253 -0.6408 -0.2084
   33MOL    H3212896   5.574   6.343   2.477  1.8686 -1.2930 -1.0681
   33MOL    H3312897   5.343   6.250   2.197 -0.3838  0.5688 -0.8819
   33MOL    H3412898   5.383   6.346   1.963 -1.3829 -0.2374  0.9202
   33MOL    H3512899   5.796   6.511   1.879 -0.6664 -0.2939 -2.3195
   33MOL    H3612900   5.714   6.648   1.950  0.5939 -2.4360  1.7984
   33MOL    H3712901   5.687   6.613   1.774  1.1663 -1.4889 -2.2157
   33MOL    H3812902   5.741   6.526   2.118  0.4629 -1.1789  0.8597
   33MOL    H3912903   5.706   6.425   2.334  1.8340 -0.5901 -0.7030
   33MOL    H4012904   5.281   6.310   2.416 -0.3015 -0.5843  0.1464
   33MOL    H4112905   5.350   6.341   2.576 -0.1201 -2.6599 -0.5949
   33MOL    C4212906   5.347   6.514   2.438  0.3500  0.2266  0.5831
   33MOL    C4312907   5.429   6.603   2.531 -0.6291 -0.4260  1.5163
   33MOL    C4412908   5.557   6.653   2.489 -0.2382  0.3354  0.6545
   33MOL    C4512909   5.637   6.724   2.578  0.9294 -0.3477 -0.5208
   33MOL    C4612910   5.594   6.751   2.711 -0.0493 -0.4728 -0.1052
   33MOL    O4712911   5.668   6.815   2.808 -0.3921  0.0948 -0.0120
   33MOL    C4812912   5.798   6.772   2.829 -0.5689 -0.2117  0.6302
   33MOL    C4912913   5.465   6.705   2.748 -0.0791 -0.8438 -0.0978
   33MOL    C5012914   5.381   6.638   2.661  0.5709  0.1846 -0.0743
   33MOL    C5112915   5.193   6.550   2.429  0.0232  0.2016  0.0653
   33MOL    H5212916   5.394   6.532   2.341 -0.0819 -1.4149  0.0649
   33MOL    H5312917   5.616   6.623   2.404  1.4878 -2.0503  2.6163
   33MOL    H5412918   5.735   6.766   2.561  0.3137  0.7566 -1.4520
   33MOL    H5512919   5.858   6.769   2.738 -0.4134  1.0108  0.6816
   33MOL    H5612920   5.848   6.847   2.891 -1.8085  1.5619 -0.4628
   33MOL    H5712921   5.808   6.670   2.868  1.1385 -0.7459 -1.1223
   33MOL    H5812922   5.441   6.736   2.848  0.9568  0.1188 -0.1393
   33MOL    H5912923   5.290   6.598   2.702  0.6008  0.1971  0.0043
   33MOL    H6012924   5.191   6.657   2.453  0.0158 -0.0155  1.0605
   33MOL    H6112925   5.150   6.486   2.505 -3.1006  1.0162 -0.9293
   33MOL    C6212926   5.144   6.514   2.289  0.2000 -1.2035 -0.3988
   33MOL    C6312927   5.199   6.609   2.177 -0.0338 -0.6751 -0.1845
   33MOL    C6412928   5.226   6.569   2.045  0.6948  0.6018 -0.0342
   33MOL    C6512929   5.287   6.652   1.945  0.1409  0.3614  0.0471
   33MOL    C6612930   5.325   6.782   1.980  0.0976 -0.3367  0.5136
   33MOL    O6712931   5.404   6.869   1.906  0.2248  0.3543 -0.4885
   33MOL    C6812932   5.415   6.860   1.768 -0.4756  0.1562  0.8239
   33MOL    C6912933   5.291   6.835   2.109 -0.2742  0.2021 -0.0017
   33MOL    C7012934   5.223   6.749   2.206 -0.0552 -0.7493 -0.4067
   33MOL    C7112935   4.993   6.498   2.287 -0.3486  0.0223 -0.1229
   33MOL    H7212936   5.180   6.415   2.264  1.7282 -0.7221 -0.1181
   33MOL    H7312937   5.198   6.466   2.025 -3.0929  1.2352  1.5564
   33MOL    H7412938   5.320   6.611   1.851  2.6070 -0.7377  1.3379
   33MOL    H7512939   5.330   6.901   1.713 -0.3698 -0.3529  0.2769
   33MOL    H7612940   5.435   6.764   1.721  0.6632  0.3111  0.9811
   33MOL    H7712941   5.496   6.925   1.734  1.4061 -3.4477 -2.0228
   33MOL    H7812942   5.317   6.936   2.137 -1.7219  0.1261  1.7128
   33MOL    H7912943   5.211   6.785   2.307  1.7921 -0.3020 -0.3280
   33MOL    H8012944   4.950   6.493   2.387  0.0488  0.8828  0.0889
   33MOL    H8112945   4.951   6.589   2.245 -1.3639 -0.1003  0.6087
   33MOL    C8212946   4.941   6.365   2.217 -0.7824 -0.1648 -0.4030
   33MOL    C8312947   4.993   6.237   2.280  0.1644  0.1442  1.1548
   33MOL    C8412948   5.053   6.135   2.203  0.8469  1.0391 -0.0806
   33MOL    C8512949   5.103   6.015   2.254  0.6090 -0.0565 -0.4770
   33MOL    C8612950   5.093   6.001   2.396 -0.3614 -0.1479  1.2139
   33MOL    O8712951   5.164   5.898   2.456  0.6073  0.3991 -0.0512
   33MOL    C8812952   5.245   5.803   2.386  0.0497 -0.0469  0.7358
   33MOL    C8912953   5.047   6.102   2.479  0.6586  0.4978 -0.9414
   33MOL    C9012954   4.997   6.217   2.418 -0.0534 -0.8255 -0.2232
   33MOL    C9112955   4.787   6.352   2.202 -0.1640 -0.4934  0.3206
   33MOL    H9212956   4.977   6.359   2.114 -0.2692  0.0237 -0.2348
   33MOL    H9312957   5.066   6.155   2.098  0.9708  1.9744  0.1034
   33MOL    H9412958   5.157   5.950   2.187  2.3957  1.2845 -0.3657
   33MOL    H9512959   5.311   5.852   2.314  0.9799 -1.4133  0.6295
   33MOL    H9612960   5.184   5.736   2.326 -0.3519  0.1213  0.9534
   33MOL    H9712961   5.314   5.743   2.445  1.3293  0.0360 -0.6490
   33MOL    H9812962   5.042   6.101   2.587  0.3235  0.0195 -0.9618
   33MOL    H9912963   4.965   6.297   2.484 -1.7038 -1.0713 -0.7040
   33MOL   H10012964   4.754   6.256   2.164  0.3323  0.5944 -3.0126
   33MOL   H10112965   4.746   6.361   2.303  0.1520  1.6620  0.2974
   33MOL   C10212966   4.724   6.465   2.120  0.1083  0.3863 -0.1855
   33MOL   C10312967   4.774   6.468   1.976 -0.1646  0.1902 -0.0989
   33MOL   C10412968   4.828   6.590   1.930  0.1154 -0.1749  0.0599
   33MOL   C10512969   4.881   6.600   1.801  0.1084  0.0794  0.0267
   33MOL   C10612970   4.885   6.486   1.717  0.2283 -0.5626  0.0849
   33MOL   O10712971   4.947   6.502   1.597  0.0139  0.4634  0.2097
   33MOL   C10812972   4.900   6.408   1.504  0.5418 -0.4777  0.6910
   33MOL   C10912973   4.837   6.361   1.763 -0.8904 -0.2904  0.3913
   33MOL   C11012974   4.780   6.357   1.895  0.6797 -0.1498 -0.0100
   33MOL   C11112975   4.570   6.449   2.120 -0.6216 -0.4015  0.1773
   33MOL   H11212976   4.744   6.563   2.164  0.4122  0.9338 -1.5331
   33MOL   H11312977   4.819   6.675   1.996 -1.0208 -0.4360  0.2405
   33MOL   H11412978   4.925   6.691   1.763 -1.0900  1.2975  1.5272
   33MOL   H11512979   4.898   6.447   1.402 -0.5327 -1.4154  0.3471
   33MOL   H11612980   4.962   6.318   1.499  1.2568  0.0602 -0.3067
   33MOL   H11712981   4.803   6.360   1.517  0.4813  0.6530  4.9755
   33MOL   H11812982   4.832   6.278   1.694  1.3104  0.6890 -1.0065
   33MOL   H11912983   4.748   6.261   1.932  0.6055 -1.4509 -3.3216
   33MOL   H12012984   4.534   6.349   2.095  0.1815 -0.7520  0.3959
   33MOL   H12112985   4.550   6.458   2.227  1.7575 -2.7498  0.8684
   33MOL   C12212986   4.497   6.559   2.033 -0.2274  0.8338  0.4009
   33MOL   C12312987   4.524   6.694   2.093  0.4015  1.2700 -0.5571
   33MOL   C12412988   4.499   6.708   2.231 -0.6356  0.5400  0.2783
   33MOL   C12512989   4.507   6.839   2.285 -0.1758 -0.4968  0.3006
   33MOL   C12612990   4.554   6.950   2.210 -0.3400 -0.1231 -0.1549
   33MOL   O12712991   4.559   7.076   2.267 -0.3310 -0.1116  0.0567
   33MOL   C12812992   4.542   7.096   2.402  0.8800  0.4161 -0.2978
   33MOL   C12912993   4.586   6.927   2.079 -0.0822 -0.7795 -0.7215
   33MOL   C13012994   4.573   6.803   2.018 -0.8419  0.7465  0.2513
   33MOL   C13112995   4.346   6.533   2.031 -0.2417 -0.0218  0.1453
   33MOL   H13212996   4.532   6.562   1.930 -0.9126  0.0888  0.1358
   33MOL   H13312997   4.455   6.629   2.290 -3.7533  1.5507 -0.5700
   33MOL   H13412998   4.480   6.855   2.388 -1.5916  1.5145 -0.3636
   33MOL   H13512999   4.436   7.075   2.412  1.3579 -2.3105 -0.6727
   33MOL   H13613000   4.608   7.030   2.460  0.6649 -0.8493 -1.4845
   33MOL   H13713001   4.545   7.202   2.427  1.3689 -0.2536  2.6852
   33MOL   H13813002   4.616   7.016   2.024 -0.0074 -0.9834 -1.0106
   33MOL   H13913003   4.584   6.793   1.911 -2.0023  4.0453 -0.2335
   33MOL   H14013004   4.311   6.546   2.133  2.7393 -0.4314  1.2604
   33MOL   H14113005   4.345   6.427   2.008 -0.2713 -0.4257  1.9983
   33MOL   C14213006   4.266   6.618   1.934 -0.5343 -1.2790  0.7063
   33MOL   C14313007   4.322   6.612   1.798 -0.0356  0.7742 -0.4690
   33MOL   C14413008   4.339   6.484   1.743  0.6701  0.6127  0.1769
   33MOL   C14513009   4.393   6.460   1.613  0.0844  0.1004  0.0682
   33MOL   C14613010   4.443   6.571   1.543  0.6103  0.5578 -0.0592
   33MOL   O14713011   4.526   6.548   1.440  0.4189  0.5350  0.2308
   33MOL   C14813012   4.622   6.645   1.408 -0.5992  0.1393  0.4181
   33MOL   C14913013   4.414   6.699   1.593 -0.1271  0.8795 -0.4304
   33MOL   C15013014   4.360   6.721   1.723 -0.4648  0.4415  0.5643
   33MOL   C15113015   4.121   6.586   1.949  0.5265  0.9277  0.4293
   33MOL   H15213016   4.283   6.720   1.970 -0.3473 -0.5224 -1.4239
   33MOL   H15313017   4.304   6.397   1.796  1.0454  0.4135  0.1017
   33MOL   H15413018   4.415   6.364   1.570  2.6593  0.3577  0.6856
   33MOL   H15513019   4.709   6.597   1.363  0.9016  3.0727  0.0499
   33MOL   H15613020   4.582   6.715   1.334  0.9262 -1.6188 -2.1089
   33MOL   H15713021   4.658   6.690   1.501  2.5023  0.7037 -1.0137
   33MOL   H15813022   4.444   6.790   1.543  0.5780  0.7621 -0.2371
   33MOL   H15913023   4.341   6.819   1.764  1.4431  0.3652  1.7019
   33MOL   H16013024   4.093   6.581   2.054 -3.8033  0.7206 -0.6378
   33MOL   H16113025   4.106   6.484   1.913  0.0315  1.2086 -0.1763
   33MOL   C16213026   4.039   6.696   1.867 -0.2948 -0.1380 -0.1586
   33MOL   C16313027   4.069   6.835   1.919 -0.3684 -0.0104 -0.4385
   33MOL   C16413028   4.078   6.860   2.061 -0.9911  0.0280  0.0463
   33MOL   C16513029   4.125   6.978   2.118 -0.6312 -0.5068  0.2327
   33MOL   C16613030   4.142   7.086   2.038  0.1067  0.0221  0.1168
   33MOL   O16713031   4.191   7.208   2.082  0.5257  0.0803 -0.3798
   33MOL   C16813032   4.289   7.200   2.180  0.1950  0.0551 -0.3980
   33MOL   C16913033   4.106   7.076   1.901  0.4091  0.0214 -0.7571
   33MOL   C17013034   4.085   6.950   1.837  0.1110  0.0636 -0.3762
   33MOL   C17113035   3.885   6.666   1.882  0.7659 -0.5678  0.0618
   33MOL   H17213036   4.068   6.688   1.762 -3.3646  1.2336 -1.1789
   33MOL   H17313037   4.054   6.788   2.138  2.1100 -0.0981  0.9766
   33MOL   H17413038   4.132   6.985   2.225 -1.0140  1.2280  0.1716
   33MOL   H17513039   4.320   7.298   2.217  1.4641  0.3602 -2.2242
   33MOL   H17613040   4.380   7.157   2.138  0.1208 -1.1920  0.6942
   33MOL   H17713041   4.265   7.144   2.270 -0.6459  1.7181  0.4328
   33MOL   H17813042   4.124   7.153   1.828 -0.2267  1.5925  0.6853
   33MOL   H17913043   4.080   6.950   1.730  1.2285 -0.9968 -0.4334
   33MOL   H18013044   3.839   6.756   1.843 -0.9203 -2.1422 -1.7090
   33MOL   H18113045   3.869   6.654   1.990 -2.0830  2.0547  0.0167
   33MOL   C18213046   3.836   6.552   1.787 -0.2072 -0.4291 -0.0190
   33MOL   C18313047   3.836   6.592   1.638 -0.5989 -0.0089 -0.1086
   33MOL   C18413048   3.944   6.561   1.553 -0.0764  0.1120  0.3264
   33MOL   C18513049   3.960   6.611   1.418 -0.2529 -0.0816  0.1963
   33MOL   C18613050   3.850   6.675   1.354 -0.6911  0.6530 -0.5093
   33MOL   O18713051   3.855   6.722   1.224  0.1460 -0.0303 -0.0810
   33MOL   C18813052   3.730   6.724   1.150  0.4360 -0.6535  0.2949
   33MOL   C18913053   3.735   6.708   1.439 -0.6050  0.2819 -0.4975
   33MOL   C19013054   3.731   6.668   1.579 -0.6527  0.2195  0.0311
   33MOL   C19113055   3.700   6.490   1.830  0.4288 -0.6467 -0.3417
   33MOL   H19213056   3.908   6.470   1.793 -0.8787 -1.0271 -0.0257
   33MOL   H19313057   4.027   6.498   1.583 -1.8764 -1.6191  1.8434
   33MOL   H19413058   4.054   6.600   1.367 -0.4991 -1.2711 -0.0239
   33MOL   H19513059   3.748   6.769   1.053  0.3980  0.9832  1.0286
   33MOL   H19613060   3.656   6.789   1.197  0.6550  0.2966 -0.6588
   33MOL   H19713061   3.702   6.620   1.132  0.8988 -0.8226  0.5491
   33MOL   H19813062   3.650   6.761   1.399  0.8276  1.8983 -1.4826
   33MOL   H19913063   3.643   6.690   1.638 -1.3972  1.1327 -1.3705
   33MOL   H20013064   3.709   6.454   1.932  1.5392  0.0351 -0.1912
   33MOL   H20113065   3.618   6.562   1.835 -0.2094 -1.4046  0.2443
   33MOL   C20213066   3.655   6.372   1.737  0.2859 -0.1153  0.1857
   33MOL   C20313067   3.529   6.308   1.788 -0.7596 -0.1773 -0.1057
   33MOL   C20413068   3.535   6.215   1.887  0.2907  0.6020  0.3902
   33MOL   C20513069   3.422   6.146   1.935  0.0888  0.1570 -0.8595
   33MOL   C20613070   3.296   6.172   1.877 -0.6673 -0.5872 -0.0199
   33MOL   O20713071   3.185   6.107   1.912 -0.7192  0.2967  0.3575
   33MOL   C20813072   3.179   6.024   2.021  0.4621  0.1332 -0.2725
   33MOL   C20913073   3.283   6.268   1.778 -0.8224  0.0181  0.0009
   33MOL   C21013074   3.398   6.343   1.740  0.1118 -0.0201 -0.5801
   33MOL   C21113075   3.772   6.272   1.707 -0.0397  0.0724 -0.0635
   33MOL   H21213076   3.638   6.416   1.639  1.8141  0.7136  0.2774
   33MOL   H21313077   3.632   6.187   1.927  0.5774 -1.9449 -1.9593
   33MOL   H21413078   3.441   6.070   2.009  0.5740  1.5314  0.4651
   33MOL   H21513079   3.074   5.992   2.022 -0.2644  2.3159 -2.5894
   33MOL   H21613080   3.247   5.939   2.020 -1.2501 -1.2724 -0.5077
   33MOL   H21713081   3.213   6.092   2.100  1.2285  2.8585 -2.8626
   33MOL   H21813082   3.184   6.281   1.738 -0.3081 -1.0853 -1.7513
   33MOL   H21913083   3.396   6.417   1.661 -2.4134 -2.0508 -2.4883
   33MOL   H22013084   3.811   6.244   1.805  1.1688  1.7098 -0.0602
   33MOL   H22113085   3.850   6.328   1.656 -0.8015  0.9040 -0.3287
   33MOL   C22213086   3.752   6.144   1.626  0.2428  0.5545  0.4786
   33MOL   C22313087   3.676   6.163   1.490  0.9000  0.2319 -0.4893
   33MOL   C22413088   3.736   6.230   1.379  0.7611  0.1201 -0.8814
   33MOL   C22513089   3.655   6.261   1.267 -0.0266  0.3120  0.6054
   33MOL   C22613090   3.521   6.216   1.263  0.7213  0.2491  0.3298
   33MOL   O22713091   3.444   6.253   1.151 -0.1821  0.2139 -0.3313
   33MOL   C22813092   3.296   6.247   1.155  0.2582  0.2430  0.0510
   33MOL   C22913093   3.463   6.150   1.377  0.0621  0.4927 -0.5354
   33MOL   C23013094   3.546   6.119   1.489 -0.1408 -0.1285  0.7603
   33MOL   C23113095   3.885   6.069   1.609  0.2392 -0.3447  0.1855
   33MOL   H23213096   3.691   6.083   1.692 -0.2912 -0.7030 -1.1605
   33MOL   H23313097   3.838   6.263   1.394  0.1958  1.1760  0.8830
   33MOL   H23413098   3.683   6.330   1.188 -0.7497  0.9116  0.8589
   33MOL   H23513099   3.260   6.150   1.189  2.2283 -0.6461 -0.3526
   33MOL   H23613100   3.263   6.328   1.220  0.4741 -0.2226  0.7417
   33MOL   H23713101   3.256   6.261   1.054  0.9132 -0.7023 -0.3420
   33MOL   H23813102   3.357   6.133   1.392  0.2642 -0.0089  0.3722
   33MOL   H23913103   3.492   6.074   1.571 -0.5210 -0.0363  0.5615
   33MOL   H24013104   3.949   6.135   1.550  3.6570 -1.2031  2.7706
   33MOL   H24113105   3.930   6.054   1.707  0.9679 -1.3033 -0.2872
   33MOL   C24213106   3.884   5.935   1.530 -0.7557  0.2218 -0.4949
   33MOL   C24313107   4.022   5.885   1.512  0.4024 -0.2728  0.8734
   33MOL   C24413108   4.096   5.844   1.626 -0.1626 -0.5779 -0.8377
   33MOL   C24513109   4.227   5.793   1.611 -0.7823 -0.5714  0.1856
   33MOL   C24613110   4.288   5.786   1.484  0.0808  1.3877 -0.4088
   33MOL   O24713111   4.420   5.746   1.478 -0.0508  0.2386  0.1119
   33MOL   C24813112   4.457   5.681   1.360 -0.1880 -0.0668  0.5207
   33MOL   C24913113   4.211   5.821   1.376 -0.3355 -0.0707  0.2630
   33MOL   C25013114   4.075   5.861   1.385 -1.2377 -0.3991  0.6023
   33MOL   C25113115   3.790   5.819   1.581  0.3415  0.0312 -0.8984
   33MOL   H25213116   3.859   5.968   1.429  1.9772  0.4495 -1.1320
   33MOL   H25313117   4.061   5.850   1.728  1.1857 -2.9672 -0.2014
   33MOL   H25413118   4.275   5.748   1.696 -2.1622 -1.9000  0.2923
   33MOL   H25513119   4.516   5.741   1.291 -0.5245  0.2999  0.5472
   33MOL   H25613120   4.532   5.618   1.407 -0.2580  1.4418  2.7571
   33MOL   H25713121   4.386   5.614   1.313  2.3548 -1.1349 -1.9503
   33MOL   H25813122   4.253   5.803   1.278 -1.5860  1.5592 -0.6059
   33MOL   H25913123   4.009   5.886   1.303  0.0633  1.3832  0.0682
   33MOL   H26013124   3.688   5.857   1.586  0.4866  0.0835  3.1174
   33MOL   H26113125   3.810   5.797   1.686 -3.5852  1.5918  0.2868
   33MOL   C26213126   3.788   5.686   1.496  0.2025 -0.3038 -0.4423
   33MOL   C26313127   3.768   5.709   1.349  0.2434 -0.5872 -0.3987
   33MOL   C26413128   3.845   5.642   1.256  0.1861 -0.3297  0.7984
   33MOL   C26513129   3.823   5.663   1.117  0.1504  0.6269  0.2971
   33MOL   C26613130   3.728   5.752   1.070 -0.0645  0.1780  0.1980
   33MOL   O26713131   3.699   5.778   0.938  0.0405 -0.5878 -0.5680
   33MOL   C26813132   3.727   5.681   0.838 -0.5739  0.0951 -0.0969
   33MOL   C26913133   3.656   5.828   1.166  0.0998 -0.3453 -0.5376
   33MOL   C27013134   3.677   5.806   1.303  0.2331 -0.4374 -0.6124
   33MOL   C27113135   3.664   5.604   1.537 -0.3260 -0.0853 -0.0561
   33MOL   H27213136   3.880   5.635   1.519 -0.8662 -1.9205  0.3136
   33MOL   H27313137   3.907   5.561   1.290 -0.3288 -1.7395 -1.4848
   33MOL   H27413138   3.890   5.608   1.052 -0.5065 -1.2225  1.1539
   33MOL   H27513139   3.830   5.646   0.832 -1.0453 -1.3087 -0.2067
   33MOL   H27613140   3.700   5.718   0.739  0.0602 -2.6285 -1.3467
   33MOL   H27713141   3.666   5.592   0.856 -0.3604  0.2051  1.2468
   33MOL   H27813142   3.583   5.902   1.137 -2.0137 -1.4140  1.8834
   33MOL   H27913143   3.629   5.870   1.376  1.5049 -0.8059  0.5749
   33MOL   H28013144   3.681   5.590   1.644 -0.3055  1.1263  0.1095
   33MOL   H28113145   3.575   5.666   1.524 -0.7473 -0.5595  0.5850
   33MOL   C28213146   3.641   5.469   1.467  0.0567  0.1318 -0.4130
   33MOL   C28313147   3.509   5.404   1.512  0.1068 -0.1148  0.5868
   33MOL   C28413148   3.495   5.338   1.636  0.0797 -0.4206  0.8505
   33MOL   C28513149   3.374   5.276   1.673 -0.4821 -0.9668 -0.5759
   33MOL   C28613150   3.263   5.284   1.591 -0.6221 -0.1920 -0.5048
   33MOL   O28713151   3.141   5.235   1.629 -0.9060  0.3762  0.4273
   33MOL   C28813152   3.138   5.105   1.695  0.2779  0.6237  0.9872
   33MOL   C28913153   3.277   5.351   1.468  0.3883  0.8414 -1.6043
   33MOL   C29013154   3.402   5.404   1.422 -0.2833 -0.4621 -0.7199
   33MOL   C29113155   3.757   5.373   1.485 -0.9557 -0.6369  0.2954
   33MOL   H29213156   3.627   5.478   1.359 -0.1301  0.4175 -0.3654
   33MOL   H29313157   3.582   5.331   1.699  0.7653  1.5879  0.1447
   33MOL   H29413158   3.370   5.249   1.778 -0.9043  0.0677 -0.3139
   33MOL   H29513159   3.195   5.076   1.783 -2.9361  3.5751  4.1910
   33MOL   H29613160   3.036   5.074   1.718  1.3038 -1.6399  2.5882
   33MOL   H29713161   3.171   5.042   1.612 -0.1595 -0.0516  1.3152
   33MOL   H29813162   3.191   5.363   1.403  0.5132  3.4934 -1.3450
   33MOL   H29913163   3.390   5.462   1.332 -2.7429  0.2432  0.0143
   33MOL   H30013164   3.854   5.423   1.476  0.0192 -2.4567  0.4748
   33MOL   H30113165   3.769   5.346   1.590  1.8481  0.7895  0.4089
   33MOL   C30213166   3.751   5.253   1.386 -0.2453 -0.4887  0.2676
   33MOL   C30313167   3.838   5.286   1.259 -0.3759 -0.0488 -0.1632
   33MOL   C30413168   3.785   5.309   1.131  0.5089 -0.3444 -0.4797
   33MOL   C30513169   3.860   5.321   1.018  0.5978 -0.5755 -0.6127
   33MOL   C30613170   4.001   5.323   1.033 -0.2573 -0.0184 -0.4013
   33MOL   O30713171   4.074   5.346   0.918  0.6707 -0.4522  0.3679
   33MOL   C30813172   4.213   5.376   0.932  0.7148 -0.8339 -0.0469
   33MOL   C30913173   4.063   5.301   1.163 -0.6908 -0.1527 -0.4958
   33MOL   C31013174   3.977   5.285   1.275  1.2834  0.1038 -0.5321
   33MOL   C31113175   3.789   5.122   1.462  0.1968  0.1746 -0.5008
   33MOL   H31213176   3.649   5.235   1.350 -0.4590 -0.7346  0.9733
   33MOL   H31313177   3.678   5.324   1.132  0.1616 -2.6237  0.1352
   33MOL   H31413178   3.811   5.342   0.924  1.0122  2.2552 -0.2514
   33MOL   H31513179   4.228   5.457   1.003 -1.0260 -0.0649 -0.5109
   33MOL   H31613180   4.258   5.403   0.836 -1.7949  3.0417 -0.2613
   33MOL   H31713181   4.262   5.283   0.959 -0.9086 -1.5602  0.4552
   33MOL   H31813182   4.171   5.304   1.175 -0.8558  0.2634  0.9364
   33MOL   H31913183   4.017   5.256   1.371  3.3435 -0.9235 -1.6715
   33MOL   H32013184   3.718   5.128   1.545 -0.6432  0.7410 -1.2434
   33MOL   H32113185   3.885   5.122   1.513  0.7423 -0.8635 -1.5150
   33MOL   C32213186   3.759   4.987   1.382 -0.3727 -0.6328 -0.6996
   33MOL   C32313187   3.616   4.995   1.322 -0.3472  0.2390 -0.1192
   33MOL   C32413188   3.506   5.018   1.412 -0.2188 -1.1027  0.1697
   33MOL   C32513189   3.380   5.036   1.348  0.4025 -0.4906 -0.0333
   33MOL   C32613190   3.350   4.995   1.211 -0.7918 -0.0525 -1.2446
   33MOL   O32713191   3.225   4.989   1.149  0.2606  0.3093 -0.6712
   33MOL   C32813192   3.122   5.055   1.211 -1.2779 -0.5735  0.3058
   33MOL   C32913193   3.463   4.951   1.134  0.0134  0.0922 -0.1773
   33MOL   C33013194   3.592   4.956   1.186 -0.1997 -0.4947 -0.5530
   33MOL   C33113195   3.768   4.868   1.482  0.4919  0.4322  0.2246
   33MOL   H33213196   3.836   4.973   1.306 -0.0399  3.4838 -1.2601
   33MOL   H33313197   3.533   5.037   1.515 -0.7851  0.0495  0.1225
   33MOL   H33413198   3.298   5.052   1.416  0.8775  2.1336 -0.0150
   33MOL   H33513199   3.095   4.998   1.301  0.0081 -0.4403  0.7868
   33MOL   H33613200   3.034   5.050   1.146 -1.1199 -2.8228  0.2011
   33MOL   H33713201   3.150   5.156   1.240  0.6330 -0.8346 -0.5474
   33MOL   H33813202   3.462   4.929   1.028  1.8682 -1.1094  0.0119
   33MOL   H33913203   3.678   4.934   1.125  0.8182 -0.0147  0.6888
   33MOL   H34013204   3.867   4.874   1.528  0.5412  0.5397  0.1063
   33MOL   H34113205   3.700   4.878   1.566  0.6657  2.5079  0.1447
   33MOL   C34213206   3.747   4.729   1.422 -0.0243  0.5875  0.3580
   33MOL   C34313207   3.643   4.640   1.495  0.0609 -0.4634 -0.0633
   33MOL   C34413208   3.509   4.680   1.492  0.0346 -0.1092 -0.1585
   33MOL   C34513209   3.408   4.601   1.554 -0.4093 -0.1275 -0.2575
   33MOL   C34613210   3.446   4.488   1.638  0.1748  0.6657 -0.2974
   33MOL   O34713211   3.361   4.401   1.705 -0.1202 -0.3072 -0.5452
   33MOL   C34813212   3.219   4.434   1.701 -0.0913 -0.0654 -0.1858
   33MOL   C34913213   3.583   4.452   1.635  0.8498  0.4283 -0.4138
   33MOL   C35013214   3.679   4.524   1.570  0.3905 -0.0366  0.4303
   33MOL   C35113215   3.883   4.653   1.403 -0.5137 -1.1702 -0.5863
   33MOL   H35213216   3.703   4.741   1.322 -1.2020  0.5259  0.8565
   33MOL   H35313217   3.483   4.764   1.430  1.0504  0.4368  0.1382
   33MOL   H35413218   3.306   4.632   1.535 -0.2286  0.3464 -0.4605
   33MOL   H35513219   3.208   4.531   1.748 -0.5476 -0.2393  0.0740
   33MOL   H35613220   3.187   4.433   1.596  0.8664  1.0597 -0.4938
   33MOL   H35713221   3.161   4.361   1.758  0.0325  0.5789  0.7812
   33MOL   H35813222   3.611   4.364   1.693  1.3268  0.2698 -0.8859
   33MOL   H35913223   3.778   4.485   1.589  0.2983  0.9558  3.3284
   33MOL   H36013224   3.942   4.658   1.494 -1.1273 -0.0983 -0.2364
   33MOL   H36113225   3.866   4.545   1.404  1.8978 -1.5807 -0.5037
   33MOL   C36213226   3.956   4.695   1.268 -0.2667  0.3128  1.0726
   33MOL   C36313227   3.918   4.590   1.152  0.2999  0.4042 -0.3190
   33MOL   C36413228   3.933   4.447   1.177  0.1852  0.5377 -0.0073
   33MOL   C36513229   3.896   4.356   1.071  0.9850  0.0473 -0.2700
   33MOL   C36613230   3.836   4.403   0.947 -0.1105  0.0949 -0.2968
   33MOL   O36713231   3.796   4.327   0.841  0.4643  0.4772 -0.4047
   33MOL   C36813232   3.801   4.188   0.858 -0.5026  0.1235  0.4887
   33MOL   C36913233   3.828   4.542   0.931  0.0557 -0.4862  0.5812
   33MOL   C37013234   3.872   4.634   1.028 -0.3122 -0.0132 -0.5473
   33MOL   C37113235   4.109   4.717   1.274 -0.0700 -0.3926 -0.5772
   33MOL   H37213236   3.923   4.795   1.239 -1.1475 -0.2310  0.1676
   33MOL   H37313237   3.980   4.411   1.267 -0.0723  0.5764  0.1451
   33MOL   H37413238   3.905   4.250   1.089 -0.4314  0.0797  0.7691
   33MOL   H37513239   3.904   4.152   0.853 -0.5892 -0.0135 -0.2893
   33MOL   H37613240   3.746   4.146   0.942 -2.2385 -0.2979 -0.8370
   33MOL   H37713241   3.756   4.140   0.772  0.0983  0.6117 -0.1035
   33MOL   H37813242   3.795   4.574   0.833  2.8923 -0.1492 -0.3273
   33MOL   H37913243   3.863   4.739   1.002  1.5192  0.5302  0.8905
   33MOL   H38013244   4.133   4.757   1.373  1.7691 -2.5846 -0.0873
   33MOL   H38113245   4.154   4.618   1.262 -0.6033 -0.5703 -1.1039
   33MOL   C38213246   4.168   4.830   1.187 -0.7330  0.6784 -0.5095
   33MOL   C38313247   4.321   4.801   1.159  0.3257  0.1002  0.3422
   33MOL   C38413248   4.417   4.824   1.262  0.1544  0.2250  0.7397
   33MOL   C38513249   4.549   4.793   1.233  0.1068 -0.1725 -0.5068
   33MOL   C38613250   4.597   4.767   1.104  0.2343 -0.0579  0.3500
   33MOL   O38713251   4.733   4.750   1.079 -0.9308  0.1209 -0.1243
   33MOL   C38813252   4.824   4.804   1.170 -0.2142 -1.1585  0.0666
   33MOL   C38913253   4.504   4.761   1.001  0.0537 -1.1660  0.1901
   33MOL   C39013254   4.367   4.771   1.028  0.1577  0.2907 -0.1816
   33MOL   C39113255   4.154   4.975   1.237  0.1650  0.8068 -0.0681
   33MOL   H39213256   4.114   4.811   1.094 -0.0050  1.0645 -1.0121
   33MOL   H39313257   4.380   4.852   1.360  0.3439  0.2219  0.8121
   33MOL   H39413258   4.615   4.800   1.319  1.3103 -1.5785 -1.2909
   33MOL   H39513259   4.808   4.791   1.278 -0.7522 -3.4601 -0.2651
   33MOL   H39613260   4.834   4.912   1.158 -0.7684 -1.1445 -0.3082
   33MOL   H39713261   4.926   4.775   1.146  0.3690  2.0813 -1.6136
   33MOL   H39813262   4.527   4.746   0.896 -1.4162  0.4230 -0.3882
   33MOL   H39913263   4.297   4.759   0.947 -1.0809 -1.3852  1.1147
   33MOL   H40013264   4.048   4.999   1.231  0.4295  2.0366  0.1582
   33MOL   H40113265   4.203   5.054   1.181 -0.9835  1.7019  0.1695
   33MOL   H40213266   4.195   5.005   1.334  0.8526 -2.6029  0.7743
   34MOL     C113267   2.508   2.742   6.721 -1.1267  0.3377 -0.0950
   34MOL     C213268   2.541   2.875   6.653 -0.0466  0.1435 -0.0067
   34MOL     C313269   2.518   2.884   6.515  0.5080  0.3305  0.3898
   34MOL     C413270   2.538   3.002   6.446 -0.4766 -0.5293 -0.8312
   34MOL     C513271   2.579   3.117   6.514  0.1172 -0.1695 -0.0639
   34MOL     O613272   2.594   3.237   6.452 -0.4834  0.4148  0.0218
   34MOL     C713273   2.543   3.248   6.318 -0.5922 -0.7518  0.1652
   34MOL     C813274   2.606   3.109   6.649  0.0940  0.5294  0.2105
   34MOL     C913275   2.586   2.983   6.724  0.4206  0.2783 -0.2519
   34MOL    C1013276   2.378   2.753   6.802  0.1717  0.4264  0.5030
   34MOL    H1113277   2.590   2.712   6.786 -1.5983 -0.6788  0.0368
   34MOL    H1213278   2.485   2.794   6.466  2.0648 -0.0416 -0.0109
   34MOL    H1313279   2.509   2.996   6.342 -3.9142  0.3826  0.0336
   34MOL    H1413280   2.578   3.345   6.284 -0.9758 -0.9494 -0.8132
   34MOL    H1513281   2.586   3.176   6.248  1.3981  1.3877 -0.8544
   34MOL    H1613282   2.435   3.233   6.314 -0.5108 -1.1978 -0.5767
   34MOL    H1713283   2.644   3.190   6.710 -0.9674  0.8860  0.4103
   34MOL    H1813284   2.604   2.973   6.830  1.6425 -0.4764 -0.5220
   34MOL    H1913285   2.399   2.768   6.908  0.5836  0.0881  0.4696
   34MOL    H2013286   2.334   2.847   6.768  1.9671  1.4911  1.0361
   34MOL    H2113287   2.505   2.669   6.640  1.3691  1.0402 -0.8888
   34MOL    C2213288   2.281   2.632   6.800 -0.3058 -0.4726  0.0817
   34MOL    C2313289   2.156   2.648   6.881  0.6587 -0.3537  0.1021
   34MOL    C2413290   2.045   2.724   6.835 -0.0154  0.2547  0.3107
   34MOL    C2513291   1.929   2.737   6.917  0.1122  0.2363 -0.7008
   34MOL    C2613292   1.927   2.668   7.041 -0.2564  0.7316  0.8989
   34MOL    O2713293   1.825   2.668   7.138 -0.1038  0.4634 -0.8915
   34MOL    C2813294   1.705   2.730   7.112  0.7988  0.3911 -0.5799
   34MOL    C2913295   2.038   2.592   7.079 -1.1328  0.1103  0.2804
   34MOL    C3013296   2.157   2.586   7.005 -0.3467 -0.0624 -0.4457
   34MOL    C3113297   2.250   2.586   6.653 -0.0686  0.4648  0.2437
   34MOL    H3213298   2.333   2.546   6.841  1.5123  1.3268  1.6944
   34MOL    H3313299   2.053   2.783   6.745 -1.4020  1.1235  0.7317
   34MOL    H3413300   1.849   2.803   6.888 -0.2834 -0.4025 -1.0943
   34MOL    H3513301   1.633   2.698   7.188  0.8626 -0.0504 -0.7040
   34MOL    H3613302   1.667   2.696   7.016 -1.5273 -0.9476  0.7688
   34MOL    H3713303   1.701   2.839   7.120  0.5338  0.2365  1.6490
   34MOL    H3813304   2.027   2.540   7.173  1.0226 -0.0275  0.4692
   34MOL    H3913305   2.246   2.533   7.034  0.2739  1.3293  0.2277
   34MOL    H4013306   2.241   2.675   6.591 -0.2158  0.9610  0.9747
   34MOL    H4113307   2.340   2.537   6.614 -1.3535 -3.1914  1.6423
   34MOL    C4213308   2.130   2.493   6.634 -0.5599  0.5292  0.1158
   34MOL    C4313309   2.160   2.354   6.694  0.2756  0.0397  0.3640
   34MOL    C4413310   2.252   2.265   6.633  0.5413  0.5510  0.0435
   34MOL    C4513311   2.260   2.133   6.672 -0.1555  0.4612  0.1806
   34MOL    C4613312   2.176   2.084   6.775 -0.5038 -0.2407  0.0343
   34MOL    O4713313   2.193   1.951   6.803  0.1387  0.1766  0.1709
   34MOL    C4813314   2.087   1.890   6.865  0.4235 -0.3702  0.2376
   34MOL    C4913315   2.096   2.173   6.852 -0.5401  0.3664  0.1500
   34MOL    C5013316   2.090   2.309   6.807 -1.1674 -0.0692 -0.2544
   34MOL    C5113317   2.078   2.489   6.479 -0.5343  0.0336 -0.8731
   34MOL    H5213318   2.044   2.528   6.691 -0.5235 -0.0007  0.4992
   34MOL    H5313319   2.314   2.307   6.555 -0.1570  0.2277 -0.7010
   34MOL    H5413320   2.332   2.071   6.620  0.8910  2.1194 -0.4223
   34MOL    H5513321   1.999   1.906   6.803  0.6587 -2.2939 -0.6412
   34MOL    H5613322   2.117   1.786   6.864 -1.4142 -0.9435  2.0525
   34MOL    H5713323   2.081   1.909   6.972 -0.9256  0.4189  0.0337
   34MOL    H5813324   2.051   2.130   6.940  0.6458 -1.0875  0.0681
   34MOL    H5913325   2.040   2.380   6.871  0.4918  0.8773  0.0295
   34MOL    H6013326   2.153   2.446   6.414 -1.3899 -1.3567 -0.9724
   34MOL    H6113327   2.062   2.591   6.444  2.8609  1.1769  0.7215
   34MOL    C6213328   1.949   2.398   6.458  0.2732 -0.1103  0.4969
   34MOL    C6313329   1.941   2.334   6.316 -0.4133  0.4132 -0.2517
   34MOL    C6413330   1.907   2.410   6.198 -0.0550  0.0289  0.1275
   34MOL    C6513331   1.934   2.353   6.067  0.0989 -0.5519 -0.9304
   34MOL    C6613332   1.979   2.224   6.054  0.1700  0.0246  0.6038
   34MOL    O6713333   1.999   2.193   5.917  0.2108  0.0211  0.2253
   34MOL    C6813334   2.026   2.054   5.882 -0.4565 -0.1389 -0.2404
   34MOL    C6913335   2.019   2.150   6.171  0.4403 -0.1334 -0.6763
   34MOL    C7013336   1.987   2.198   6.297 -0.5056 -0.4280 -0.3705
   34MOL    C7113337   1.824   2.476   6.491  0.2606 -0.3911 -0.5009
   34MOL    H7213338   1.954   2.315   6.529 -0.1598 -1.2501 -0.7756
   34MOL    H7313339   1.895   2.517   6.204  0.4637  0.2221 -1.8456
   34MOL    H7413340   1.909   2.416   5.982  0.6871 -0.6471 -1.1752
   34MOL    H7513341   2.123   2.023   5.921  0.4543 -0.7269 -2.8863
   34MOL    H7613342   2.016   2.047   5.774 -1.9529  0.5952 -0.1568
   34MOL    H7713343   1.941   1.994   5.913  1.1754 -1.8010  1.1207
   34MOL    H7813344   2.079   2.063   6.147  3.0104  1.5899 -0.6238
   34MOL    H7913345   2.005   2.131   6.380 -0.1116  0.8213  0.5675
   34MOL    H8013346   1.843   2.534   6.582  2.1899 -0.4491 -0.8298
   34MOL    H8113347   1.801   2.535   6.403 -0.6329  1.7552  1.1186
   34MOL    C8213348   1.709   2.376   6.527 -0.7973  0.3306  0.2827
   34MOL    C8313349   1.721   2.333   6.674  0.2997  0.4006 -0.4807
   34MOL    C8413350   1.740   2.419   6.783  0.2682 -0.1213  0.2405
   34MOL    C8513351   1.770   2.359   6.906  0.6503  0.8754 -0.4797
   34MOL    C8613352   1.782   2.221   6.931 -0.1408 -0.0365 -0.9590
   34MOL    O8713353   1.833   2.173   7.055 -0.1035  0.3858 -0.3053
   34MOL    C8813354   1.814   2.039   7.103 -1.0153 -0.7010  0.6491
   34MOL    C8913355   1.756   2.129   6.828  0.2700 -0.3764  0.2709
   34MOL    C9013356   1.725   2.189   6.697  0.1211  0.5419 -0.5098
   34MOL    C9113357   1.566   2.435   6.508 -0.8398  0.3434  0.2650
   34MOL    H9213358   1.727   2.288   6.467 -0.2173  2.1008 -2.2254
   34MOL    H9313359   1.723   2.525   6.774 -2.3376 -0.5936 -0.6878
   34MOL    H9413360   1.776   2.421   6.994  1.2776  0.5851 -0.3144
   34MOL    H9513361   1.906   1.983   7.089 -1.4717 -1.3146  0.0694
   34MOL    H9613362   1.730   1.982   7.062 -0.3420 -1.9557  0.9986
   34MOL    H9713363   1.792   2.048   7.209  2.8133 -2.1499  1.6456
   34MOL    H9813364   1.766   2.022   6.839 -2.0759 -0.7332 -0.7601
   34MOL    H9913365   1.702   2.123   6.614 -1.2034  0.2787  0.0570
   34MOL   H10013366   1.507   2.381   6.582  0.9438 -1.0525  0.7240
   34MOL   H10113367   1.580   2.537   6.544 -3.3245  1.0277 -0.6210
   34MOL   C10213368   1.517   2.436   6.361  0.5792  0.2793  0.1729
   34MOL   C10313369   1.512   2.289   6.308 -0.4104 -0.1290 -0.1582
   34MOL   C10413370   1.592   2.243   6.201 -0.2840 -0.1315 -0.7374
   34MOL   C10513371   1.609   2.104   6.174  0.1423 -0.3793 -0.4854
   34MOL   C10613372   1.536   2.013   6.254 -0.0348  0.2877  0.1795
   34MOL   O10713373   1.546   1.874   6.237  0.0057 -0.2491 -0.5474
   34MOL   C10813374   1.614   1.825   6.121  0.1774 -0.3531  0.3518
   34MOL   C10913375   1.446   2.058   6.352 -0.5824  0.4755  0.3605
   34MOL   C11013376   1.433   2.194   6.374 -0.0284  0.8996 -0.1825
   34MOL   C11113377   1.389   2.512   6.355 -0.3068 -0.1817  0.4044
   34MOL   H11213378   1.583   2.502   6.306 -0.4161  2.2885  1.3199
   34MOL   H11313379   1.653   2.319   6.154  0.0129 -0.5330 -1.0016
   34MOL   H11413380   1.678   2.070   6.100  0.4002  1.3284 -1.0506
   34MOL   H11513381   1.575   1.875   6.032 -2.1580 -1.6195  0.6100
   34MOL   H11613382   1.716   1.838   6.156  0.7351 -4.5466  0.5433
   34MOL   H11713383   1.593   1.720   6.102 -0.0726 -0.1482 -0.5275
   34MOL   H11813384   1.387   1.986   6.407 -2.1374  1.5137  0.0881
   34MOL   H11913385   1.370   2.223   6.457 -1.8433 -1.0792 -0.8342
   34MOL   H12013386   1.321   2.464   6.425 -1.2611  0.6669  0.0691
   34MOL   H12113387   1.400   2.617   6.381  0.1819 -0.5668  1.7746
   34MOL   C12213388   1.326   2.502   6.212 -0.2814  0.4223 -0.2367
   34MOL   C12313389   1.422   2.530   6.097  0.3654 -0.2715  0.1161
   34MOL   C12413390   1.426   2.437   5.994 -0.0439  0.1989  0.1238
   34MOL   C12513391   1.493   2.459   5.872 -0.5469 -0.4373 -0.8484
   34MOL   C12613392   1.547   2.586   5.850 -0.5415  0.5206 -0.3664
   34MOL   O12713393   1.600   2.624   5.728 -0.1327  0.3925  0.1870
   34MOL   C12813394   1.602   2.536   5.612 -0.5760 -0.4017  0.0639
   34MOL   C12913395   1.552   2.680   5.958  0.7336  0.7382  0.1982
   34MOL   C13013396   1.478   2.655   6.079 -1.0244  1.0526 -0.4040
   34MOL   C13113397   1.197   2.589   6.202  0.4596 -0.7467  0.1508
   34MOL   H13213398   1.283   2.402   6.199 -0.8229  0.9462 -2.7804
   34MOL   H13313399   1.374   2.343   6.008  1.8193 -0.9286 -0.2839
   34MOL   H13413400   1.486   2.384   5.794 -1.4047 -1.5062  0.2283
   34MOL   H13513401   1.652   2.440   5.627  0.5364  0.0199 -0.9697
   34MOL   H13613402   1.500   2.518   5.577 -0.3947  1.5241 -1.5518
   34MOL   H13713403   1.667   2.573   5.533 -1.6374  0.9022 -0.2244
   34MOL   H13813404   1.606   2.773   5.948 -0.1257  1.4743  2.1432
   34MOL   H13913405   1.466   2.732   6.154 -1.2641 -0.0428  0.6814
   34MOL   H14013406   1.238   2.680   6.159  2.3842 -2.4469 -1.6950
   34MOL   H14113407   1.161   2.609   6.303  0.8353  0.1611  0.1154
   34MOL   C14213408   1.078   2.535   6.109 -0.1827  0.1516  0.4119
   34MOL   C14313409   1.011   2.412   6.175 -0.1574  0.6274 -0.0807
   34MOL   C14413410   1.011   2.285   6.110 -0.7147 -0.3177 -0.0985
   34MOL   C14513411   0.984   2.170   6.180 -0.4666  0.0075 -0.2276
   34MOL   C14613412   0.931   2.178   6.313  0.4994 -0.2556 -0.1272
   34MOL   O14713413   0.897   2.066   6.383  0.5702  0.6490 -0.1105
   34MOL   C14813414   0.912   1.939   6.312  0.0661  0.0972 -0.1018
   34MOL   C14913415   0.917   2.306   6.376 -0.5833 -0.1756 -0.5102
   34MOL   C15013416   0.964   2.418   6.306  0.7543  0.2322  0.0629
   34MOL   C15113417   0.982   2.643   6.054  0.3999  0.1979  0.8064
   34MOL   H15213418   1.128   2.488   6.024  1.0292  1.4996  0.3606
   34MOL   H15313419   1.056   2.260   6.014  1.7267  2.9469  0.0959
   34MOL   H15413420   0.998   2.074   6.134  0.2879  0.2861 -0.6002
   34MOL   H15513421   1.014   1.903   6.296 -0.3249 -0.9829 -0.2027
   34MOL   H15613422   0.864   1.859   6.369  0.4754  0.4588  0.7696
   34MOL   H15713423   0.861   1.943   6.216  0.4552 -0.1462 -0.3194
   34MOL   H15813424   0.887   2.310   6.480  0.9296  1.8502 -0.1199
   34MOL   H15913425   0.967   2.512   6.360  0.8839 -0.5250  1.4012
   34MOL   H16013426   1.019   2.745   6.056  1.2253 -0.0900  0.5670
   34MOL   H16113427   0.902   2.630   6.126  0.7970  2.1702  1.6464
   34MOL   C16213428   0.936   2.594   5.911  0.6096  0.0786  0.3794
   34MOL   C16313429   1.040   2.627   5.807 -0.3149  0.0762 -0.1838
   34MOL   C16413430   1.067   2.765   5.791  0.0007 -0.4123  0.9534
   34MOL   C16513431   1.164   2.808   5.698  0.3327 -0.8527  0.0430
   34MOL   C16613432   1.231   2.717   5.617  0.2214  0.1812  1.7270
   34MOL   O16713433   1.327   2.746   5.518  0.1437 -0.2738 -0.4532
   34MOL   C16813434   1.379   2.881   5.525  0.1946  0.4196 -0.0134
   34MOL   C16913435   1.198   2.580   5.628 -0.3004  0.1004 -0.8064
   34MOL   C17013436   1.098   2.538   5.719 -0.0561 -0.0752 -0.1441
   34MOL   C17113437   0.800   2.649   5.866 -0.4344 -0.3972 -0.5867
   34MOL   H17213438   0.934   2.485   5.912  0.4449  0.0844  0.8286
   34MOL   H17313439   1.027   2.844   5.852 -1.4705  0.1422 -0.6870
   34MOL   H17413440   1.182   2.915   5.701  0.4749 -0.8517 -0.7436
   34MOL   H17513441   1.459   2.896   5.453 -1.3975  0.3191 -1.8487
   34MOL   H17613442   1.417   2.893   5.627  1.9496 -0.8128 -0.4999
   34MOL   H17713443   1.309   2.961   5.499  1.4220  1.5270  0.0423
   34MOL   H17813444   1.245   2.516   5.555  2.1885  0.6115  0.3066
   34MOL   H17913445   1.081   2.434   5.742  0.1603  0.3253  1.9506
   34MOL   H18013446   0.799   2.643   5.757  1.9681 -1.2611 -0.5967
   34MOL   H18113447   0.798   2.757   5.884 -0.7461 -0.3286 -1.0169
   34MOL   C18213448   0.680   2.579   5.928 -0.0786 -0.4934  0.4941
   34MOL   C18313449   0.674   2.431   5.882  0.1342  0.2361 -0.5983
   34MOL   C18413450   0.652   2.394   5.748 -0.9112  0.4950  0.5020
   34MOL   C18513451   0.625   2.258   5.722  1.4467  0.1447  0.7627
   34MOL   C18613452   0.648   2.160   5.814  0.5804 -0.5016 -0.3545
   34MOL   O18713453   0.648   2.023   5.789 -0.2111  0.4865 -0.5583
   34MOL   C18813454   0.642   1.976   5.652  0.7939  0.1244 -0.1161
   34MOL   C18913455   0.693   2.196   5.940  0.7017  0.8642 -0.6746
   34MOL   C19013456   0.699   2.332   5.977 -0.9657 -0.4087  0.2749
   34MOL   C19113457   0.537   2.649   5.917 -0.3655  0.4406 -0.1466
   34MOL   H19213458   0.688   2.580   6.037 -0.6193 -0.6255  0.5352
   34MOL   H19313459   0.624   2.475   5.682  0.6190 -1.3468 -2.5157
   34MOL   H19413460   0.604   2.231   5.620  1.3586  3.6211 -0.2242
   34MOL   H19513461   0.721   2.013   5.585  0.6318  0.0141 -0.3703
   34MOL   H19613462   0.548   2.015   5.613 -0.7238 -0.2752  3.0296
   34MOL   H19713463   0.645   1.867   5.658  3.0594  0.2657  2.3294
   34MOL   H19813464   0.719   2.129   6.021  2.1780 -1.5589 -3.0779
   34MOL   H19913465   0.740   2.373   6.068 -0.1282  0.3025 -0.4202
   34MOL   H20013466   0.506   2.636   5.814  0.3898  0.3766 -0.3682
   34MOL   H20113467   0.458   2.607   5.979  0.4699 -1.1904 -0.1813
   34MOL   C20213468   0.530   2.796   5.953 -0.3876 -0.1846 -0.4460
   34MOL   C20313469   0.597   2.837   6.078 -0.5071  0.5430 -0.5224
   34MOL   C20413470   0.558   2.771   6.197 -0.2737  0.2845 -0.2524
   34MOL   C20513471   0.601   2.823   6.319 -0.3160 -0.7016  0.3411
   34MOL   C20613472   0.672   2.946   6.320  0.2903 -0.4450  0.7017
   34MOL   O20713473   0.710   3.011   6.437 -0.2612 -0.0216  0.5302
   34MOL   C20813474   0.674   2.951   6.561  0.3132 -0.2657  0.4855
   34MOL   C20913475   0.700   3.014   6.197 -0.0105  0.1591 -0.4143
   34MOL   C21013476   0.670   2.957   6.077 -0.2994  0.4252 -0.5915
   34MOL   C21113477   0.391   2.865   5.951  0.0934 -0.4497  0.1723
   34MOL   H21213478   0.581   2.844   5.869 -0.3001 -1.2807 -1.0257
   34MOL   H21313479   0.485   2.692   6.193 -0.6400  0.6329 -0.4976
   34MOL   H21413480   0.561   2.776   6.408 -1.3767  0.7249  0.6318
   34MOL   H21513481   0.725   3.004   6.641  1.7154 -1.8908  0.7183
   34MOL   H21613482   0.567   2.963   6.577  0.8917  4.0088  1.7001
   34MOL   H21713483   0.698   2.844   6.561 -1.5329 -0.6975 -1.0421
   34MOL   H21813484   0.754   3.108   6.196  0.4523 -0.1010 -1.8115
   34MOL   H21913485   0.706   3.003   5.986 -2.1025  1.2798 -0.8998
   34MOL   H22013486   0.398   2.962   5.999 -2.8942 -1.6811  3.3162
   34MOL   H22113487   0.315   2.807   6.005  0.1558 -0.1597  0.5709
   34MOL   C22213488   0.331   2.907   5.818  0.3553 -0.9255  0.2201
   34MOL   C22313489   0.187   2.949   5.827  0.1445 -0.0089  0.4722
   34MOL   C22413490   0.154   3.059   5.896 -0.0720  0.7597  0.1865
   34MOL   C22513491   0.020   3.098   5.902 -0.0304  0.4480 -0.1384
   34MOL   C22613492   7.959   3.026   5.838 -0.0900  0.0517  0.7977
   34MOL   O22713493   7.823   3.066   5.849 -0.7584 -0.1597  0.0970
   34MOL   C22813494   7.721   2.995   5.793  0.0612  0.1578  0.1531
   34MOL   C22913495   7.996   2.924   5.751 -0.0710 -0.2011  0.2610
   34MOL   C23013496   0.087   2.886   5.755 -0.0289  0.1224  0.0061
   34MOL   C23113497   0.413   3.016   5.733 -0.4889 -0.4913 -0.7405
   34MOL   H23213498   0.335   2.809   5.771  2.9752  0.0272 -1.6348
   34MOL   H23313499   0.227   3.122   5.944  1.4303 -1.0272  0.3160
   34MOL   H23413500   8.024   3.176   5.967 -0.5974  0.8710 -0.9551
   34MOL   H23513501   7.706   3.047   5.699  0.4485 -2.2445 -1.2647
   34MOL   H23613502   7.723   2.886   5.792 -1.6808  0.1218  0.5391
   34MOL   H23713503   7.641   3.015   5.864 -2.5435 -1.5450 -2.2439
   34MOL   H23813504   7.926   2.870   5.688 -0.4124 -0.2066  0.6432
   34MOL   H23913505   0.118   2.799   5.698  1.9239  1.2640 -0.7053
   34MOL   H24013506   0.351   3.105   5.732 -1.0368 -0.8688 -0.8077
   34MOL   H24113507   0.499   3.053   5.788 -0.8689 -1.6345  0.6465
   34MOL   C24213508   0.459   2.983   5.586  0.8574 -0.0954 -0.3588
   34MOL   C24313509   0.346   2.934   5.495  0.3923  0.3524  0.4260
   34MOL   C24413510   0.333   2.800   5.465  0.2503  0.4440 -0.3126
   34MOL   C24513511   0.245   2.757   5.367  0.0799 -0.1916 -0.6959
   34MOL   C24613512   0.162   2.844   5.296  0.1115 -0.5587  0.0338
   34MOL   O24713513   0.085   2.793   5.198  0.0513 -0.0197  0.3296
   34MOL   C24813514   0.020   2.888   5.110  0.4620 -0.1969 -0.4127
   34MOL   C24913515   0.155   2.977   5.347 -0.6381 -0.0511  0.1490
   34MOL   C25013516   0.251   3.022   5.442 -0.5070 -0.5141  0.6518
   34MOL   C25113517   0.542   3.101   5.522 -0.0360 -0.1155 -0.3434
   34MOL   H25213518   0.521   2.896   5.609 -1.0216 -0.8543  2.0609
   34MOL   H25313519   0.401   2.731   5.513 -1.1351 -0.9809 -0.3484
   34MOL   H25413520   0.240   2.650   5.358 -0.4573 -0.2048 -0.2878
   34MOL   H25513521   7.964   2.920   5.151  0.9722  1.7339 -0.7005
   34MOL   H25613522   0.085   2.972   5.085  1.1683  0.0235  2.0456
   34MOL   H25713523   0.008   2.835   5.015  1.2534  3.9818 -2.9592
   34MOL   H25813524   0.085   3.044   5.300 -1.0407  0.3319  1.2792
   34MOL   H25913525   0.241   3.121   5.483  1.2887  0.1837 -0.5630
   34MOL   H26013526   0.618   3.145   5.585 -0.8551  1.6986 -0.5926
   34MOL   H26113527   0.474   3.186   5.523 -1.1297 -0.9057 -3.1855
   34MOL   C26213528   0.596   3.077   5.382  0.6882  0.8674  0.4740
   34MOL   C26313529   0.677   2.952   5.373 -0.3768  0.4696 -0.6096
   34MOL   C26413530   0.627   2.837   5.306  0.3663 -1.1016 -0.0613
   34MOL   C26513531   0.701   2.719   5.315 -0.2319 -0.4874  0.3949
   34MOL   C26613532   0.816   2.706   5.400 -0.1563  0.5073 -0.2651
   34MOL   O26713533   0.889   2.593   5.404  0.4579 -0.1865 -0.2389
   34MOL   C26813534   0.824   2.467   5.396 -0.6232  0.1636  0.0070
   34MOL   C26913535   0.866   2.818   5.467  0.3999  0.1226  0.1117
   34MOL   C27013536   0.799   2.941   5.449 -0.3409 -0.1101  0.6556
   34MOL   C27113537   0.668   3.197   5.322  0.0118 -1.2301 -0.2695
   34MOL   H27213538   0.507   3.051   5.323  2.1994  0.9004 -1.8919
   34MOL   H27313539   0.551   2.840   5.229  2.1127  1.1746 -1.7647
   34MOL   H27413540   0.668   2.630   5.264 -1.2846 -0.8453  1.6768
   34MOL   H27513541   0.725   2.465   5.441  0.5634 -2.4515  2.6319
   34MOL   H27613542   0.875   2.397   5.462  1.3524  0.3018 -1.3245
   34MOL   H27713543   0.822   2.428   5.295 -0.3863 -1.8143  0.7520
   34MOL   H27813544   0.950   2.817   5.534  0.7212  2.6473 -0.2262
   34MOL   H27913545   0.828   3.029   5.505  0.0385  1.3062 -1.7119
   34MOL   H28013546   0.736   3.238   5.397 -0.4465 -1.3361  0.2094
   34MOL   H28113547   0.730   3.172   5.236  0.1925  3.3382 -1.5643
   34MOL   C28213548   0.576   3.306   5.276  0.7021  0.4643  0.1567
   34MOL   C28313549   0.498   3.270   5.152  0.0274  0.1448 -0.3724
   34MOL   C28413550   0.353   3.272   5.165  0.3676  0.0644 -0.9247
   34MOL   C28513551   0.270   3.236   5.066 -0.0023  0.1802 -0.3923
   34MOL   C28613552   0.331   3.195   4.947  0.3822  0.2148 -0.0583
   34MOL   O28713553   0.245   3.139   4.858  0.0900  0.3046 -0.2266
   34MOL   C28813554   0.287   3.154   4.726 -1.0793  0.2243  1.4064
   34MOL   C28913555   0.472   3.194   4.929 -0.2227 -0.0262 -0.3445
   34MOL   C29013556   0.557   3.243   5.029  0.8176  0.3645 -0.1713
   34MOL   C29113557   0.657   3.435   5.262 -0.0222  0.3200  0.0819
   34MOL   H29213558   0.506   3.330   5.356  1.7879  0.2327  1.1885
   34MOL   H29313559   0.308   3.303   5.258  0.2118  0.1724 -1.0360
   34MOL   H29413560   0.164   3.235   5.083  0.2668  0.8593  1.4979
   34MOL   H29513561   0.202   3.142   4.658 -0.7921 -1.5877  1.3360
   34MOL   H29613562   0.351   3.239   4.705  0.8191 -1.6842 -0.7399
   34MOL   H29713563   0.344   3.062   4.710  0.7870  1.5063  0.5490
   34MOL   H29813564   0.517   3.161   4.837  0.5999  0.8576 -0.2723
   34MOL   H29913565   0.664   3.252   5.021  0.8338  2.5147  1.8479
   34MOL   H30013566   0.745   3.415   5.201 -0.9536  2.2825 -1.9851
   34MOL   H30113567   0.596   3.508   5.208  1.7895  1.3537 -0.5894
   34MOL   C30213568   0.695   3.503   5.399 -0.3515  0.3982 -0.4897
   34MOL   C30313569   0.850   3.515   5.415 -0.0014 -0.3205 -0.2875
   34MOL   C30413570   0.917   3.626   5.361  0.3147 -0.2361  0.3701
   34MOL   C30513571   1.057   3.643   5.370 -0.4820  0.5699 -0.2127
   34MOL   C30613572   1.128   3.547   5.442 -0.0137  0.6808 -0.4789
   34MOL   O30713573   1.262   3.554   5.442  0.0446 -0.2972 -0.4698
   34MOL   C30813574   1.342   3.470   5.529 -0.2468 -0.8922 -0.0057
   34MOL   C30913575   1.061   3.440   5.510 -1.0410 -0.7611  0.0272
   34MOL   C31013576   0.922   3.425   5.497  0.1346  0.0328  0.5648
   34MOL   C31113577   0.619   3.630   5.428  0.1591  0.2951  0.5948
   34MOL   H31213578   0.667   3.428   5.473 -0.0583  0.9881  0.2215
   34MOL   H31313579   0.862   3.689   5.292  0.0115 -2.0707 -1.0953
   34MOL   H31413580   1.110   3.732   5.338  2.2174 -2.1188 -3.6070
   34MOL   H31513581   1.340   3.367   5.492 -0.1371  0.0466 -2.7785
   34MOL   H31613582   1.305   3.468   5.632  2.1646 -1.8899  0.8626
   34MOL   H31713583   1.443   3.511   5.527 -0.1097 -1.2494 -0.4350
   34MOL   H31813584   1.113   3.355   5.552 -1.0786 -0.0986  1.4426
   34MOL   H31913585   0.876   3.344   5.551  1.4906 -1.1205  0.0356
   34MOL   H32013586   0.516   3.612   5.397  0.6597 -2.5391  0.4152
   34MOL   H32113587   0.646   3.700   5.350 -2.2724 -0.5342 -1.0574
   34MOL   C32213588   0.620   3.690   5.572 -0.4408  0.4336 -0.7754
   34MOL   C32313589   0.551   3.600   5.675  0.6921 -0.0024  0.3086
   34MOL   C32413590   0.599   3.601   5.808 -0.8495  0.3726  0.2074
   34MOL   C32513591   0.548   3.519   5.903 -0.4454  0.4472  0.4631
   34MOL   C32613592   0.445   3.434   5.872  0.0783  0.4196 -0.1567
   34MOL   O32713593   0.386   3.344   5.963 -0.5666 -0.6389 -0.6338
   34MOL   C32813594   0.477   3.297   6.060 -0.2834  0.1277 -1.3695
   34MOL   C32913595   0.394   3.429   5.745 -0.7984 -0.4690  0.0645
   34MOL   C33013596   0.442   3.509   5.646 -0.2802 -0.7166 -0.5197
   34MOL   C33113597   0.542   3.825   5.580  0.2459  0.2574  0.6441
   34MOL   H33213598   0.722   3.715   5.600  0.2028 -0.4057 -2.2992
   34MOL   H33313599   0.681   3.664   5.841 -0.9856 -0.2018  1.6838
   34MOL   H33413600   0.589   3.514   6.003 -0.2961 -1.0032  0.3497
   34MOL   H33513601   0.492   3.364   6.144 -1.7406  0.5847 -1.4596
   34MOL   H33613602   0.570   3.278   6.005 -0.7094 -1.7900 -1.4769
   34MOL   H33713603   0.446   3.193   6.075 -3.8577  1.0566 -1.8135
   34MOL   H33813604   0.312   3.361   5.726 -2.9345  2.1371 -0.4543
   34MOL   H33913605   0.398   3.509   5.548 -0.5071 -0.2644 -0.4175
   34MOL   H34013606   0.442   3.815   5.539  1.0046  1.6754 -1.6436
   34MOL   H34113607   0.525   3.853   5.684  1.5089 -2.8656  1.7457
   34MOL   C34213608   0.613   3.943   5.502  0.0713 -0.0937 -0.6819
   34MOL   C34313609   0.740   3.990   5.575  0.5238 -0.6098 -0.4224
   34MOL   C34413610   0.730   4.055   5.700  0.0906 -0.1752  0.3136
   34MOL   C34513611   0.840   4.077   5.782  0.1224  1.0147  0.2771
   34MOL   C34613612   0.968   4.031   5.741  0.3101 -0.5388  0.4562
   34MOL   O34713613   1.074   4.022   5.827  0.4087 -0.0016  0.3241
   34MOL   C34813614   1.058   4.069   5.956 -0.8776  0.0542  0.3114
   34MOL   C34913615   0.981   3.979   5.610  1.1276 -0.0946 -0.4229
   34MOL   C35013616   0.870   3.950   5.533  0.1276 -0.1681  0.0029
   34MOL   C35113617   0.526   4.067   5.474  0.2377 -0.2399 -0.8736
   34MOL   H35213618   0.639   3.896   5.407 -0.8028 -2.8344  0.3831
   34MOL   H35313619   0.634   4.080   5.743  0.0810 -1.5155  1.0914
   34MOL   H35413620   0.819   4.107   5.883  0.8817 -0.7546  0.9877
   34MOL   H35513621   1.080   4.176   5.958  1.8214 -0.4847  0.1292
   34MOL   H35613622   0.971   4.043   6.016  0.6749 -1.4638  1.9545
   34MOL   H35713623   1.137   4.022   6.014  2.1246  2.0493 -2.0226
   34MOL   H35813624   1.070   3.929   5.575  1.4103  0.8122 -1.0170
   34MOL   H35913625   0.883   3.896   5.441  1.2689  0.6713 -0.3324
   34MOL   H36013626   0.517   4.124   5.566 -0.3378  0.5966 -1.4412
   34MOL   H36113627   0.587   4.127   5.407  1.9243 -1.2186 -0.2506
   34MOL   C36213628   0.392   4.045   5.399  0.1965  0.0036  0.1254
   34MOL   C36313629   0.409   3.963   5.272 -0.0940 -0.4728  0.2201
   34MOL   C36413630   0.470   4.021   5.160 -0.0961 -0.8952 -0.3517
   34MOL   C36513631   0.469   3.955   5.037  0.2435  0.4132 -0.2961
   34MOL   C36613632   0.417   3.824   5.027  0.0027 -0.1411  0.2532
   34MOL   O36713633   0.436   3.748   4.914 -0.3738  0.1838  0.3047
   34MOL   C36813634   0.431   3.607   4.911 -0.2716 -0.2424 -0.8584
   34MOL   C36913635   0.353   3.763   5.137  0.6242 -0.4191 -0.0948
   34MOL   C37013636   0.347   3.840   5.256  0.1496  0.1312 -0.1347
   34MOL   C37113637   0.328   4.191   5.370  0.4471  0.0471  0.1574
   34MOL   H37213638   0.327   3.983   5.462  1.1839 -1.5459 -0.3628
   34MOL   H37313639   0.509   4.121   5.172 -2.8325  0.5265 -2.6797
   34MOL   H37413640   0.525   3.981   4.948  1.1923 -1.6478 -0.3305
   34MOL   H37513641   0.462   3.573   4.812 -0.9204 -2.5624 -0.3057
   34MOL   H37613642   0.501   3.564   4.984  0.2008  0.3558 -0.9537
   34MOL   H37713643   0.330   3.572   4.933 -0.4829  0.0899 -1.2934
   34MOL   H37813644   0.305   3.666   5.128 -0.9815  0.4753 -1.5449
   34MOL   H37913645   0.300   3.800   5.345  1.3226  1.7471  1.2431
   34MOL   H38013646   0.407   4.263   5.394  0.3902 -0.1715  0.9900
   34MOL   H38113647   0.307   4.207   5.264  1.8907 -0.3862 -0.2022
   34MOL   C38213648   0.201   4.222   5.448  0.3666  0.2179 -0.5810
   34MOL   C38313649   0.089   4.122   5.419  0.1928  0.3647 -0.4893
   34MOL   C38413650   0.015   4.069   5.525 -0.8804  0.5406  0.2190
   34MOL   C38513651   7.961   3.968   5.507  0.1503  0.0152  0.7597
   34MOL   C38613652   7.944   3.906   5.382  0.6485 -0.8606  0.0757
   34MOL   O38713653   7.857   3.796   5.366  0.5009  0.2009  0.0404
   34MOL   C38813654   7.843   3.701   5.468 -0.1818 -0.9110 -0.0127
   34MOL   C38913655   8.007   3.967   5.276  0.3414 -0.0192  0.3369
   34MOL   C39013656   0.066   4.067   5.292 -0.2989 -0.3571 -0.2265
   34MOL   C39113657   0.162   4.369   5.415 -0.3987 -0.6360  0.1319
   34MOL   H39213658   0.204   4.209   5.556 -0.9248 -3.8418 -0.9606
   34MOL   H39313659   0.024   4.100   5.628  0.3128 -0.7711  0.5286
   34MOL   H39413660   7.916   3.909   5.586  0.4729  0.7580  1.5045
   34MOL   H39513661   7.815   3.604   5.428 -1.8829 -0.9744  1.2294
   34MOL   H39613662   7.760   3.742   5.527 -0.7445 -0.7186 -0.9303
   34MOL   H39713663   7.936   3.690   5.524  0.7197 -2.1348 -1.7359
   34MOL   H39813664   7.988   3.920   5.181  0.6812  0.8740 -0.1830
   34MOL   H39913665   0.120   4.096   5.203 -1.4781  1.1424 -0.4716
   34MOL   H40013666   0.251   4.431   5.418 -1.0861  0.4807 -1.6689
   34MOL   H40113667   0.090   4.412   5.485 -0.4649  1.7335 -1.3331
   34MOL   H40213668   0.117   4.382   5.316 -0.3160 -1.7182 -0.0548
   35MOL     C113669   1.427   3.023   6.811 -0.2383 -0.6969 -0.3789
   35MOL     C213670   1.479   2.962   6.677 -0.3317  0.1056 -0.0216
   35MOL     C313671   1.620   2.950   6.657 -0.1628 -0.2107  0.4194
   35MOL     C413672   1.657   2.917   6.523 -0.1425 -0.1656 -0.4613
   35MOL     C513673   1.568   2.899   6.416  0.4321  0.4835 -0.2775
   35MOL     O613674   1.601   2.869   6.285 -0.0519  0.0679  0.1472
   35MOL     C713675   1.727   2.816   6.252 -1.2068  0.9942 -1.0852
   35MOL     C813676   1.429   2.911   6.442  0.2111 -0.3877  0.5643
   35MOL     C913677   1.390   2.944   6.570 -0.4027 -0.0966 -0.5342
   35MOL    C1013678   1.434   2.939   6.935 -0.4750  0.3877  0.2915
   35MOL    H1113679   1.326   3.063   6.804 -0.5364 -1.2304  0.8871
   35MOL    H1213680   1.689   2.967   6.739 -2.9495 -1.9731  3.2433
   35MOL    H1313681   1.762   2.908   6.502 -0.0375  2.8325 -1.4692
   35MOL    H1413682   1.751   2.823   6.146  1.1330  1.8522 -0.5186
   35MOL    H1513683   1.807   2.863   6.310 -2.7294  1.2961  0.8392
   35MOL    H1613684   1.727   2.713   6.288 -0.4295  1.4127  0.1507
   35MOL    H1713685   1.362   2.903   6.357 -0.0229 -0.8674  0.7941
   35MOL    H1813686   1.285   2.961   6.583 -0.4568  2.8989 -4.1514
   35MOL    H1913687   1.535   2.897   6.934 -0.0198  1.4573  0.8447
   35MOL    H2013688   1.430   3.007   7.020  0.6718  1.0640 -0.1890
   35MOL    H2113689   1.489   3.112   6.825  0.4027 -1.3834  1.2804
   35MOL    C2213690   1.323   2.830   6.926 -0.5310  0.2023 -0.8303
   35MOL    C2313691   1.368   2.685   6.966  1.0112 -1.3508  0.3677
   35MOL    C2413692   1.368   2.630   7.098  0.2052  0.0459  0.5364
   35MOL    C2513693   1.379   2.487   7.113 -0.0778  0.0617  0.0736
   35MOL    C2613694   1.398   2.401   7.001 -0.7082  0.0720  0.1901
   35MOL    O2713695   1.428   2.269   7.007 -0.4013  0.1820 -0.1256
   35MOL    C2813696   1.498   2.229   7.118  0.2436 -0.0497 -0.2472
   35MOL    C2913697   1.406   2.465   6.873  0.1049 -0.3716  0.0157
   35MOL    C3013698   1.396   2.605   6.858 -0.3125  0.4871  0.9600
   35MOL    C3113699   1.195   2.891   7.001 -0.9367  0.2440  0.0054
   35MOL    H3213700   1.301   2.820   6.820  1.1558 -3.0499 -0.9123
   35MOL    H3313701   1.340   2.695   7.179  0.6039  2.8680 -1.4871
   35MOL    H3413702   1.374   2.445   7.213 -1.1496  0.2882  0.1231
   35MOL    H3513703   1.562   2.316   7.136 -1.5284  1.4629 -1.0802
   35MOL    H3613704   1.572   2.153   7.092 -0.5943 -1.3632  1.1918
   35MOL    H3713705   1.439   2.209   7.207 -0.7267 -1.7838 -1.2631
   35MOL    H3813706   1.443   2.407   6.789 -3.9412 -0.8312 -1.5544
   35MOL    H3913707   1.409   2.650   6.760 -0.9929 -1.7737 -0.2050
   35MOL    H4013708   1.228   2.887   7.105  2.8853 -1.5721 -1.1688
   35MOL    H4113709   1.167   2.994   6.979 -1.1937 -0.0297 -1.0067
   35MOL    C4213710   1.068   2.803   6.976  0.2996 -0.4829  0.0140
   35MOL    C4313711   1.036   2.801   6.828  0.6133  0.3424 -0.1444
   35MOL    C4413712   1.001   2.925   6.771 -0.5538 -0.3610 -0.7008
   35MOL    C4513713   0.992   2.943   6.634  0.0590 -0.0670  0.6585
   35MOL    C4613714   1.003   2.830   6.547 -0.5443 -0.6724  0.5217
   35MOL    O4713715   1.003   2.836   6.410 -0.0088 -0.3757 -0.2645
   35MOL    C4813716   1.024   2.963   6.354 -0.0174 -0.1063  0.1808
   35MOL    C4913717   1.041   2.708   6.607  0.0134 -0.0054  0.5332
   35MOL    C5013718   1.056   2.690   6.747  0.4844  0.5145  0.3315
   35MOL    C5113719   0.937   2.817   7.064  0.9983  0.5073  0.1846
   35MOL    H5213720   1.108   2.710   7.016 -0.4894 -0.5555  0.6611
   35MOL    H5313721   0.997   3.011   6.835 -0.7902 -0.3653 -0.7099
   35MOL    H5413722   0.962   3.037   6.588  2.3988  1.8259  2.8748
   35MOL    H5513723   1.049   2.946   6.249 -0.8225 -0.9099  0.1184
   35MOL    H5613724   0.929   3.012   6.374 -1.1942 -2.1158 -0.3082
   35MOL    H5713725   1.115   3.010   6.391  0.5804  1.8018 -3.5249
   35MOL    H5813726   1.055   2.625   6.539  1.4653  0.1924  0.5778
   35MOL    H5913727   1.088   2.595   6.787 -0.7324  0.1648  0.4868
   35MOL    H6013728   0.873   2.730   7.046  1.4480  0.3015 -0.4274
   35MOL    H6113729   0.881   2.902   7.022 -1.1309 -1.0669 -0.2734
   35MOL    C6213730   0.965   2.831   7.217  0.1723  0.1116 -0.4782
   35MOL    C6313731   0.877   2.753   7.314 -0.0080  0.0700 -0.3687
   35MOL    C6413732   0.931   2.688   7.428  0.2308 -0.2852 -0.3290
   35MOL    C6513733   0.850   2.632   7.526  0.5027 -1.0868  0.3465
   35MOL    C6613734   0.709   2.640   7.509  0.2438 -0.0606  0.1314
   35MOL    O6713735   0.617   2.591   7.603 -0.0794  0.4801 -0.0375
   35MOL    C6813736   0.670   2.534   7.722 -0.0831 -0.1838 -0.1051
   35MOL    C6913737   0.656   2.687   7.386 -0.4814  0.1147 -0.7389
   35MOL    C7013738   0.742   2.741   7.290  0.2178  0.5081 -0.2177
   35MOL    C7113739   0.977   2.979   7.249  1.0347  0.0407 -0.1504
   35MOL    H7213740   1.057   2.772   7.218  0.6824  0.7993 -3.4068
   35MOL    H7313741   1.038   2.693   7.443 -0.0300  1.1968  1.3877
   35MOL    H7413742   0.897   2.587   7.613  0.4129  1.1873  1.6191
   35MOL    H7513743   0.726   2.448   7.686  2.7433  0.0578  3.4500
   35MOL    H7613744   0.605   2.485   7.794  2.2745 -1.7797  1.0011
   35MOL    H7713745   0.724   2.611   7.776  0.4394  1.6682 -3.1335
   35MOL    H7813746   0.553   2.672   7.358 -0.4840 -1.2225 -0.0670
   35MOL    H7913747   0.708   2.781   7.196  1.2712  0.0512 -0.7957
   35MOL    H8013748   1.037   3.023   7.169 -1.3186  0.1184 -1.9143
   35MOL    H8113749   0.875   3.016   7.250  1.5220  1.4113  1.3095
   35MOL    C8213750   1.042   3.008   7.388  0.5381  0.5335 -0.0038
   35MOL    C8313751   1.196   2.979   7.394 -0.5271  0.0867  0.0286
   35MOL    C8413752   1.246   2.892   7.491  0.2010  0.5318 -0.0566
   35MOL    C8513753   1.388   2.874   7.494 -0.0945  0.4405  0.0903
   35MOL    C8613754   1.470   2.947   7.411  0.6760 -0.4334 -0.7024
   35MOL    O8713755   1.605   2.924   7.434  0.8061  0.5127 -0.1217
   35MOL    C8813756   1.697   3.016   7.377 -0.9737  0.4512  0.3348
   35MOL    C8913757   1.414   3.020   7.299  0.4072 -0.2994  0.4104
   35MOL    C9013758   1.278   3.043   7.302  0.0309 -0.0977  0.6601
   35MOL    C9113759   1.006   3.155   7.420  0.0448  0.3176 -0.3285
   35MOL    H9213760   0.986   2.944   7.456  0.4806  0.0531 -0.4984
   35MOL    H9313761   1.189   2.838   7.564 -0.8555  0.4706 -0.9140
   35MOL    H9413762   1.445   2.820   7.568  0.2030 -1.3481 -1.4126
   35MOL    H9513763   1.687   3.027   7.269  2.8442 -3.6558 -0.5935
   35MOL    H9613764   1.796   2.984   7.410 -1.0076 -1.1471 -1.0318
   35MOL    H9713765   1.686   3.111   7.428 -1.4205  0.8912 -0.5670
   35MOL    H9813766   1.475   3.076   7.230 -1.8154  0.8053 -0.6705
   35MOL    H9913767   1.231   3.113   7.234  0.2963 -0.5463  0.0153
   35MOL   H10013768   1.030   3.227   7.342 -1.3920  1.3188  0.1285
   35MOL   H10113769   0.899   3.168   7.434 -0.2197 -1.4247 -0.7069
   35MOL   C10213770   1.074   3.210   7.552 -0.0535  0.1965  0.0246
   35MOL   C10313771   1.086   3.359   7.531  0.0791  0.1877  0.3939
   35MOL   C10413772   1.207   3.425   7.520 -0.1711 -0.3663  0.4207
   35MOL   C10513773   1.226   3.564   7.504 -0.2771  0.5946 -0.4219
   35MOL   C10613774   1.112   3.645   7.486 -0.3369 -0.2897 -1.1308
   35MOL   O10713775   1.126   3.776   7.455 -0.0237 -0.3711  0.0634
   35MOL   C10813776   1.015   3.861   7.430 -0.0838 -0.2883  0.6610
   35MOL   C10913777   0.983   3.579   7.486 -0.5867  0.3621  1.0618
   35MOL   C11013778   0.971   3.438   7.515 -0.8774  0.1210  0.0204
   35MOL   C11113779   0.999   3.182   7.683 -0.6104 -0.5884 -0.4704
   35MOL   H11213780   1.172   3.162   7.558 -0.5310 -0.9023 -0.9614
   35MOL   H11313781   1.293   3.361   7.537  0.6539  0.7362  0.4801
   35MOL   H11413782   1.325   3.605   7.518  0.2452 -0.0131 -2.0994
   35MOL   H11513783   1.045   3.964   7.409 -2.5460 -0.1166 -2.3514
   35MOL   H11613784   0.969   3.846   7.332 -0.7807 -0.1069  0.9541
   35MOL   H11713785   0.937   3.870   7.506 -0.0481  0.4541  0.6141
   35MOL   H11813786   0.896   3.640   7.464  0.0791  1.2535  0.8995
   35MOL   H11913787   0.879   3.383   7.521  0.1885 -2.0356 -2.5402
   35MOL   H12013788   0.897   3.221   7.675  0.2519  1.6685 -0.7829
   35MOL   H12113789   1.002   3.073   7.676 -0.3602 -0.6520  0.6207
   35MOL   C12213790   1.082   3.211   7.811 -0.0060 -0.5256  0.1349
   35MOL   C12313791   1.210   3.128   7.829 -0.5266 -0.0499  0.0102
   35MOL   C12413792   1.192   2.990   7.857 -0.0575 -0.3516 -0.3460
   35MOL   C12513793   1.306   2.905   7.888  0.7232 -0.0178  0.3974
   35MOL   C12613794   1.437   2.955   7.870  0.2030 -0.5453  0.0727
   35MOL   O12713795   1.545   2.870   7.884  0.3814 -0.7396 -0.0176
   35MOL   C12813796   1.665   2.901   7.809  0.4282 -0.5302  0.5523
   35MOL   C12913797   1.453   3.091   7.829  0.6795  0.5489  0.0895
   35MOL   C13013798   1.338   3.175   7.816 -0.6820  0.2052  0.8180
   35MOL   C13113799   0.983   3.214   7.939 -0.4671 -0.0385  0.2800
   35MOL   H13213800   1.117   3.312   7.791  0.2530 -0.6009  0.2074
   35MOL   H13313801   1.096   2.941   7.858 -0.7175  0.9390  0.3790
   35MOL   H13413802   1.295   2.799   7.906  1.6672  0.0101  1.2032
   35MOL   H13513803   1.707   2.990   7.856 -0.4162  0.0483  0.2106
   35MOL   H13613804   1.737   2.819   7.806 -0.1528 -1.0140 -2.3779
   35MOL   H13713805   1.627   2.913   7.707 -1.6865 -1.2057  1.2591
   35MOL   H13813806   1.544   3.142   7.803 -0.8168  3.1067 -0.2431
   35MOL   H13913807   1.362   3.278   7.791  0.1928 -0.0716  0.4903
   35MOL   H14013808   0.961   3.116   7.980  1.1462  0.3367  2.1267
   35MOL   H14113809   0.891   3.268   7.917 -0.2586 -0.1464 -0.9243
   35MOL   C14213810   1.056   3.303   0.008  0.2056  0.7036  0.0154
   35MOL   C14313811   0.966   3.416   0.049  0.0091  0.6689 -0.3035
   35MOL   C14413812   0.841   3.384   0.108 -0.4445 -0.1211  0.1121
   35MOL   C14513813   0.750   3.480   0.142  0.4249  0.0270  0.3228
   35MOL   C14613814   0.790   3.617   0.126  0.3603  0.4972  0.0861
   35MOL   O14713815   0.709   3.726   0.146  0.4271  0.0086 -0.2812
   35MOL   C14813816   0.576   3.713   0.190 -0.2177 -0.3736  0.7245
   35MOL   C14913817   0.916   3.648   0.070  0.7472 -0.5228 -0.3578
   35MOL   C15013818   1.005   3.545   0.034 -0.6723 -0.1364 -0.5581
   35MOL   C15113819   1.105   3.222   0.130 -0.3827 -0.0865  1.3749
   35MOL   H15213820   1.143   3.339   7.993  1.3022 -2.7033 -0.5863
   35MOL   H15313821   0.812   3.282   0.125  3.1101 -1.3016 -0.5878
   35MOL   H15413822   0.656   3.457   0.190  0.3212 -0.8622 -0.2845
   35MOL   H15513823   0.545   3.809   0.231 -0.0085 -0.9975  2.3854
   35MOL   H15613824   0.507   3.680   0.113 -0.4281 -2.5377  1.8057
   35MOL   H15713825   0.565   3.638   0.269  2.2279 -0.3491  1.1156
   35MOL   H15813826   0.949   3.749   0.051  0.6175 -0.6127 -1.0655
   35MOL   H15913827   1.100   3.563   8.025 -1.3074  1.6694 -1.1765
   35MOL   H16013828   1.139   3.124   0.096 -1.1690 -0.9464  3.0129
   35MOL   H16113829   1.019   3.198   0.192 -1.5003 -2.6722 -1.0562
   35MOL   C16213830   1.214   3.312   0.194  0.6009  0.3258 -0.0790
   35MOL   C16313831   1.344   3.334   0.117 -0.2249 -0.4927 -0.6253
   35MOL   C16413832   1.366   3.463   0.062 -1.1668  0.5488  0.8848
   35MOL   C16513833   1.486   3.491   8.029  0.0153 -0.4349  0.4292
   35MOL   C16613834   1.586   3.392   8.019  0.2659  0.3236 -0.1350
   35MOL   O16713835   1.707   3.406   7.953  0.1264 -0.1854  0.4346
   35MOL   C16813836   1.739   3.542   7.909 -0.2400 -0.5446 -0.4259
   35MOL   C16913837   1.563   3.262   0.031  0.4479 -0.1029 -0.3366
   35MOL   C17013838   1.441   3.236   0.098  0.6703 -0.2242  0.4867
   35MOL   C17113839   1.242   3.254   0.336  0.1493  0.0256  0.2372
   35MOL   H17213840   1.176   3.411   0.216  0.4341 -0.6192  4.3757
   35MOL   H17313841   1.291   3.540   0.063 -1.1380  0.5863  0.1441
   35MOL   H17413842   1.489   3.586   7.978  1.3756 -0.7859 -0.1693
   35MOL   H17513843   1.685   3.558   7.815  1.5063  2.7683 -0.9271
   35MOL   H17613844   1.845   3.553   7.887 -0.7587  0.4848 -2.5433
   35MOL   H17713845   1.712   3.629   7.969 -1.4045 -1.5093  0.4730
   35MOL   H17813846   1.634   3.181   0.027  0.7762 -0.0329  2.6700
   35MOL   H17913847   1.424   3.137   0.138 -0.3130  0.4671  1.8310
   35MOL   H18013848   1.334   3.293   0.379 -0.2983  0.2461  1.0000
   35MOL   H18113849   1.267   3.150   0.314  2.1855 -0.0621  2.8292
   35MOL   C18213850   1.125   3.279   0.431  0.0262  0.2089  0.1562
   35MOL   C18313851   1.136   3.415   0.493 -0.4593 -0.1038 -0.1085
   35MOL   C18413852   1.243   3.442   0.581  0.5774 -0.5078 -0.4208
   35MOL   C18513853   1.251   3.563   0.654  0.1349  0.3770  0.3437
   35MOL   C18613854   1.149   3.657   0.648  0.7150  0.0480 -0.6024
   35MOL   O18713855   1.152   3.764   0.740  0.1060 -0.3185 -0.5497
   35MOL   C18813856   1.064   3.869   0.719  0.1944  0.3366  0.2889
   35MOL   C18913857   1.049   3.635   0.552 -0.3113  0.2523 -0.4180
   35MOL   C19013858   1.040   3.514   0.473  0.3644 -0.3242 -0.2337
   35MOL   C19113859   1.116   3.167   0.542  0.5898 -0.0138 -0.3876
   35MOL   H19213860   1.034   3.280   0.371  0.9483 -1.1915 -1.3473
   35MOL   H19313861   1.318   3.367   0.603  0.7397 -0.0484  0.6385
   35MOL   H19413862   1.323   3.558   0.734  0.9960 -0.4921 -0.4785
   35MOL   H19513863   1.063   3.918   0.623 -1.7125 -1.3350 -0.5859
   35MOL   H19613864   1.078   3.934   0.806 -4.1387  0.9211  0.6682
   35MOL   H19713865   0.970   3.815   0.728 -0.4139  0.8612 -2.7604
   35MOL   H19813866   0.967   3.706   0.543 -1.3874 -0.7241  1.4525
   35MOL   H19913867   0.960   3.506   0.401 -0.1581 -0.9561  0.4087
   35MOL   H20013868   1.112   3.070   0.494  2.2875 -0.6320  0.6858
   35MOL   H20113869   1.209   3.171   0.599 -0.2219 -0.1385  0.9543
   35MOL   C20213870   0.993   3.184   0.643  0.2125 -0.1227  0.1767
   35MOL   C20313871   1.011   3.090   0.761  0.2767 -0.1489  0.2117
   35MOL   C20413872   1.041   2.953   0.744  0.0036 -0.2082  0.1510
   35MOL   C20513873   1.063   2.876   0.855  0.1196  0.2389  0.2841
   35MOL   C20613874   1.075   2.930   0.986 -0.3107  0.0833 -0.5762
   35MOL   O20713875   1.093   2.839   1.089  0.4191 -0.1864  0.1906
   35MOL   C20813876   1.071   2.883   1.223  0.0132  0.1904  0.2881
   35MOL   C20913877   1.043   3.067   1.008 -0.0314  0.3289  0.4689
   35MOL   C21013878   1.015   3.145   0.893 -0.6664 -0.4860  0.3487
   35MOL   C21113879   0.864   3.169   0.570 -0.0662 -0.5676 -0.2233
   35MOL   H21213880   1.000   3.287   0.677 -3.0494 -0.2522  1.4589
   35MOL   H21313881   1.056   2.910   0.646 -0.7565 -0.7843  0.2784
   35MOL   H21413882   1.093   2.775   0.830  0.9637  0.1792  1.5349
   35MOL   H21513883   1.121   2.978   1.245  1.7756 -0.5162 -0.5363
   35MOL   H21613884   0.964   2.905   1.221 -0.2096 -0.9723 -1.1527
   35MOL   H21713885   1.086   2.805   1.297 -0.3650 -1.1610 -1.0582
   35MOL   H21813886   1.050   3.105   1.109 -0.5435 -2.5740  1.6361
   35MOL   H21913887   0.999   3.252   0.905 -1.7556 -0.6563  0.5117
   35MOL   H22013888   0.847   3.066   0.540 -0.7451 -1.0543  1.7875
   35MOL   H22113889   0.865   3.217   0.472  1.6842 -1.5659 -0.7179
   35MOL   C22213890   0.735   3.218   0.654 -0.2367 -0.9514  0.6874
   35MOL   C22313891   0.737   3.368   0.679 -0.0075 -0.1327 -0.5678
   35MOL   C22413892   0.692   3.458   0.587 -0.0080 -0.2738 -0.1155
   35MOL   C22513893   0.688   3.596   0.614 -1.0115 -0.7855  0.5652
   35MOL   C22613894   0.730   3.640   0.740  0.1541 -0.1284 -0.0261
   35MOL   O22713895   0.730   3.776   0.762  0.3818 -0.0879 -1.1486
   35MOL   C22813896   0.766   3.827   0.896 -0.2400 -0.6489  0.5660
   35MOL   C22913897   0.763   3.551   0.840 -0.5278 -0.2933 -0.1541
   35MOL   C23013898   0.772   3.413   0.807 -0.4167 -0.3538  0.1974
   35MOL   C23113899   0.598   3.181   0.584  0.0130 -0.3557 -0.8654
   35MOL   H23213900   0.728   3.168   0.750 -1.1551  1.0833  1.6962
   35MOL   H23313901   0.645   3.427   0.495  0.4844 -0.7682 -0.2011
   35MOL   H23413902   0.660   3.663   0.534 -2.0150 -1.1741  0.5913
   35MOL   H23513903   0.745   3.933   0.883  1.7923 -0.3237 -0.2484
   35MOL   H23613904   0.701   3.786   0.974  0.1589 -1.4834  0.4620
   35MOL   H23713905   0.869   3.819   0.932 -0.5768 -0.3686  1.6365
   35MOL   H23813906   0.791   3.582   0.939 -2.8739 -2.9591  1.4110
   35MOL   H23913907   0.803   3.347   0.887 -0.1105  0.6904  0.9670
   35MOL   H24013908   0.519   3.224   0.646  0.4776  0.8866 -1.1392
   35MOL   H24113909   0.602   3.227   0.486 -0.3538  2.0881  0.2419
   35MOL   C24213910   0.554   3.032   0.585 -0.3772 -0.4547 -0.3901
   35MOL   C24313911   0.585   2.969   0.722  0.4580 -0.3412  0.0176
   35MOL   C24413912   0.509   3.006   0.838  0.5503  0.3427  0.0084
   35MOL   C24513913   0.533   2.942   0.959 -0.2147 -0.0926  0.7107
   35MOL   C24613914   0.640   2.850   0.968  0.1714 -0.2862 -0.3243
   35MOL   O24713915   0.671   2.779   1.083 -0.1485 -0.6808 -0.0805
   35MOL   C24813916   0.632   2.837   1.207 -0.6893  0.8446  0.1323
   35MOL   C24913917   0.724   2.833   0.857  0.2910  0.4431  0.0225
   35MOL   C25013918   0.699   2.891   0.738 -0.3601 -0.3033 -0.3471
   35MOL   C25113919   0.413   2.991   0.539 -0.0605  0.0078 -0.0957
   35MOL   H25213920   0.621   2.983   0.514 -0.4086  1.2449 -1.6256
   35MOL   H25313921   0.433   3.082   0.835  1.3058  1.0790 -0.5876
   35MOL   H25413922   0.486   2.970   1.052  1.2159 -0.7979  1.6744
   35MOL   H25513923   0.538   2.788   1.233 -0.1459 -0.5846 -0.5101
   35MOL   H25613924   0.699   2.802   1.286  0.2635  0.4162 -0.8484
   35MOL   H25713925   0.623   2.944   1.221  0.1527  0.7407  1.5227
   35MOL   H25813926   0.812   2.772   0.866  0.6763  0.7701 -1.3399
   35MOL   H25913927   0.768   2.867   0.659 -0.6270  0.5797 -0.8526
   35MOL   H26013928   0.335   3.019   0.610  0.8710  2.0567  0.1418
   35MOL   H26113929   0.415   2.882   0.539  3.1027  0.0191 -0.9710
   35MOL   C26213930   0.365   3.038   0.399 -0.1980 -0.4250  0.5472
   35MOL   C26313931   0.443   2.996   0.277 -0.3014  0.0194  0.0308
   35MOL   C26413932   0.473   2.860   0.264  0.1897 -0.1171 -0.0637
   35MOL   C26513933   0.573   2.814   0.181 -0.0123 -0.0487  0.8745
   35MOL   C26613934   0.623   2.900   0.080 -0.1482  0.6327 -0.5253
   35MOL   O26713935   0.709   2.848   8.026  0.1069  0.5356  0.6967
   35MOL   C26813936   0.712   2.899   7.891 -0.1136  0.8385  0.2923
   35MOL   C26913937   0.583   3.034   0.083 -0.1162  0.6483  0.0406
   35MOL   C27013938   0.495   3.081   0.180 -0.4157 -0.4311 -0.1333
   35MOL   C27113939   0.321   3.186   0.393  0.5855  0.2367  0.3085
   35MOL   H27213940   0.268   2.991   0.386  0.0812 -0.3628 -1.9992
   35MOL   H27313941   0.434   2.792   0.338 -1.1608 -0.9223 -1.4898
   35MOL   H27413942   0.598   2.709   0.178  0.1588  0.0163 -3.3769
   35MOL   H27513943   0.753   2.999   7.877  0.5800  0.3034 -1.7854
   35MOL   H27613944   0.614   2.911   7.846 -0.1929  1.5740  0.6560
   35MOL   H27713945   0.768   2.838   7.820  1.1252 -0.7614  2.5895
   35MOL   H27813946   0.630   3.103   0.014 -0.8810  2.3583  1.2026
   35MOL   H27913947   0.467   3.185   0.178  0.6350 -0.1284  0.6436
   35MOL   H28013948   0.414   3.244   0.392 -0.0183  1.2053 -0.1688
   35MOL   H28113949   0.283   3.206   0.293  0.5311  0.0855  0.2988
   35MOL   C28213950   0.221   3.240   0.500  0.0770  1.4837 -0.1269
   35MOL   C28313951   0.099   3.151   0.511  0.9944 -0.1388 -0.3354
   35MOL   C28413952   0.020   3.126   0.396 -0.0740  1.1248  0.2401
   35MOL   C28513953   7.930   3.076   0.406  0.1844  0.3015 -0.1384
   35MOL   C28613954   7.886   3.021   0.527  0.0257 -0.1581 -0.4083
   35MOL   O28713955   7.762   2.964   0.522 -0.0877  0.1102 -0.4142
   35MOL   C28813956   7.710   2.924   0.650  0.3712  0.4554  0.1461
   35MOL   C28913957   7.982   3.020   0.637  0.5770  0.1863  0.7238
   35MOL   C29013958   0.059   3.095   0.631 -1.0247 -0.3065  0.7555
   35MOL   C29113959   0.184   3.387   0.473 -0.1953  0.9341 -0.4139
   35MOL   H29213960   0.273   3.227   0.595 -2.5804 -2.7379  0.8916
   35MOL   H29313961   0.043   3.177   0.304 -0.5703 -1.6483 -1.4873
   35MOL   H29413962   7.866   3.074   0.319  0.1271  1.6022 -0.1408
   35MOL   H29513963   7.615   2.874   0.634  0.0467  0.9657  0.4768
   35MOL   H29613964   7.770   2.855   0.710  1.1542 -0.4507 -1.6058
   35MOL   H29713965   7.679   3.015   0.701 -0.6070 -1.2007  2.6008
   35MOL   H29813966   7.956   2.976   0.732  0.8594 -0.0889  0.6761
   35MOL   H29913967   0.122   3.105   0.718  1.7977 -0.7138 -1.1753
   35MOL   H30013968   0.266   3.419   0.409  0.8627  1.5938  1.2430
   35MOL   H30113969   0.098   3.402   0.407 -0.7509  1.2356  0.3716
   35MOL   C30213970   0.196   3.476   0.596  0.2013 -0.1467 -0.0883
   35MOL   C30313971   0.220   3.621   0.552  0.7197 -0.3517 -0.4578
   35MOL   C30413972   0.114   3.686   0.477  0.8152  0.1561  0.3493
   35MOL   C30513973   0.124   3.821   0.445  0.5730 -0.1887  0.4185
   35MOL   C30613974   0.235   3.893   0.494  0.0610  0.2340 -0.6609
   35MOL   O30713975   0.222   4.032   0.471  0.1464  0.0725 -0.3834
   35MOL   C30813976   0.324   4.107   0.526  0.2192  0.8794  0.8021
   35MOL   C30913977   0.345   3.828   0.561  0.4899  0.5595 -0.1818
   35MOL   C31013978   0.331   3.690   0.595 -0.0153  0.0856  1.1476
   35MOL   C31113979   0.073   3.457   0.694 -0.6188 -0.2033  0.4237
   35MOL   H31213980   0.282   3.447   0.657  0.2621 -0.0587 -0.1325
   35MOL   H31313981   0.026   3.627   0.454  1.1025  0.9180 -2.8277
   35MOL   H31413982   0.044   3.873   0.393 -1.4507 -2.1927  1.4244
   35MOL   H31513983   0.310   4.214   0.508 -1.1909  0.9670  2.3191
   35MOL   H31613984   0.411   4.087   0.463  1.1381  2.5734  1.4742
   35MOL   H31713985   0.339   4.080   0.630 -0.2491 -3.4385 -0.1675
   35MOL   H31813986   0.426   3.879   0.611  0.5480  1.2879 -0.9948
   35MOL   H31913987   0.413   3.653   0.654 -0.5843  0.3457  2.1057
   35MOL   H32013988   0.055   3.351   0.705  2.0026 -0.9016 -1.4082
   35MOL   H32113989   8.025   3.496   0.643  0.4876  2.7834  0.6850
   35MOL   C32213990   0.091   3.514   0.840  0.6311  0.1052  0.9505
   35MOL   C32313991   0.206   3.437   0.908  0.1945 -0.0485 -0.5939
   35MOL   C32413992   0.323   3.503   0.937 -0.3099  0.3041 -0.3222
   35MOL   C32513993   0.420   3.436   1.008  0.1966  0.2772  0.1473
   35MOL   C32613994   0.412   3.306   1.056 -0.3518 -0.1777 -0.0572
   35MOL   O32713995   0.512   3.240   1.119  0.4833 -0.1948  0.7773
   35MOL   C32813996   0.628   3.308   1.161  0.4723  0.2368  0.3205
   35MOL   C32913997   0.292   3.236   1.029 -0.8150  0.3885 -0.0895
   35MOL   C33013998   0.190   3.300   0.950  0.3676  0.2672 -0.2982
   35MOL   C33113999   7.999   3.494   0.915  0.5368  0.7639  0.0278
   35MOL   H33214000   0.111   3.620   0.847  0.7424  0.1231  0.4166
   35MOL   H33314001   0.349   3.602   0.901  0.3284  0.4682  0.5754
   35MOL   H33414002   0.514   3.487   1.025  1.3573 -1.5375 -0.6130
   35MOL   H33514003   0.697   3.252   1.225  1.7512  1.2080 -0.1823
   35MOL   H33614004   0.604   3.395   1.222 -1.7205 -0.7397  0.9075
   35MOL   H33714005   0.693   3.349   1.084 -0.5524  0.0168 -0.6615
   35MOL   H33814006   0.272   3.138   1.068 -0.8110  0.1148 -0.7601
   35MOL   H33914007   0.101   3.247   0.921 -0.1331  1.6672 -1.3727
   35MOL   H34014008   7.956   3.395   0.906 -0.5057  1.1652  0.5104
   35MOL   H34114009   8.026   3.514   1.018  2.4818 -0.5991 -0.2024
   35MOL   C34214010   7.885   3.596   0.864  0.0511 -0.5298  0.4294
   35MOL   C34314011   7.928   3.742   0.855 -0.1738 -0.4627 -0.9167
   35MOL   C34414012   7.948   3.812   0.970 -0.1202  0.4199  0.5988
   35MOL   C34514013   7.999   3.947   0.969  0.7189 -0.2954  0.3553
   35MOL   C34614014   8.019   4.013   0.844  0.3103 -0.2792  0.1756
   35MOL   O34714015   0.037   4.134   0.829  0.3417 -0.4654 -0.2230
   35MOL   C34814016   0.073   4.211   0.943 -0.0573  0.1110 -0.1726
   35MOL   C34914017   7.986   3.946   0.726  0.1997 -0.3396 -0.3247
   35MOL   C35014018   7.943   3.811   0.734 -0.0766 -0.3793  0.6871
   35MOL   C35114019   7.756   3.581   0.947 -0.6745  0.0278 -0.1504
   35MOL   H35214020   7.870   3.565   0.761 -2.7519 -0.5913  0.8168
   35MOL   H35314021   7.935   3.763   1.065 -0.6562  1.6797  1.1839
   35MOL   H35414022   8.012   3.987   1.068  0.9408 -0.6014  0.4485
   35MOL   H35514023   0.147   4.150   0.996 -0.2299  0.7625  0.8293
   35MOL   H35614024   0.132   4.298   0.917  0.7943 -0.2103  0.6532
   35MOL   H35714025   8.029   4.209   1.013  0.9390  1.1440  1.0640
   35MOL   H35814026   8.009   3.986   0.628 -0.6276  0.7764 -0.0801
   35MOL   H35914027   7.939   3.757   0.641  2.8434 -0.7624  0.7279
   35MOL   H36014028   7.770   3.591   1.055 -1.7422 -1.0192  0.0848
   35MOL   H36114029   7.687   3.664   0.933 -2.5534 -1.4492  0.2312
   35MOL   C36214030   7.682   3.449   0.909  0.8944  0.9276 -0.0792
   35MOL   C36314031   7.635   3.448   0.761  0.4562  0.1330 -0.1709
   35MOL   C36414032   7.696   3.358   0.671 -0.4765  0.4972 -0.2811
   35MOL   C36514033   7.661   3.345   0.536  0.2556 -0.1416  0.0393
   35MOL   C36614034   7.560   3.434   0.484  0.1819  0.2509  0.1480
   35MOL   O36714035   7.521   3.434   0.353 -0.3773  0.4655  0.2059
   35MOL   C36814036   7.563   3.333   0.266 -0.3152  0.0281  0.1921
   35MOL   C36914037   7.504   3.532   0.570  1.0505  0.9601  0.0924
   35MOL   C37014038   7.537   3.539   0.711  0.1564 -0.2259  0.5965
   35MOL   C37114039   7.564   3.422   1.006 -0.1788 -0.1904 -0.3336
   35MOL   H37214040   7.746   3.363   0.927 -1.0977 -0.2685  1.3979
   35MOL   H37314041   7.770   3.286   0.704  0.4213  0.9576 -1.2435
   35MOL   H37414042   7.713   3.275   0.472  0.7554 -0.2270  0.5305
   35MOL   H37514043   7.548   3.234   0.308 -0.8033  0.3015  0.6723
   35MOL   H37614044   7.499   3.337   0.178 -0.9181  0.5611  0.6495
   35MOL   H37714045   7.671   3.342   0.256 -0.0506 -1.5454  1.3889
   35MOL   H37814046   7.424   3.591   0.530 -0.3509  0.6339  2.3029
   35MOL   H37914047   7.496   3.621   0.768  1.5248 -0.0640  1.3490
   35MOL   H38014048   7.608   3.415   1.105 -0.1006 -0.3217 -0.3791
   35MOL   H38114049   7.498   3.510   1.001 -1.9909 -1.5583 -1.1918
   35MOL   C38214050   7.466   3.303   0.992  0.3600 -0.0326  0.0435
   35MOL   C38314051   7.358   3.308   1.101 -0.0586  0.3500 -0.7135
   35MOL   C38414052   7.229   3.360   1.073 -0.2258 -0.1191  0.6810
   35MOL   C38514053   7.128   3.347   1.173  0.0247  0.0375  0.6345
   35MOL   C38614054   7.160   3.294   1.301  0.9122 -0.3229  0.1054
   35MOL   O38714055   7.075   3.271   1.401  0.3854  0.5597  0.5817
   35MOL   C38814056   6.998   3.385   1.430  0.4006  0.0518  0.0417
   35MOL   C38914057   7.286   3.248   1.324 -0.4804 -0.1901 -1.0351
   35MOL   C39014058   7.387   3.250   1.227 -0.1066 -0.7012 -0.6332
   35MOL   C39114059   7.526   3.161   0.971  0.5143 -0.7895  0.2007
   35MOL   H39214060   7.403   3.313   0.904  0.9326 -1.1225 -0.4958
   35MOL   H39314061   7.205   3.408   0.980  2.1690 -1.6830 -0.7840
   35MOL   H39414062   7.025   3.372   1.157  0.0621 -0.0331  0.2940
   35MOL   H39514063   7.051   3.474   1.397  0.1698 -0.4340 -1.6581
   35MOL   H39614064   6.986   3.406   1.537  0.7420 -0.4105  0.1692
   35MOL   H39714065   6.895   3.385   1.394 -0.0668  0.7847  1.3244
   35MOL   H39814066   7.305   3.208   1.423  0.1168  0.8153 -0.7414
   35MOL   H39914067   7.487   3.212   1.245  0.3266  0.1076 -1.3053
   35MOL   H40014068   7.552   3.100   1.057 -1.1754 -2.2882 -0.3089
   35MOL   H40114069   7.621   3.158   0.917  0.3749  0.9094 -0.1762
   35MOL   H40214070   7.454   3.100   0.917  0.5506 -0.6285 -0.0325
   36MOL     C114071   5.460   4.358   2.586 -0.4029  0.0384  0.9775
   36MOL     C214072   5.481   4.437   2.459 -0.3236 -0.3726  0.2463
   36MOL     C314073   5.608   4.438   2.405  0.7942  0.4901 -0.3912
   36MOL     C414074   5.635   4.519   2.291  0.7970 -0.6843 -0.0669
   36MOL     C514075   5.543   4.597   2.228  0.2453 -0.0518 -0.1252
   36MOL     O614076   5.570   4.679   2.117  0.5641  0.4177 -0.3598
   36MOL     C714077   5.701   4.707   2.078 -0.9170 -0.0189 -0.2850
   36MOL     C814078   5.408   4.593   2.276 -0.2267 -0.4188  0.2480
   36MOL     C914079   5.383   4.518   2.393 -0.1069  0.6902  0.3533
   36MOL    C1014080   5.324   4.285   2.580 -0.0350 -0.5738  0.4887
   36MOL    H1114081   5.461   4.429   2.669  1.7838  1.3950 -0.1954
   36MOL    H1214082   5.690   4.386   2.453 -0.0399  0.0875  0.6229
   36MOL    H1314083   5.734   4.528   2.248  0.1124  2.1743 -1.1605
   36MOL    H1414084   5.763   4.619   2.058 -0.4723  0.0154  0.9283
   36MOL    H1514085   5.702   4.753   1.979 -1.8771  0.0155 -0.2837
   36MOL    H1614086   5.752   4.772   2.149  0.0940 -1.2537  0.1415
   36MOL    H1714087   5.331   4.649   2.225  0.4326 -0.6463 -1.0188
   36MOL    H1814088   5.289   4.525   2.445  0.0469 -0.1925  0.7648
   36MOL    H1914089   5.236   4.342   2.552  0.8595  1.4558  1.7229
   36MOL    H2014090   5.326   4.206   2.505  0.8519  0.5655 -0.7135
   36MOL    H2114091   5.544   4.293   2.608 -0.4026 -1.2240 -2.5411
   36MOL    C2214092   5.294   4.216   2.718  0.3309 -0.5081 -0.1746
   36MOL    C2314093   5.285   4.319   2.833  0.0797 -0.7581  0.2343
   36MOL    C2414094   5.203   4.437   2.819  0.3963 -0.2102 -0.4439
   36MOL    C2514095   5.192   4.526   2.932 -0.8817  0.1088 -0.2044
   36MOL    C2614096   5.280   4.514   3.046 -0.1811  0.3328  0.3236
   36MOL    O2714097   5.289   4.603   3.150 -0.0871 -0.2755  0.0660
   36MOL    C2814098   5.254   4.736   3.114 -0.6109  0.4701 -0.8918
   36MOL    C2914099   5.352   4.394   3.057 -0.2694  0.0948 -0.1425
   36MOL    C3014100   5.358   4.306   2.951  0.0714 -0.4308 -0.4170
   36MOL    C3114101   5.178   4.118   2.726  0.3906  0.1425 -0.0523
   36MOL    H3214102   5.384   4.157   2.735  1.4382  1.0406 -0.4786
   36MOL    H3314103   5.157   4.458   2.724 -1.4372 -1.5723  0.1146
   36MOL    H3414104   5.114   4.600   2.921 -0.0320  0.9191 -0.8666
   36MOL    H3514105   5.325   4.807   3.157 -1.6858  0.6149  0.6967
   36MOL    H3614106   5.153   4.758   3.150 -0.2394  0.5425  0.1268
   36MOL    H3714107   5.267   4.754   3.008  0.1172 -0.6145 -0.9940
   36MOL    H3814108   5.422   4.385   3.139  1.8285 -1.3107 -2.0395
   36MOL    H3914109   5.421   4.219   2.956  1.3670  0.5733  1.1530
   36MOL    H4014110   5.134   4.129   2.825  1.3857  1.8058  0.2195
   36MOL    H4114111   5.100   4.151   2.657 -1.3886 -1.4809  1.1538
   36MOL    C4214112   5.217   3.966   2.715 -0.6982  0.4417  0.4741
   36MOL    C4314113   5.276   3.932   2.574  0.8275  0.4948 -0.3766
   36MOL    C4414114   5.406   3.874   2.567  0.1448 -0.5883  0.4569
   36MOL    C4514115   5.447   3.824   2.451  0.0651  0.0163 -0.2151
   36MOL    C4614116   5.376   3.824   2.331 -0.7756  0.1665  0.2204
   36MOL    O4714117   5.437   3.773   2.213  0.1538 -0.0404  0.3563
   36MOL    C4814118   5.380   3.823   2.087 -0.1615  0.4062  0.2449
   36MOL    C4914119   5.246   3.884   2.338 -0.0650 -0.5767  0.0139
   36MOL    C5014120   5.196   3.946   2.453 -0.0499  0.5553  0.5741
   36MOL    C5114121   5.096   3.880   2.749 -0.3474 -0.8251  0.0905
   36MOL    H5214122   5.296   3.939   2.785  1.2175  1.8526 -1.0865
   36MOL    H5314123   5.473   3.855   2.650  1.7175 -0.8201 -0.8503
   36MOL    H5414124   5.540   3.770   2.441  0.3317  0.7514 -1.8920
   36MOL    H5514125   5.430   3.782   2.000  0.9297  0.3546  0.8826
   36MOL    H5614126   5.279   3.785   2.071  0.9460 -2.4491 -0.1714
   36MOL    H5714127   5.383   3.932   2.077 -2.1805  0.4499 -0.0603
   36MOL    H5814128   5.182   3.888   2.251  0.2443 -1.0120 -0.2373
   36MOL    H5914129   5.106   4.005   2.449 -1.0125 -0.8771  0.8863
   36MOL    H6014130   5.110   3.779   2.712 -0.3478 -0.3047 -1.3675
   36MOL    H6114131   5.000   3.907   2.706 -0.8417  0.2873  1.8370
   36MOL    C6214132   5.081   3.877   2.897 -0.1223 -0.0204  0.7715
   36MOL    C6314133   5.182   3.781   2.963  0.4337  0.7540  0.7252
   36MOL    C6414134   5.162   3.640   2.975  0.0418  0.2584  0.5126
   36MOL    C6514135   5.262   3.559   3.040 -0.2458  0.0406  0.3722
   36MOL    C6614136   5.379   3.618   3.092 -0.5196  0.2978 -0.2495
   36MOL    O6714137   5.457   3.530   3.158 -0.3196 -0.1930  0.0208
   36MOL    C6814138   5.589   3.578   3.207  0.3579  0.5511 -0.8763
   36MOL    C6914139   5.401   3.756   3.075  0.6654  0.0268  0.3108
   36MOL    C7014140   5.307   3.835   3.011 -0.2754  0.3539 -0.0497
   36MOL    C7114141   4.930   3.852   2.935  0.0890 -0.6058  0.1447
   36MOL    H7214142   5.104   3.975   2.939  2.3657  0.8378 -2.4457
   36MOL    H7314143   5.074   3.597   2.928  1.4556 -1.2805 -0.7716
   36MOL    H7414144   5.259   3.451   3.035 -1.2939  0.0700  0.2167
   36MOL    H7514145   5.582   3.670   3.265  0.9845  0.9918 -1.4792
   36MOL    H7614146   5.658   3.577   3.123  0.7752  1.0480 -0.5430
   36MOL    H7714147   5.624   3.496   3.270  0.6713  0.9747 -0.4965
   36MOL    H7814148   5.496   3.803   3.098 -0.4070  4.1916 -2.9711
   36MOL    H7914149   5.320   3.942   2.998 -0.6718  0.1255 -2.6152
   36MOL    H8014150   4.875   3.932   2.887  0.0881 -0.5979  0.1592
   36MOL    H8114151   4.895   3.756   2.897  2.4369 -0.7771 -1.7243
   36MOL    C8214152   4.905   3.847   3.088  0.4092 -0.4819  0.2959
   36MOL    C8314153   4.947   3.983   3.149  0.0248  0.0931  0.1866
   36MOL    C8414154   4.851   4.091   3.155  0.0136 -0.7094  0.2885
   36MOL    C8514155   4.889   4.212   3.210 -0.1842  0.7910 -1.0425
   36MOL    C8614156   5.024   4.239   3.252 -0.5032 -0.0963  0.1508
   36MOL    O8714157   5.062   4.361   3.305 -0.6419 -0.1537 -0.4782
   36MOL    C8814158   4.970   4.467   3.280 -0.4217  0.2588 -0.2929
   36MOL    C8914159   5.117   4.134   3.254  0.0634  0.3153  0.5307
   36MOL    C9014160   5.079   4.003   3.198 -0.1039  0.1067  0.4572
   36MOL    C9114161   4.758   3.815   3.128  0.8831  0.0186  0.0154
   36MOL    H9214162   4.970   3.769   3.126  0.8716 -0.4309 -0.3840
   36MOL    H9314163   4.749   4.084   3.119  0.3686 -0.9249 -0.6760
   36MOL    H9414164   4.815   4.290   3.207 -0.6067  0.4623  0.7574
   36MOL    H9514165   4.878   4.440   3.330 -0.5069 -2.3578 -1.7734
   36MOL    H9614166   4.964   4.501   3.177 -1.0333  0.4083 -0.2073
   36MOL    H9714167   5.019   4.543   3.341 -2.5365 -0.8756  2.8982
   36MOL    H9814168   5.219   4.146   3.289  0.0551  2.8268 -0.1957
   36MOL    H9914169   5.151   3.923   3.206  0.6639  0.8197  0.8617
   36MOL   H10014170   4.764   3.828   3.237 -0.9635 -1.0258  0.2513
   36MOL   H10114171   4.684   3.882   3.086  1.5450 -0.7608 -2.5008
   36MOL   C10214172   4.704   3.675   3.127  0.2299  0.4379 -0.0816
   36MOL   C10314173   4.804   3.577   3.184  0.9260 -0.9546 -0.2480
   36MOL   C10414174   4.858   3.601   3.317  0.0322  0.4050  0.5128
   36MOL   C10514175   4.944   3.507   3.375 -0.1955 -0.4061  0.4076
   36MOL   C10614176   4.964   3.382   3.310 -0.0331  0.4647 -0.0063
   36MOL   O10714177   5.037   3.285   3.381  0.7447 -0.0951  0.3653
   36MOL   C10814178   5.058   3.159   3.320 -0.3720 -0.0879 -0.2774
   36MOL   C10914179   4.918   3.359   3.177  0.3701  0.4925 -0.3569
   36MOL   C11014180   4.836   3.458   3.111 -0.1391 -0.5629 -0.0478
   36MOL   C11114181   4.567   3.650   3.201  0.6001 -0.1884 -0.5727
   36MOL   H11214182   4.679   3.652   3.023 -2.8921  1.1750  0.4666
   36MOL   H11314183   4.835   3.685   3.380 -0.2658  0.1814  0.7048
   36MOL   H11414184   4.976   3.511   3.478  0.4225 -0.1404  0.2023
   36MOL   H11514185   5.096   3.096   3.401  0.3283 -1.6809 -1.8098
   36MOL   H11614186   4.963   3.118   3.286 -1.2461 -0.4821  2.4989
   36MOL   H11714187   5.139   3.160   3.247  0.6607 -0.1079  0.8447
   36MOL   H11814188   4.945   3.270   3.120 -0.6598 -0.9817  1.4088
   36MOL   H11914189   4.786   3.434   3.019 -0.3176  0.6010 -0.2690
   36MOL   H12014190   4.593   3.656   3.307 -0.3153  1.0627 -0.3985
   36MOL   H12114191   4.502   3.733   3.175  1.6443 -0.1409 -3.1615
   36MOL   C12214192   4.484   3.528   3.168  0.4768 -0.1874  0.1587
   36MOL   C12314193   4.454   3.525   3.021 -0.4413 -0.2121  0.6282
   36MOL   C12414194   4.514   3.422   2.943 -0.2664 -0.3901  0.0339
   36MOL   C12514195   4.481   3.406   2.812  0.0196 -0.2502 -0.6765
   36MOL   C12614196   4.397   3.495   2.747  0.1803  0.2700 -0.4977
   36MOL   O12714197   4.368   3.496   2.617 -0.2851  0.0977  0.1362
   36MOL   C12814198   4.449   3.411   2.530 -0.5380 -0.1287  0.0287
   36MOL   C12914199   4.343   3.603   2.819  0.1772 -0.3864 -0.5977
   36MOL   C13014200   4.371   3.621   2.957  0.3988  0.0600 -0.4842
   36MOL   C13114201   4.362   3.517   3.265  0.7582 -0.6331  0.0491
   36MOL   H13214202   4.546   3.443   3.197  0.6763  0.4891  1.7670
   36MOL   H13314203   4.593   3.366   2.990 -0.1725  1.4426  2.1354
   36MOL   H13414204   4.538   3.329   2.762  2.8916  0.9844  0.5647
   36MOL   H13514205   4.414   3.415   2.427  0.2772  0.8074 -0.2091
   36MOL   H13614206   4.547   3.458   2.524 -0.3882 -0.5723 -1.0513
   36MOL   H13714207   4.468   3.305   2.548 -3.9318 -0.5501  1.6284
   36MOL   H13814208   4.268   3.670   2.781 -0.6690 -0.6537  0.5675
   36MOL   H13914209   4.335   3.708   3.010  1.1963  0.9685 -1.4149
   36MOL   H14014210   4.313   3.614   3.276  0.4954 -0.8763  1.0834
   36MOL   H14114211   4.396   3.501   3.367 -0.1754  1.1028  0.6516
   36MOL   C14214212   4.253   3.419   3.239  1.0327 -1.1021  0.6970
   36MOL   C14314213   4.284   3.271   3.228 -0.4685 -0.0737  0.0255
   36MOL   C14414214   4.380   3.213   3.319 -0.3726 -0.2980  0.1283
   36MOL   C14514215   4.409   3.077   3.314  0.3234 -0.0040  0.4921
   36MOL   C14614216   4.337   2.991   3.224 -0.3014 -0.4057  0.0130
   36MOL   O14714217   4.367   2.854   3.227 -0.5908  0.1364  0.4516
   36MOL   C14814218   4.284   2.772   3.150  0.9377 -0.1707 -0.7904
   36MOL   C14914219   4.242   3.050   3.139  0.2340  0.3443  0.1907
   36MOL   C15014220   4.216   3.189   3.138  0.4687  0.0744 -0.1509
   36MOL   C15114221   4.133   3.427   3.350 -0.6009  0.9788 -0.0251
   36MOL   H15214222   4.216   3.456   3.143  1.3670 -1.7941  0.2971
   36MOL   H15314223   4.441   3.280   3.379 -0.5414 -0.6847  0.7386
   36MOL   H15414224   4.479   3.035   3.384 -3.5844 -4.0636  2.1830
   36MOL   H15514225   4.176   2.777   3.154  0.8780 -1.6039 -0.1103
   36MOL   H15614226   4.314   2.797   3.048 -2.1379  0.8600 -1.4882
   36MOL   H15714227   4.331   2.675   3.167  2.3090  0.6964  0.5289
   36MOL   H15814228   4.188   2.987   3.070 -0.0087  0.2709  0.4504
   36MOL   H15914229   4.135   3.225   3.076 -1.2913  0.4858  2.2975
   36MOL   H16014230   4.192   3.393   3.436 -1.0120  2.5955  0.9150
   36MOL   H16114231   4.049   3.361   3.330  0.7979 -0.7042 -0.4961
   36MOL   C16214232   4.078   3.571   3.394 -1.1483 -0.1471  0.5079
   36MOL   C16314233   4.128   3.601   3.534  0.1962  0.8745  0.5555
   36MOL   C16414234   4.077   3.524   3.645  0.4790 -0.0030 -0.1751
   36MOL   C16514235   4.100   3.558   3.776  1.0513 -0.4363 -0.3025
   36MOL   C16614236   4.193   3.663   3.807  0.1888  0.1091  0.1637
   36MOL   O16714237   4.223   3.689   3.938 -0.1115  0.1721 -0.2654
   36MOL   C16814238   4.288   3.807   3.973 -0.4629  1.0225 -0.4384
   36MOL   C16914239   4.249   3.732   3.697  0.6246 -1.1446  0.5414
   36MOL   C17014240   4.215   3.708   3.562 -0.3410 -0.9842  0.0013
   36MOL   C17114241   3.924   3.586   3.384 -0.5390  0.3554  0.0093
   36MOL   H17214242   4.124   3.649   3.334  2.5233 -2.9623 -0.5171
   36MOL   H17314243   4.009   3.443   3.620 -0.0981  0.4871 -0.2057
   36MOL   H17414244   4.057   3.501   3.857  0.7783 -1.9712 -1.5087
   36MOL   H17514245   4.394   3.811   3.999 -1.0154  2.5581  1.6695
   36MOL   H17614246   4.223   3.843   4.052  0.4912  0.9687  0.3792
   36MOL   H17714247   4.270   3.895   3.911 -0.8517 -0.5063 -2.5435
   36MOL   H17814248   4.301   3.825   3.714  0.3488 -1.1082  1.2341
   36MOL   H17914249   4.260   3.767   3.484  0.1436  2.1875  2.5741
   36MOL   H18014250   3.891   3.669   3.446 -0.0348  0.1885  0.4951
   36MOL   H18114251   3.870   3.501   3.426 -1.7329  2.4038  2.7601
   36MOL   C18214252   3.880   3.602   3.237  0.2267  0.2014  0.4607
   36MOL   C18314253   3.924   3.731   3.179  0.6740  0.1560  0.4321
   36MOL   C18414254   3.868   3.853   3.225 -0.3956  0.4097  0.3068
   36MOL   C18514255   3.933   3.976   3.189 -0.6899  0.1144  0.5629
   36MOL   C18614256   4.044   3.976   3.100 -0.1170 -0.2614  0.1265
   36MOL   O18714257   4.107   4.087   3.054  0.0889  0.3063 -0.3052
   36MOL   C18814258   4.071   4.211   3.113 -0.4108  1.0156  0.0091
   36MOL   C18914259   4.093   3.856   3.052  0.1483  0.2487  0.0677
   36MOL   C19014260   4.022   3.733   3.084 -0.3643 -0.0677 -0.3519
   36MOL   C19114261   3.727   3.574   3.223  0.3312 -0.1785 -0.5221
   36MOL   H19214262   3.928   3.522   3.182  1.8259  0.2065  1.8263
   36MOL   H19314263   3.792   3.853   3.301 -0.7625 -0.1153 -0.0604
   36MOL   H19414264   3.897   4.071   3.226  1.5326  1.9613 -1.7738
   36MOL   H19514265   3.977   4.250   3.073 -1.1856  0.2662  1.0582
   36MOL   H19614266   4.146   4.281   3.077  0.3982  0.1494  0.0097
   36MOL   H19714267   4.079   4.217   3.221 -0.3638 -1.2333  0.1641
   36MOL   H19814268   4.179   3.853   2.987  1.2925  0.6691  1.5455
   36MOL   H19914269   4.080   3.647   3.053 -0.6182  0.2610 -1.7352
   36MOL   H20014270   3.676   3.632   3.301 -0.6485 -0.8281 -0.6669
   36MOL   H20114271   3.697   3.625   3.131 -0.6867  0.4116  0.1213
   36MOL   C20214272   3.683   3.422   3.231 -0.1099 -0.0933 -0.6597
   36MOL   C20314273   3.748   3.335   3.117 -0.1475  0.0595 -0.2019
   36MOL   C20414274   3.833   3.223   3.145  0.2543  0.2039  0.5535
   36MOL   C20514275   3.893   3.145   3.047 -0.0618 -0.4331  0.5153
   36MOL   C20614276   3.868   3.172   2.907  0.4762 -0.4873  0.1159
   36MOL   O20714277   3.919   3.102   2.797  0.5476 -0.5819 -0.3982
   36MOL   C20814278   4.017   2.997   2.819 -0.0809 -0.0301 -0.1444
   36MOL   C20914279   3.786   3.283   2.881 -0.2568 -0.7066  0.7280
   36MOL   C21014280   3.729   3.369   2.979 -0.8777  0.8851  0.1258
   36MOL   C21114281   3.530   3.402   3.228  0.4784 -0.4281 -0.1371
   36MOL   H21214282   3.694   3.377   3.330 -2.2633 -1.2917 -0.9268
   36MOL   H21314283   3.851   3.191   3.247 -1.4117  1.0118  1.1347
   36MOL   H21414284   3.958   3.064   3.076  1.7951  0.4403 -1.0215
   36MOL   H21514285   4.047   2.969   2.718 -0.4895  0.4675 -0.4046
   36MOL   H21614286   4.113   3.030   2.858  0.5729 -1.1255 -0.7719
   36MOL   H21714287   3.992   2.904   2.871 -0.4597  1.5170  2.5231
   36MOL   H21814288   3.751   3.299   2.780  1.2269 -1.0240  0.1423
   36MOL   H21914289   3.658   3.445   2.952 -0.1426  1.4898 -0.0949
   36MOL   H22014290   3.510   3.309   3.174  2.1192  0.3115 -2.0620
   36MOL   H22114291   3.481   3.471   3.160  1.1603  1.2107  1.0053
   36MOL   C22214292   3.464   3.383   3.361 -0.9305  0.5297 -0.0121
   36MOL   C22314293   3.324   3.443   3.363 -0.6228 -0.5688 -0.4607
   36MOL   C22414294   3.287   3.531   3.467  0.6255 -0.7462 -0.4556
   36MOL   C22514295   3.156   3.593   3.461  0.1733  0.0202  0.8280
   36MOL   C22614296   3.064   3.563   3.358  0.4555 -0.1192 -1.0957
   36MOL   O22714297   2.950   3.632   3.336  0.2785  0.2973  0.3075
   36MOL   C22814298   2.894   3.697   3.445  0.6385 -0.8905 -0.0274
   36MOL   C22914299   3.101   3.466   3.267  0.4737  0.2359 -0.4975
   36MOL   C23014300   3.227   3.407   3.269 -0.5590  0.7698  0.7542
   36MOL   C23114301   3.462   3.241   3.414 -0.1237 -0.5986 -0.1139
   36MOL   H23214302   3.518   3.443   3.434  1.3752 -0.4995 -0.8196
   36MOL   H23314303   3.356   3.558   3.545 -0.2510 -0.2305  0.1582
   36MOL   H23414304   3.137   3.669   3.535 -0.8716  1.0071 -0.4160
   36MOL   H23514305   2.890   3.635   3.535 -1.5076  1.2584  1.3997
   36MOL   H23614306   2.962   3.781   3.462 -0.1817 -0.4271  1.0230
   36MOL   H23714307   2.802   3.743   3.409  0.2551 -1.4266  0.2560
   36MOL   H23814308   3.034   3.425   3.193 -0.5493  4.1778 -1.9004
   36MOL   H23914309   3.244   3.324   3.201 -2.4881  0.3027  0.8096
   36MOL   H24014310   3.373   3.192   3.373 -0.1431 -0.0930 -0.6797
   36MOL   H24114311   3.550   3.192   3.373  1.7366  2.1952  0.4653
   36MOL   C24214312   3.473   3.236   3.567 -0.5560  0.4797 -0.3770
   36MOL   C24314313   3.411   3.113   3.636  0.0467 -0.4826  0.1833
   36MOL   C24414314   3.436   2.987   3.586 -0.4838  0.4151  0.9188
   36MOL   C24514315   3.371   2.875   3.646 -0.2419 -0.5299  0.4494
   36MOL   C24614316   3.298   2.883   3.767  0.2781  0.5288 -0.0702
   36MOL   O24714317   3.248   2.768   3.816 -0.0409  0.3095  0.2813
   36MOL   C24814318   3.134   2.764   3.904 -0.0870  0.2009 -0.1114
   36MOL   C24914319   3.282   3.009   3.827 -0.6039 -0.4646 -0.5669
   36MOL   C25014320   3.332   3.121   3.753  0.1800 -0.1826  0.1881
   36MOL   C25114321   3.623   3.239   3.604 -0.4135 -0.0907 -0.8777
   36MOL   H25214322   3.428   3.324   3.612  0.4914  1.1136 -0.5388
   36MOL   H25314323   3.488   2.970   3.493 -1.6086 -1.6353  0.6199
   36MOL   H25414324   3.374   2.781   3.592 -2.2102  0.2264 -1.0241
   36MOL   H25514325   3.165   2.775   4.008 -0.3193  1.1123 -0.1333
   36MOL   H25614326   3.067   2.848   3.888  0.9861  0.9942 -0.5379
   36MOL   H25714327   3.093   2.663   3.903 -0.5769  0.4084 -1.5141
   36MOL   H25814328   3.244   3.010   3.928  0.7582  0.8138 -0.0461
   36MOL   H25914329   3.303   3.218   3.791  3.1049  0.2911  1.3597
   36MOL   H26014330   3.680   3.315   3.550  0.5138  0.1138  0.3668
   36MOL   H26114331   3.683   3.158   3.563 -2.3757 -2.2416  0.4331
   36MOL   C26214332   3.643   3.261   3.754 -0.1880  0.0498 -0.3646
   36MOL   C26314333   3.593   3.404   3.796 -0.6358 -0.7237  0.1418
   36MOL   C26414334   3.641   3.520   3.726  0.1001 -0.2433  0.2877
   36MOL   C26514335   3.586   3.650   3.757  0.3268  0.4204 -0.5938
   36MOL   C26614336   3.510   3.667   3.870  0.7424 -0.1637  0.2404
   36MOL   O26714337   3.472   3.798   3.905 -0.2060 -0.0773  0.8461
   36MOL   C26814338   3.391   3.821   4.021 -0.4261  0.3667 -0.2487
   36MOL   C26914339   3.478   3.550   3.951 -0.4522  0.5340 -0.7648
   36MOL   C27014340   3.512   3.419   3.907 -0.0542  0.2802  0.3100
   36MOL   C27114341   3.790   3.246   3.790 -0.0219  0.0187  0.2867
   36MOL   H27214342   3.581   3.190   3.809 -1.7744  2.9414  1.7406
   36MOL   H27314343   3.699   3.518   3.634  1.8534 -1.2018  1.3993
   36MOL   H27414344   3.604   3.738   3.697 -3.5823 -0.1034 -2.7161
   36MOL   H27514345   3.438   3.779   4.110  0.1839  1.3931 -0.0754
   36MOL   H27614346   3.290   3.779   4.022 -0.2065 -0.1893 -1.1178
   36MOL   H27714347   3.395   3.926   4.051  1.0881  0.2898 -0.1559
   36MOL   H27814348   3.437   3.562   4.050  1.6108 -1.3534  0.3799
   36MOL   H27914349   3.481   3.332   3.963 -0.8056  1.4452  1.7456
   36MOL   H28014350   3.814   3.156   3.734 -0.9631  0.0447 -0.1685
   36MOL   H28114351   3.845   3.331   3.750  0.3669  0.0699  0.9157
   36MOL   C28214352   3.817   3.220   3.941  0.6742 -1.0165 -0.3749
   36MOL   C28314353   3.960   3.263   3.987  0.1020 -0.2344  0.3347
   36MOL   C28414354   4.078   3.210   3.922  0.2332  0.1175 -0.1638
   36MOL   C28514355   4.207   3.249   3.967 -0.3537  0.4450 -0.0804
   36MOL   C28614356   4.221   3.333   4.082  0.1971  0.4386 -0.6068
   36MOL   O28714357   4.347   3.360   4.118 -0.3389 -0.8551 -0.5497
   36MOL   C28814358   4.377   3.471   4.195  0.2714  0.2206  0.5682
   36MOL   C28914359   4.106   3.390   4.144  0.4994  0.2064  0.7806
   36MOL   C29014360   3.978   3.361   4.092 -0.6959 -0.1721 -0.5309
   36MOL   C29114361   3.785   3.075   3.989 -0.3924 -0.6438  0.0885
   36MOL   H29214362   3.753   3.288   3.996  3.2648 -0.1077  1.6152
   36MOL   H29314363   4.065   3.140   3.841 -1.9517  1.0140 -0.6361
   36MOL   H29414364   4.296   3.210   3.921  0.3969  1.3237  0.6107
   36MOL   H29514365   4.344   3.452   4.297  2.2590 -0.1043  1.1802
   36MOL   H29614366   4.486   3.467   4.204  0.1663 -0.7787  1.4564
   36MOL   H29714367   4.346   3.564   4.145  1.2111  0.9735  1.3557
   36MOL   H29814368   4.113   3.462   4.224  0.2156 -0.0924  1.0771
   36MOL   H29914369   3.890   3.403   4.137 -0.9527  0.3091 -1.4699
   36MOL   H30014370   3.691   3.049   3.940 -0.2869 -1.6149  0.3747
   36MOL   H30114371   3.862   3.011   3.944  1.5634  1.2427  0.6960
   36MOL   C30214372   3.784   3.054   4.142  0.0741  0.5161 -0.1232
   36MOL   C30314373   3.649   3.097   4.208  0.2695 -0.0800 -0.3705
   36MOL   C30414374   3.642   3.171   4.330 -0.1642  0.7496  0.6806
   36MOL   C30514375   3.517   3.203   4.388 -0.0083 -0.5511  0.6401
   36MOL   C30614376   3.405   3.165   4.319  0.4787  0.0706  0.4830
   36MOL   O30714377   3.275   3.195   4.353 -0.5630  0.4397 -0.5534
   36MOL   C30814378   3.249   3.229   4.488  0.3336 -0.2531  0.2874
   36MOL   C30914379   3.411   3.103   4.193  0.4915 -0.4290  0.7555
   36MOL   C31014380   3.527   3.060   4.145 -0.0721  0.1089  0.3502
   36MOL   C31114381   3.818   2.907   4.183  0.1573 -0.8415 -0.0376
   36MOL   H31214382   3.857   3.113   4.196 -0.6891 -0.1617  1.6796
   36MOL   H31314383   3.738   3.200   4.371  0.2710  0.4795 -0.1337
   36MOL   H31414384   3.505   3.256   4.481  0.1556 -1.2026  1.0319
   36MOL   H31514385   3.294   3.325   4.516  0.9745 -0.7274  0.8854
   36MOL   H31614386   3.288   3.145   4.545  2.4203 -1.8153 -3.3099
   36MOL   H31714387   3.142   3.215   4.507  0.4585 -1.5842  0.0548
   36MOL   H31814388   3.323   3.073   4.138 -0.3391  1.6875  0.8948
   36MOL   H31914389   3.536   3.005   4.053  2.6647  0.5480  0.3072
   36MOL   H32014390   3.754   2.852   4.113 -1.5023 -0.4539  1.1449
   36MOL   H32114391   3.794   2.886   4.287  0.6527  0.7766  0.4090
   36MOL   C32214392   3.959   2.858   4.162 -0.1519  0.2705 -0.2172
   36MOL   C32314393   3.970   2.705   4.172  0.4807 -0.5996 -0.4316
   36MOL   C32414394   3.984   2.636   4.296  0.7609 -0.1865  0.8404
   36MOL   C32514395   4.004   2.496   4.304  0.3584 -1.0140 -0.3426
   36MOL   C32614396   4.000   2.415   4.192 -0.0160  0.5664  0.0512
   36MOL   O32714397   4.022   2.282   4.206  0.0389  0.2353 -0.1700
   36MOL   C32814398   4.054   2.202   4.089 -0.2930  0.7977  0.0929
   36MOL   C32914399   3.971   2.483   4.070 -0.2885  0.4605 -0.0355
   36MOL   C33014400   3.958   2.622   4.057 -1.2956 -0.3686 -0.3840
   36MOL   C33114401   4.058   2.933   4.254  0.0584 -0.3315 -0.2618
   36MOL   H33214402   3.981   2.882   4.058 -2.5606 -1.2739 -1.1478
   36MOL   H33314403   3.997   2.690   4.389 -0.2777 -0.6417  1.2634
   36MOL   H33414404   4.026   2.456   4.402  1.4392 -0.0694 -0.1875
   36MOL   H33514405   4.135   2.247   4.031  0.3220 -2.7108 -1.8852
   36MOL   H33614406   3.963   2.210   4.030  0.6065  1.5968 -1.2297
   36MOL   H33714407   4.078   2.098   4.110  0.4644  0.5360 -1.9826
   36MOL   H33814408   3.972   2.434   3.973  0.5184 -1.2270  0.7940
   36MOL   H33914409   3.948   2.662   3.957  1.5873 -1.0836 -1.0047
   36MOL   H34014410   4.051   3.042   4.262 -1.0629 -0.5002  1.2519
   36MOL   H34114411   4.030   2.915   4.357  1.0513  0.7894  0.2263
   36MOL   C34214412   4.203   2.886   4.242 -0.6292 -0.1819  0.7196
   36MOL   C34314413   4.292   2.948   4.348 -0.2687 -0.3468 -0.3086
   36MOL   C34414414   4.315   3.082   4.360 -0.0457  0.1933 -0.4694
   36MOL   C34514415   4.392   3.135   4.462 -0.1013 -0.4245 -0.0393
   36MOL   C34614416   4.444   3.056   4.569 -0.1747  0.6796  0.0559
   36MOL   O34714417   4.518   3.126   4.663 -0.3896 -0.1492  0.2599
   36MOL   C34814418   4.560   3.051   4.779  0.0889 -0.3918  0.6277
   36MOL   C34914419   4.421   2.919   4.560  0.2443 -0.4469  0.2015
   36MOL   C35014420   4.346   2.867   4.455  0.1433  0.8687  0.2423
   36MOL   C35114421   4.260   2.915   4.103 -0.3585 -0.0606 -0.6588
   36MOL   H35214422   4.204   2.779   4.260  2.3736 -0.2446  0.4131
   36MOL   H35314423   4.276   3.148   4.285 -0.4560 -2.0833 -2.3402
   36MOL   H35414424   4.413   3.241   4.468  2.5156 -0.9214  0.3309
   36MOL   H35514425   4.468   3.008   4.819 -1.0544  0.5064 -0.9646
   36MOL   H35614426   4.638   2.983   4.745  0.1065 -1.1797  2.2046
   36MOL   H35714427   4.589   3.118   4.860 -1.0195 -2.3364  2.7000
   36MOL   H35814428   4.462   2.840   4.622 -0.7345 -0.3863  0.9374
   36MOL   H35914429   4.319   2.762   4.457 -2.3553  1.5085  0.6554
   36MOL   H36014430   4.200   2.868   4.025  1.3336 -2.5526 -0.5308
   36MOL   H36114431   4.245   3.020   4.079 -0.9846  0.1832  0.7524
   36MOL   C36214432   4.407   2.872   4.084  0.2036  0.2039  0.2460
   36MOL   C36314433   4.464   2.920   3.954  0.3798 -0.1351 -0.2397
   36MOL   C36414434   4.396   2.897   3.834 -0.2283 -0.2380  0.5851
   36MOL   C36514435   4.449   2.934   3.710 -0.2715  0.1342 -0.2063
   36MOL   C36614436   4.564   3.021   3.712 -0.0219 -0.3779  0.1202
   36MOL   O36714437   4.614   3.050   3.588  0.2510 -0.3949  0.3104
   36MOL   C36814438   4.729   3.134   3.581 -0.1509  0.0205 -0.3809
   36MOL   C36914439   4.620   3.064   3.833 -0.2686 -0.5122 -0.5506
   36MOL   C37014440   4.570   3.012   3.955  0.4587 -0.1730 -0.2447
   36MOL   C37114441   4.451   2.725   4.094  0.1359 -0.4532 -0.5167
   36MOL   H37214442   4.450   2.933   4.164 -0.2155 -1.8008  2.0778
   36MOL   H37314443   4.306   2.838   3.835  0.3802 -1.1836  2.5624
   36MOL   H37414444   4.390   2.926   3.620  0.3466  1.5066 -0.7573
   36MOL   H37514445   4.719   3.235   3.621 -0.4398  1.0440 -2.9067
   36MOL   H37614446   4.823   3.093   3.618 -0.0511 -0.0625 -0.7239
   36MOL   H37714447   4.757   3.143   3.476 -0.5522 -2.3143 -0.7080
   36MOL   H37814448   4.700   3.137   3.842 -2.0395  1.2290  1.7798
   36MOL   H37914449   4.627   3.021   4.047 -0.1205 -0.9488  0.2013
   36MOL   H38014450   4.385   2.679   4.168  0.2382  1.4573  0.7791
   36MOL   H38114451   4.427   2.667   4.004 -0.3794 -0.2056 -0.5408
   36MOL   C38214452   4.603   2.709   4.140 -0.6982 -0.5921  0.1175
   36MOL   C38314453   4.653   2.564   4.146  0.4693 -0.0601 -0.1985
   36MOL   C38414454   4.753   2.516   4.058  0.4316 -0.4298 -0.4382
   36MOL   C38514455   4.814   2.392   4.078  0.0022 -0.0187  0.3509
   36MOL   C38614456   4.765   2.301   4.169  0.0054  0.2767  0.0482
   36MOL   O38714457   4.809   2.170   4.179 -0.3276  0.0113  0.0530
   36MOL   C38814458   4.932   2.135   4.120 -0.1218 -0.2372 -0.5960
   36MOL   C38914459   4.668   2.348   4.260 -1.4197  0.2867 -0.5184
   36MOL   C39014460   4.604   2.476   4.247  0.1959  0.4928 -0.9454
   36MOL   C39114461   4.638   2.776   4.275  0.1676 -0.8660  0.3074
   36MOL   H39214462   4.658   2.762   4.061 -0.5496 -0.3276  0.3990
   36MOL   H39314463   4.784   2.570   3.970 -1.3299  1.2349 -0.0715
   36MOL   H39414464   4.888   2.361   4.005 -0.4424 -0.4218  0.0647
   36MOL   H39514465   4.940   2.153   4.012  1.3933 -2.4362 -0.8736
   36MOL   H39614466   4.976   2.038   4.143  0.3375 -0.2212 -1.3678
   36MOL   H39714467   5.007   2.199   4.165 -0.0477 -0.5914 -0.2107
   36MOL   H39814468   4.630   2.276   4.332  0.2331 -0.6114 -0.5186
   36MOL   H39914469   4.531   2.509   4.319  1.2689 -1.6026  1.1405
   36MOL   H40014470   4.736   2.745   4.312 -0.7642 -1.4022  2.3988
   36MOL   H40114471   4.586   2.728   4.358  0.7643 -0.7609  0.7453
   36MOL   H40214472   4.624   2.882   4.291 -0.9608 -0.7415 -1.4318
   37MOL     C114473   4.095   7.244   2.644 -0.1544  0.2741  0.7934
   37MOL     C214474   4.136   7.361   2.554 -0.0966  0.2607 -0.3245
   37MOL     C314475   4.106   7.367   2.421  0.1909 -0.1846  0.4512
   37MOL     C414476   4.147   7.479   2.341 -0.1128  0.0801 -0.5282
   37MOL     C514477   4.234   7.573   2.384  0.0643  0.0169  0.0717
   37MOL     O614478   4.292   7.665   2.303 -0.3660  0.1086 -0.0590
   37MOL     C714479   4.302   7.803   2.339 -0.2410  0.7462 -0.4143
   37MOL     C814480   4.270   7.570   2.520  0.7488 -0.2492 -0.0063
   37MOL     C914481   4.218   7.466   2.605 -0.4288  0.3151  0.2113
   37MOL    C1014482   4.137   7.108   2.585 -0.3392  0.1039  0.8063
   37MOL    H1114483   3.989   7.246   2.667  0.2178  1.0645  2.5243
   37MOL    H1214484   4.045   7.287   2.382 -1.2974  0.6269  1.0418
   37MOL    H1314485   4.109   7.483   2.240 -3.9158  1.3037  0.8454
   37MOL    H1414486   4.212   7.852   2.377 -0.6038 -0.0906 -0.1841
   37MOL    H1514487   4.373   7.813   2.421  0.0048 -1.9441 -0.2684
   37MOL    H1614488   4.350   7.864   2.263  1.5214  1.7499  1.4313
   37MOL    H1714489   4.345   7.638   2.559  0.4607  0.6279 -0.9581
   37MOL    H1814490   4.251   7.454   2.707 -0.3614 -0.7075  0.0771
   37MOL    H1914491   4.103   7.110   2.481  2.1307 -1.4557 -0.0648
   37MOL    H2014492   4.244   7.094   2.571 -0.3459  1.5788 -1.0911
   37MOL    H2114493   4.143   7.243   2.742 -0.2586  2.1308  0.8882
   37MOL    C2214494   4.061   6.991   2.642 -0.3701  0.3273 -0.2679
   37MOL    C2314495   4.054   6.877   2.545 -0.6095 -1.0143 -0.6441
   37MOL    C2414496   4.164   6.840   2.461 -0.3500  0.4546 -0.5257
   37MOL    C2514497   4.151   6.722   2.383  0.7869  0.0021  0.3148
   37MOL    C2614498   4.030   6.647   2.386  0.0994 -0.3799 -0.6981
   37MOL    O2714499   4.019   6.537   2.300  0.2008 -0.2264  0.0070
   37MOL    C2814500   3.898   6.471   2.283  0.4174  0.0201  0.2390
   37MOL    C2914501   3.926   6.687   2.472 -0.0369 -0.5489 -0.1895
   37MOL    C3014502   3.941   6.795   2.555  0.6592 -0.2235  0.2497
   37MOL    C3114503   4.095   6.954   2.791 -0.2069  0.7768  0.3078
   37MOL    H3214504   3.959   7.029   2.647 -0.8709 -0.8998 -1.0467
   37MOL    H3314505   4.254   6.899   2.449  0.4234 -0.1918  1.8329
   37MOL    H3414506   4.233   6.695   2.318 -1.5363  0.6791 -3.0250
   37MOL    H3514507   3.815   6.538   2.264 -1.0566 -0.3431  4.9041
   37MOL    H3614508   3.882   6.406   2.369 -0.1583 -2.2750 -1.5429
   37MOL    H3714509   3.901   6.394   2.205  0.5379  1.3440 -1.0795
   37MOL    H3814510   3.836   6.628   2.476 -0.0648 -0.4418  1.0098
   37MOL    H3914511   3.863   6.822   2.624  1.1566  0.6781  0.4715
   37MOL    H4014512   4.042   7.033   2.845  0.0594 -0.4071  2.3497
   37MOL    H4114513   4.054   6.855   2.808 -1.6306  0.8223 -2.5473
   37MOL    C4214514   4.244   6.969   2.827 -0.5863  0.3552  0.4585
   37MOL    C4314515   4.333   6.870   2.750 -0.4258 -0.3735 -0.1799
   37MOL    C4414516   4.294   6.737   2.728  0.2221  0.1461  0.4279
   37MOL    C4514517   4.381   6.650   2.663  0.5636  0.5660 -0.2693
   37MOL    C4614518   4.508   6.692   2.620 -0.5920 -0.1501  0.1007
   37MOL    O4714519   4.580   6.594   2.559 -0.2853  0.6683 -0.1321
   37MOL    C4814520   4.708   6.631   2.495  0.0884  0.0656  0.6168
   37MOL    C4914521   4.545   6.825   2.636  0.2614 -0.5222  0.6177
   37MOL    C5014522   4.461   6.910   2.716 -1.6077 -0.5974 -0.1914
   37MOL    C5114523   4.275   6.948   2.972  0.4234 -0.1239  0.0516
   37MOL    H5214524   4.271   7.073   2.807  1.6923 -0.8348 -3.1390
   37MOL    H5314525   4.194   6.700   2.744  1.0336 -2.1339  0.5427
   37MOL    H5414526   4.347   6.551   2.637  1.3128  0.4368 -0.7658
   37MOL    H5514527   4.793   6.598   2.556  1.6124  1.5916 -0.6129
   37MOL    H5614528   4.712   6.566   2.408 -1.7874  0.6406  0.0929
   37MOL    H5714529   4.716   6.736   2.466  0.5701  0.9216  3.6195
   37MOL    H5814530   4.638   6.869   2.604  1.0708 -1.9226  0.9823
   37MOL    H5914531   4.483   7.014   2.729 -1.5001 -0.3877 -1.9156
   37MOL    H6014532   4.384   6.940   2.974  0.6702  2.7106  2.8850
   37MOL    H6114533   4.229   6.855   3.005  1.5914 -0.9762 -0.7139
   37MOL    C6214534   4.232   7.062   3.074  1.1998  0.3125 -0.0212
   37MOL    C6314535   4.313   7.193   3.039  1.0819  0.1201  0.0600
   37MOL    C6414536   4.450   7.196   3.051 -0.7003 -0.0472 -0.4565
   37MOL    C6514537   4.526   7.318   3.034  0.2725 -0.0103 -0.6269
   37MOL    C6614538   4.460   7.437   3.004 -0.0777  0.0326 -0.1514
   37MOL    O6714539   4.526   7.560   3.001  0.2758 -0.4309  0.9853
   37MOL    C6814540   4.664   7.564   2.995  0.2795  0.7555 -0.6340
   37MOL    C6914541   4.320   7.438   2.979  0.4756 -0.1067  0.0216
   37MOL    C7014542   4.247   7.318   3.007 -0.7844 -0.0368  0.3762
   37MOL    C7114543   4.242   7.022   3.225 -0.7369 -0.2900  0.0157
   37MOL    H7214544   4.138   7.107   3.040  0.7217  0.5708  1.5605
   37MOL    H7314545   4.517   7.116   3.081 -1.9259 -1.2207 -0.8316
   37MOL    H7414546   4.631   7.314   3.059 -0.3504  1.7122  2.4204
   37MOL    H7514547   4.697   7.666   2.980 -0.5615  1.2555  0.8830
   37MOL    H7614548   4.695   7.499   2.913 -0.2029  0.3078 -0.4644
   37MOL    H7714549   4.707   7.532   3.090 -2.9183 -2.4945 -0.1794
   37MOL    H7814550   4.266   7.530   2.963  0.2683 -0.0630  0.9647
   37MOL    H7914551   4.139   7.317   3.012 -0.9614  1.2563 -2.1758
   37MOL    H8014552   4.325   6.952   3.229  1.4848  2.2157 -0.5163
   37MOL    H8114553   4.295   7.102   3.277  0.0814 -2.0482  1.9832
   37MOL    C8214554   4.116   6.985   3.309 -0.4474 -0.2500 -0.3063
   37MOL    C8314555   4.053   6.859   3.256  0.3325  0.0602  0.8513
   37MOL    C8414556   3.922   6.869   3.196  0.0418 -0.3411  0.2788
   37MOL    C8514557   3.851   6.753   3.159 -0.1297  0.6731 -0.2300
   37MOL    C8614558   3.907   6.624   3.190 -0.8315  0.0954  0.3801
   37MOL    O8714559   3.836   6.517   3.147  0.5717  0.5919  0.0420
   37MOL    C8814560   3.887   6.386   3.155 -0.4261 -0.1172  0.2169
   37MOL    C8914561   4.031   6.615   3.255  0.6350 -0.2369  0.1082
   37MOL    C9014562   4.108   6.736   3.281 -0.1665  0.1458  0.3653
   37MOL    C9114563   4.133   6.981   3.458  0.0290 -0.0346 -0.3199
   37MOL    H9214564   4.038   7.057   3.282 -1.7829 -1.4915  0.1596
   37MOL    H9314565   3.880   6.967   3.180 -0.3159 -0.4004  0.8413
   37MOL    H9414566   3.747   6.749   3.130 -0.2466  0.1586  0.2377
   37MOL    H9514567   3.811   6.311   3.132 -1.5024 -0.0532  3.2527
   37MOL    H9614568   3.921   6.359   3.255 -0.0668  0.0130  0.1290
   37MOL    H9714569   3.978   6.384   3.095  1.7894  0.7481  3.4460
   37MOL    H9814570   4.077   6.522   3.286 -0.1321 -0.5873  0.2185
   37MOL    H9914571   4.206   6.721   3.322  0.0064  1.4131  0.4155
   37MOL   H10014572   4.035   6.946   3.491 -0.1306  1.6323  1.0619
   37MOL   H10114573   4.209   6.909   3.490  0.5107  0.5407 -0.1716
   37MOL   C10214574   4.170   7.116   3.523 -1.2547  0.4819  0.6907
   37MOL   C10314575   4.067   7.224   3.487  0.0101 -0.2384 -1.2346
   37MOL   C10414576   4.117   7.346   3.433  0.1727  0.5325  0.0092
   37MOL   C10514577   4.029   7.448   3.404 -0.4873 -0.1785 -0.5926
   37MOL   C10614578   3.889   7.436   3.422 -0.3753  0.6851  0.6175
   37MOL   O10714579   3.816   7.549   3.410  0.5314 -0.3268 -0.0880
   37MOL   C10814580   3.671   7.532   3.411  0.6237  0.0125  0.3618
   37MOL   C10914581   3.840   7.312   3.480  0.1208 -0.6202  0.3744
   37MOL   C11014582   3.931   7.216   3.530 -0.1123 -0.2849  0.9825
   37MOL   C11114583   4.169   7.108   3.678 -0.0066 -0.6237  0.2054
   37MOL   H11214584   4.270   7.138   3.486 -0.8299  0.0873  1.5755
   37MOL   H11314585   4.224   7.357   3.422  0.3233 -1.2639 -0.3492
   37MOL   H11414586   4.066   7.545   3.375  0.1666  0.0679  0.9952
   37MOL   H11514587   3.642   7.451   3.345  2.3725 -1.4890  1.3930
   37MOL   H11614588   3.635   7.511   3.511 -0.6073  1.8442  0.3222
   37MOL   H11714589   3.618   7.617   3.369  0.1791 -1.0724 -1.3152
   37MOL   H11814590   3.736   7.305   3.509  0.2827 -0.3149  1.0471
   37MOL   H11914591   3.894   7.128   3.580  1.1350 -1.6796 -0.4955
   37MOL   H12014592   4.113   7.193   3.716 -1.1468 -2.6893  3.3156
   37MOL   H12114593   4.117   7.018   3.710 -2.1743 -0.3964 -2.5228
   37MOL   C12214594   4.308   7.093   3.742 -0.7863 -0.1790  0.3660
   37MOL   C12314595   4.293   7.039   3.882  0.3108  0.8081  0.0163
   37MOL   C12414596   4.218   7.106   3.983  0.5258  0.1405 -0.2876
   37MOL   C12514597   4.202   7.056   4.112  0.4327  0.0203 -0.7046
   37MOL   C12614598   4.260   6.931   4.145 -0.5667  0.5151  0.7071
   37MOL   O12714599   4.241   6.869   4.269  0.1479  0.6923  0.5623
   37MOL   C12814600   4.171   6.939   4.370 -0.6530 -0.8837 -0.2371
   37MOL   C12914601   4.339   6.863   4.047 -0.7826  0.1525 -0.3351
   37MOL   C13014602   4.362   6.921   3.920  0.1774 -0.1056  0.1225
   37MOL   C13114603   4.376   7.231   3.738  0.0233  0.7014 -0.2094
   37MOL   H13214604   4.352   7.022   3.673 -1.6432 -0.6685  0.3085
   37MOL   H13314605   4.156   7.191   3.958  2.2039  1.9746  1.6461
   37MOL   H13414606   4.152   7.117   4.186 -0.5704 -1.3901 -0.1995
   37MOL   H13514607   4.223   7.032   4.392 -3.0162  0.5172 -0.4317
   37MOL   H13614608   4.069   6.959   4.338 -0.0197  2.0305 -0.5871
   37MOL   H13714609   4.153   6.878   4.459 -0.0653 -1.6072 -0.6002
   37MOL   H13814610   4.386   6.769   4.074 -1.0783  0.0783 -0.0674
   37MOL   H13914611   4.426   6.878   3.844 -0.3365  0.8097 -0.8348
   37MOL   H14014612   4.326   7.294   3.811 -0.4007 -0.6914  0.7244
   37MOL   H14114613   4.367   7.287   3.645  2.0103  2.4278  0.5954
   37MOL   C14214614   4.524   7.224   3.776  0.0300  0.5568 -0.0922
   37MOL   C14314615   4.612   7.193   3.656 -0.5518  0.2154 -0.5587
   37MOL   C14414616   4.691   7.069   3.658  0.2011 -0.3851  0.7077
   37MOL   C14514617   4.777   7.037   3.541  1.1409  0.6698 -0.0823
   37MOL   C14614618   4.778   7.119   3.427  0.2136 -0.0802 -0.7188
   37MOL   O14714619   4.864   7.088   3.325  0.7179  0.3998 -0.9741
   37MOL   C14814620   4.876   7.173   3.218  0.0019  0.2591  0.5165
   37MOL   C14914621   4.690   7.229   3.424  0.3629  0.6317  0.2509
   37MOL   C15014622   4.614   7.267   3.534  0.0638 -0.2469  0.0758
   37MOL   C15114623   4.559   7.353   3.850 -0.4956 -0.6775  0.0463
   37MOL   H15214624   4.528   7.141   3.846  1.5556 -0.3870 -1.2553
   37MOL   H15314625   4.693   7.014   3.751 -2.9621 -0.3684  0.8131
   37MOL   H15414626   4.838   6.948   3.549 -0.1883 -0.4459 -2.0199
   37MOL   H15514627   4.896   7.271   3.261 -0.8961  0.8673 -0.4145
   37MOL   H15614628   4.967   7.155   3.161 -1.2615 -1.7366 -0.9508
   37MOL   H15714629   4.794   7.168   3.146 -0.5658  0.3283  1.1556
   37MOL   H15814630   4.682   7.296   3.340  0.7058 -0.4883 -0.6868
   37MOL   H15914631   4.559   7.359   3.523  0.3284 -0.0197  0.6067
   37MOL   H16014632   4.496   7.363   3.938  1.2040  0.7920  1.1153
   37MOL   H16114633   4.532   7.425   3.773 -2.5147  0.0157  1.3577
   37MOL   C16214634   4.702   7.377   3.903 -1.1000  0.6440  0.4411
   37MOL   C16314635   4.753   7.258   3.983 -0.0635  1.0935  0.1789
   37MOL   C16414636   4.866   7.193   3.948 -0.5409  0.5563  0.3392
   37MOL   C16514637   4.920   7.082   4.022 -0.1679 -0.1476 -0.4490
   37MOL   C16614638   4.837   7.029   4.121 -0.5236  0.3186 -0.1766
   37MOL   O16714639   4.897   6.925   4.195 -0.0171  0.0744  0.3100
   37MOL   C16814640   4.840   6.884   4.315  0.2132  0.0480 -0.2457
   37MOL   C16914641   4.707   7.080   4.142  0.1758  0.7423 -0.1154
   37MOL   C17014642   4.676   7.198   4.079  0.3909  0.2995  0.6686
   37MOL   C17114643   4.731   7.512   3.975 -0.8393 -0.1572 -0.2925
   37MOL   H17214644   4.753   7.386   3.807 -2.2006 -1.0128 -0.3153
   37MOL   H17314645   4.923   7.226   3.862 -1.6613 -0.3158 -0.7747
   37MOL   H17414646   5.022   7.049   4.011  0.7455  2.0959  0.7852
   37MOL   H17514647   4.893   6.807   4.371 -2.7141 -0.6635  1.6958
   37MOL   H17614648   4.743   6.838   4.295 -0.8305  2.5870 -1.2505
   37MOL   H17714649   4.821   6.971   4.378 -3.5752 -1.0640  0.3139
   37MOL   H17814650   4.636   7.027   4.204  1.0723 -1.8809 -1.2695
   37MOL   H17914651   4.585   7.244   4.113  1.1685  0.6077  2.3431
   37MOL   H18014652   4.690   7.595   3.917  1.1390  1.1803  0.1912
   37MOL   H18114653   4.838   7.525   3.963 -1.2178  3.1857 -0.5527
   37MOL   C18214654   4.685   7.518   4.129  0.2880 -0.0400  1.0009
   37MOL   C18314655   4.534   7.506   4.147  0.1598  0.0558 -0.2955
   37MOL   C18414656   4.452   7.584   4.065  0.2988 -0.3772 -0.6354
   37MOL   C18514657   4.314   7.561   4.082 -0.1592  0.4543 -0.0303
   37MOL   C18614658   4.258   7.460   4.166  0.3751 -0.1597  0.7443
   37MOL   O18714659   4.120   7.427   4.164  0.0447 -0.2508 -0.9477
   37MOL   C18814660   4.039   7.495   4.071  0.4175 -0.5397 -0.0652
   37MOL   C18914661   4.339   7.388   4.247 -0.1230 -0.5310 -0.3149
   37MOL   C19014662   4.475   7.415   4.247 -0.5264 -0.4743 -0.0277
   37MOL   C19114663   4.754   7.648   4.187 -0.0840 -0.1122 -0.3164
   37MOL   H19214664   4.736   7.445   4.192  1.4360  0.2229  0.4002
   37MOL   H19314665   4.500   7.653   3.997  0.6060  0.1401  0.1013
   37MOL   H19414666   4.250   7.630   4.031  1.6741  0.9718 -1.6732
   37MOL   H19514667   4.085   7.476   3.974  2.7616 -1.3698  1.1751
   37MOL   H19614668   4.029   7.603   4.086  0.2057 -0.5719  0.0353
   37MOL   H19714669   3.938   7.457   4.085  0.5914 -0.5509  1.2275
   37MOL   H19814670   4.296   7.321   4.320  0.1369  0.4290  0.7415
   37MOL   H19914671   4.535   7.364   4.321 -0.5968  0.5752  0.7606
   37MOL   H20014672   4.860   7.632   4.207 -0.5750 -0.9169  1.8265
   37MOL   H20114673   4.766   7.719   4.105 -0.7657 -1.1628 -1.3344
   37MOL   C20214674   4.694   7.709   4.324 -0.2664  0.6912 -0.6504
   37MOL   C20314675   4.719   7.863   4.325  0.3587  0.1680  0.2149
   37MOL   C20414676   4.611   7.954   4.292  0.2388  0.8205 -0.3068
   37MOL   C20514677   4.637   0.048   4.270 -0.2618 -0.1160 -0.1830
   37MOL   C20614678   4.769   0.096   4.278  0.0916  0.1061 -0.3311
   37MOL   O20714679   4.787   0.229   4.257 -0.3305  0.0064 -0.9230
   37MOL   C20814680   4.917   0.291   4.268 -0.6856  0.1285 -0.3766
   37MOL   C20914681   4.876   0.011   4.315  0.3171  0.6861  0.4170
   37MOL   C21014682   4.851   7.916   4.348 -0.0231 -0.8452  0.0185
   37MOL   C21114683   4.749   7.634   4.449  0.0618  0.6547  0.4381
   37MOL   H21214684   4.588   7.683   4.326 -0.1662  0.3606  2.1308
   37MOL   H21314685   4.509   7.918   4.278 -0.5552  2.4855  1.0320
   37MOL   H21414686   4.554   0.113   4.248 -0.4151  0.0812  0.9139
   37MOL   H21514687   4.923   0.391   4.226 -1.5225  1.0616  1.6314
   37MOL   H21614688   4.947   0.324   4.368  3.8030  2.0089 -2.2004
   37MOL   H21714689   5.001   0.234   4.229 -1.4797 -0.3544 -1.4007
   37MOL   H21814690   4.980   0.041   4.311  1.3434 -2.5833  0.7478
   37MOL   H21914691   4.937   7.853   4.364  0.9110  0.7271  1.3903
   37MOL   H22014692   4.858   7.644   4.452 -0.0653  1.7311  2.1114
   37MOL   H22114693   4.724   7.528   4.439  1.3600  0.5557 -2.1385
   37MOL   C22214694   4.683   7.682   4.577  0.2302 -0.7034  0.4538
   37MOL   C22314695   4.536   7.662   4.577  0.5124  0.0506  0.0571
   37MOL   C22414696   4.439   7.764   4.597 -0.1568 -0.5466  0.7861
   37MOL   C22514697   4.298   7.742   4.593  0.7978  0.0196  0.8651
   37MOL   C22614698   4.244   7.613   4.568 -0.2283 -0.4262  0.0068
   37MOL   O22714699   4.111   7.592   4.561 -0.0209 -0.1218  0.4574
   37MOL   C22814700   4.057   7.466   4.523 -0.6295 -0.7527  0.0178
   37MOL   C22914701   4.339   7.509   4.554  0.6039  0.0693 -0.2535
   37MOL   C23014702   4.478   7.533   4.571  0.3618  0.4969  0.1516
   37MOL   C23114703   4.737   7.622   4.713 -0.4818  0.2955 -0.1206
   37MOL   H23214704   4.708   7.788   4.579 -1.3022 -0.3390  0.9766
   37MOL   H23314705   4.466   7.867   4.611 -1.0353 -0.5240  2.5071
   37MOL   H23414706   4.228   7.825   4.599 -0.2305 -0.7316 -0.3674
   37MOL   H23514707   4.074   7.451   4.416  0.5446  0.9034 -0.0594
   37MOL   H23614708   4.094   7.381   4.581 -0.2141 -1.4863 -1.2858
   37MOL   H23714709   3.950   7.462   4.542 -0.3703  1.9377  2.4381
   37MOL   H23814710   4.301   7.408   4.549  0.0403  0.3058 -0.9230
   37MOL   H23914711   4.546   7.449   4.570  1.2983  1.2295 -2.8660
   37MOL   H24014712   4.669   7.646   4.794  1.0659 -3.0137  2.3003
   37MOL   H24114713   4.733   7.513   4.711  1.6544  0.1693  0.6090
   37MOL   C24214714   4.883   7.660   4.747 -0.1529 -0.2577  0.0798
   37MOL   C24314715   4.893   7.812   4.755 -0.1768  0.1464 -0.0118
   37MOL   C24414716   4.974   7.883   4.670 -0.0867 -0.0710  0.1159
   37MOL   C24514717   4.971   8.026   4.669  0.6322  0.0017  0.5635
   37MOL   C24614718   4.902   0.051   4.767  0.7521 -0.0281 -0.5706
   37MOL   O24714719   4.911   0.190   4.778  0.2859  0.0064  0.1833
   37MOL   C24814720   4.833   0.272   4.865 -0.5975  0.4299 -0.3205
   37MOL   C24914721   4.823   8.025   4.858 -0.1995  0.6634  0.1904
   37MOL   C25014722   4.815   7.880   4.856  0.2066 -0.0544 -0.0463
   37MOL   C25114723   4.915   7.605   4.885  0.4432 -0.5091  1.3123
   37MOL   H25214724   4.948   7.620   4.669  1.2261  0.4221  0.8645
   37MOL   H25314725   5.025   7.821   4.597 -1.5241 -1.0102 -0.1157
   37MOL   H25414726   5.032   0.036   4.595 -1.8745 -0.4050 -1.8145
   37MOL   H25514727   4.886   0.368   4.868 -0.0681  0.1622 -0.8423
   37MOL   H25614728   4.728   0.291   4.843 -1.4241  0.3008  3.3327
   37MOL   H25714729   4.838   0.230   4.965 -2.7747 -0.5474 -0.6015
   37MOL   H25814730   4.761   0.038   4.928  0.7679  0.6162  1.0905
   37MOL   H25914731   4.753   7.824   4.925  1.2986  0.4269  1.3557
   37MOL   H26014732   4.908   7.497   4.891  0.0638 -0.4937  1.1248
   37MOL   H26114733   4.840   7.631   4.960  2.7899  2.3637  2.7919
   37MOL   C26214734   5.043   7.651   4.949 -0.3788  0.2396  0.5444
   37MOL   C26314735   5.166   7.637   4.853  0.1087 -0.0908 -0.1721
   37MOL   C26414736   5.220   7.509   4.828 -0.0113 -0.6270 -0.1947
   37MOL   C26514737   5.328   7.495   4.737  0.3168  0.4181 -0.1679
   37MOL   C26614738   5.405   7.607   4.703 -0.0706  0.3682  0.4846
   37MOL   O26714739   5.510   7.583   4.613 -0.5427  0.2329  0.3407
   37MOL   C26814740   5.577   7.693   4.553 -0.4782  0.1731  0.3432
   37MOL   C26914741   5.356   7.737   4.739  0.2029 -0.4027 -0.3092
   37MOL   C27014742   5.233   7.748   4.804  0.0837 -0.2921 -0.4579
   37MOL   C27114743   5.067   7.588   5.087  0.4092 -0.3303  0.5720
   37MOL   H27214744   5.023   7.757   4.968  1.6782  0.3381  2.5043
   37MOL   H27314745   5.170   7.420   4.862 -1.8775  0.4421 -0.0557
   37MOL   H27414746   5.362   7.399   4.703  0.4516  0.2307  0.4842
   37MOL   H27514747   5.666   7.657   4.502  0.2021  3.3133 -0.8032
   37MOL   H27614748   5.598   7.770   4.628 -1.1707  1.1888 -0.4898
   37MOL   H27714749   5.512   7.733   4.475  2.0796  2.0683 -0.8897
   37MOL   H27814750   5.405   7.830   4.712 -0.7429 -0.4075 -2.1223
   37MOL   H27914751   5.195   7.846   4.826 -0.3232 -0.1814 -1.5653
   37MOL   H28014752   4.969   7.595   5.136 -1.2725 -2.6546 -2.3401
   37MOL   H28114753   5.093   7.486   5.060  1.6933  0.6880 -2.2062
   37MOL   C28214754   5.184   7.644   5.175 -0.7089  0.0791 -0.2719
   37MOL   C28314755   5.190   7.573   5.314  0.2865 -0.0884  0.8870
   37MOL   C28414756   5.285   7.477   5.338 -0.6455  0.2574 -0.9830
   37MOL   C28514757   5.287   7.404   5.461  0.0191  0.0967  0.6816
   37MOL   C28614758   5.200   7.443   5.561 -0.0519  0.5268  0.2422
   37MOL   O28714759   5.206   7.382   5.686  0.2908 -0.5050  0.2628
   37MOL   C28814760   5.102   7.419   5.777 -0.2475  0.3629  0.3454
   37MOL   C28914761   5.104   7.547   5.540 -0.8111  0.0304 -0.2184
   37MOL   C29014762   5.101   7.613   5.417 -0.0075  0.2467 -0.0101
   37MOL   C29114763   5.175   7.804   5.193  0.2668  0.3212 -0.7893
   37MOL   H29214764   5.280   7.625   5.127 -1.3142  0.9240 -1.8563
   37MOL   H29314765   5.350   7.439   5.261 -1.7143 -0.2942 -1.6355
   37MOL   H29414766   5.367   7.333   5.475  0.4232  0.2798 -0.6655
   37MOL   H29514767   5.005   7.387   5.739  0.4917  0.3819 -1.6476
   37MOL   H29614768   5.111   7.361   5.869 -0.0488  1.1549  0.8269
   37MOL   H29714769   5.095   7.525   5.802 -1.8397  0.9009 -2.1771
   37MOL   H29814770   5.031   7.583   5.611  2.1269 -0.9585  3.4627
   37MOL   H29914771   5.023   7.686   5.401  1.0495  1.6938  1.3004
   37MOL   H30014772   5.179   7.859   5.100 -0.6091 -2.0275 -2.2527
   37MOL   H30114773   5.074   7.832   5.225  0.2688 -0.6996  0.1843
   37MOL   C30214774   5.283   7.868   5.286 -0.3021 -0.0236 -0.6209
   37MOL   C30314775   5.423   7.826   5.256 -0.3618  0.1173 -0.5303
   37MOL   C30414776   5.510   7.786   5.359  1.0481 -0.0523  0.8352
   37MOL   C30514777   5.648   7.764   5.333  0.1754  0.3531  0.0965
   37MOL   C30614778   5.698   7.783   5.203  0.5471 -0.0714 -0.4369
   37MOL   O30714779   5.833   7.774   5.165  0.2675 -0.3075 -0.2801
   37MOL   C30814780   5.912   7.675   5.225  0.3647 -0.4492 -0.0459
   37MOL   C30914781   5.605   7.823   5.104 -0.2096  0.0056  0.4973
   37MOL   C31014782   5.472   7.849   5.126  0.0039  0.4302  0.2519
   37MOL   C31114783   5.275   8.025   5.292  0.3499 -0.5473  0.0899
   37MOL   H31214784   5.263   7.836   5.388 -1.0872  1.0391 -0.4297
   37MOL   H31314785   5.479   7.773   5.461  1.7786 -4.4575  0.5731
   37MOL   H31414786   5.712   7.735   5.415  0.5497  0.1013 -0.2862
   37MOL   H31514787   5.953   7.702   5.322  1.9289 -1.3686 -0.4383
   37MOL   H31614788   6.001   7.682   5.162 -2.1381 -0.4815 -3.7496
   37MOL   H31714789   5.879   7.571   5.224 -0.4347 -0.1867 -1.2715
   37MOL   H31814790   5.631   7.830   4.999 -1.7359  1.0033  0.1781
   37MOL   H31914791   5.406   7.877   5.045 -1.4318 -1.8270  0.5916
   37MOL   H32014792   5.302   0.017   5.192  0.1804 -0.2976  0.1199
   37MOL   H32114793   5.355   0.025   5.354  1.1381 -1.3373 -0.4207
   37MOL   C32214794   5.142   0.048   5.330 -0.1332 -0.0735  0.0808
   37MOL   C32314795   5.140   0.195   5.292 -0.2246 -0.2829  0.8092
   37MOL   C32414796   5.042   0.243   5.205  1.0322 -0.3688  0.0473
   37MOL   C32514797   5.033   0.378   5.172  0.4614  0.4975  0.2980
   37MOL   C32614798   5.139   0.462   5.219  0.2187 -0.1846 -0.0698
   37MOL   O32714799   5.143   0.594   5.185  0.0686 -0.1194 -0.3419
   37MOL   C32814800   5.085   0.625   5.062  1.0696 -0.1722  1.0102
   37MOL   C32914801   5.233   0.415   5.310  0.1387 -0.2736  0.7516
   37MOL   C33014802   5.233   0.279   5.353  0.6440  0.1582  0.1406
   37MOL   C33114803   5.110   0.023   5.480  0.6736 -0.4547  0.6100
   37MOL   H33214804   5.067   8.036   5.271 -0.5529 -3.5219  3.5303
   37MOL   H33314805   4.972   0.171   5.165  0.8242  1.1641 -2.4558
   37MOL   H33414806   4.945   0.410   5.118  0.4202  0.7816  0.5361
   37MOL   H33514807   5.100   0.728   5.028  1.6412 -0.1391  1.3653
   37MOL   H33614808   4.976   0.630   5.073  0.6651 -3.7115 -0.7135
   37MOL   H33714809   5.112   0.554   4.984  0.2907 -1.0370  1.5260
   37MOL   H33814810   5.307   0.472   5.364  1.1990  1.2141 -2.1432
   37MOL   H33914811   5.300   0.234   5.425  0.1356 -0.4038  0.2694
   37MOL   H34014812   5.086   7.958   5.496 -0.2754 -0.9400 -3.4520
   37MOL   H34114813   5.203   0.038   5.535  0.1207  0.8984  1.2145
   37MOL   C34214814   5.000   0.114   5.547  0.2992 -0.2163  0.5093
   37MOL   C34314815   4.992   0.086   5.697 -0.1220  0.3510 -0.8530
   37MOL   C34414816   4.925   8.006   5.746 -0.0645  0.4838 -0.1895
   37MOL   C34514817   4.929   7.972   5.882 -0.3762 -0.6661 -0.1948
   37MOL   C34614818   4.999   0.019   5.971 -1.2081 -0.0104 -0.1187
   37MOL   O34714819   5.007   0.003   6.105 -0.3596  0.7194  0.3469
   37MOL   C34814820   4.953   7.927   6.168 -0.1113 -0.1045 -0.6632
   37MOL   C34914821   5.064   0.133   5.922 -0.9221 -0.3513  0.1300
   37MOL   C35014822   5.071   0.157   5.787 -0.4570  0.9255  0.2882
   37MOL   C35114823   4.866   0.089   5.474 -0.3733  0.1154 -0.3837
   37MOL   H35214824   5.012   0.220   5.527 -1.6218 -0.1519 -0.4255
   37MOL   H35314825   4.876   7.938   5.678  0.5992  0.2755 -0.4704
   37MOL   H35414826   4.877   7.885   5.917  0.1368 -0.3963  1.2869
   37MOL   H35514827   5.014   7.885   6.248 -0.9915 -1.4276 -0.6778
   37MOL   H35614828   4.858   7.953   6.215 -0.1443 -0.8955 -0.2815
   37MOL   H35714829   4.926   7.839   6.110  1.6477  0.3373 -2.1741
   37MOL   H35814830   5.121   0.191   5.993 -1.8879 -1.4537  1.8098
   37MOL   H35914831   5.127   0.240   5.747  1.2114 -0.4230 -0.2374
   37MOL   H36014832   4.880   0.095   5.366 -1.7416  2.9665 -0.4554
   37MOL   H36114833   4.821   8.035   5.505  1.4595 -0.5824  0.2252
   37MOL   C36214834   4.754   0.194   5.492  0.1873  0.1411  0.6003
   37MOL   C36314835   4.618   0.126   5.458  0.0858 -0.6662 -0.0911
   37MOL   C36414836   4.564   0.118   5.328 -0.3978 -0.7404 -0.0212
   37MOL   C36514837   4.442   0.060   5.296 -0.2640 -0.3755  0.0318
   37MOL   C36614838   4.370   8.035   5.401 -0.3021 -0.3786  0.5149
   37MOL   O36714839   4.253   7.963   5.386 -0.1710  0.4537 -0.1092
   37MOL   C36814840   4.206   7.946   5.250  0.0091  0.4013  0.5543
   37MOL   C36914841   4.422   8.032   5.535  0.0708 -0.1340  0.5767
   37MOL   C37014842   4.539   0.072   5.561 -0.7567  0.5630  0.7628
   37MOL   C37114843   4.769   0.331   5.416 -0.5202  0.2708  0.1856
   37MOL   H37214844   4.745   0.217   5.598 -0.1705  2.3197  0.1216
   37MOL   H37314845   4.625   0.151   5.245 -0.8622  0.9497  0.2890
   37MOL   H37414846   4.411   0.062   5.193 -2.2002  0.0796  0.6031
   37MOL   H37514847   4.205   0.000   5.195  2.3208  1.0256  1.5593
   37MOL   H37614848   4.271   7.879   5.193 -0.2485  0.5665  0.0585
   37MOL   H37714849   4.111   7.892   5.258 -1.5156  3.0595  0.9901
   37MOL   H37814850   4.368   7.984   5.615  1.0492  0.6558  1.7256
   37MOL   H37914851   4.570   0.082   5.664 -1.1240  0.2559  0.9066
   37MOL   H38014852   4.867   0.372   5.439  0.4807 -1.4000 -1.0380
   37MOL   H38114853   4.767   0.314   5.309  1.3648 -1.3388  0.3946
   37MOL   C38214854   4.662   0.432   5.450  0.2279  1.2725  0.2458
   37MOL   C38314855   4.679   0.550   5.346  0.3943  0.6258 -0.3913
   37MOL   C38414856   4.573   0.568   5.253  0.0153 -0.8030  0.1538
   37MOL   C38514857   4.584   0.671   5.156  0.2417 -0.6231 -0.7352
   37MOL   C38614858   4.696   0.755   5.149  0.8389  0.3188 -0.4388
   37MOL   O38714859   4.697   0.849   5.046 -0.0168  0.3032  0.1151
   37MOL   C38814860   4.788   0.957   5.053 -0.1914  0.0885  0.0979
   37MOL   C38914861   4.799   0.738   5.243  0.1857 -0.5208 -1.0416
   37MOL   C39014862   4.798   0.634   5.335 -0.8021 -0.5415  0.7635
   37MOL   C39114863   4.676   0.490   5.592  0.4013 -0.3005  0.3983
   37MOL   H39214864   4.562   0.391   5.437  1.0304 -0.4958 -0.5100
   37MOL   H39314865   4.485   0.506   5.245 -0.9871  0.8736 -2.2640
   37MOL   H39414866   4.505   0.685   5.084 -0.5236 -2.4090 -0.2508
   37MOL   H39514867   4.754   1.028   4.979  0.2330  1.5043  1.2319
   37MOL   H39614868   4.884   0.914   5.024 -0.0793 -1.4399  2.5441
   37MOL   H39714869   4.792   0.998   5.154  2.0524 -0.8417  0.4277
   37MOL   H39814870   4.888   0.799   5.246  0.4641 -0.9476 -0.4623
   37MOL   H39914871   4.878   0.622   5.407 -0.4998 -3.1568  0.0469
   37MOL   H40014872   4.678   0.410   5.666  3.2407  1.4084  2.2896
   37MOL   H40114873   4.592   0.552   5.624 -1.0922 -2.3161  0.4731
   37MOL   H40214874   4.770   0.543   5.608  0.1927  0.0666  0.4284
   38MOL     C114875   1.229   2.479   2.351 -1.1678  0.1080 -0.5018
   38MOL     C214876   1.111   2.473   2.436  0.2277  0.2870  0.3186
   38MOL     C314877   1.103   2.532   2.563  0.5284 -0.6109 -0.3957
   38MOL     C414878   0.984   2.527   2.638 -0.4502  0.6346 -0.0886
   38MOL     C514879   0.871   2.457   2.584 -0.4912  0.1367 -0.0287
   38MOL     O614880   0.758   2.477   2.661 -0.1040 -0.4082  0.0329
   38MOL     C714881   0.629   2.476   2.595 -0.6006 -0.0196 -0.0073
   38MOL     C814882   0.881   2.388   2.461 -0.0206  0.1014 -0.2859
   38MOL     C914883   1.004   2.393   2.392 -0.7099  0.2203  0.0907
   38MOL    C1014884   1.216   2.476   2.196  0.1982  0.0298  0.3031
   38MOL    H1114885   1.289   2.390   2.370  1.4067  1.7857 -0.4813
   38MOL    H1214886   1.187   2.575   2.614 -0.9173  0.1995  1.3576
   38MOL    H1314887   0.977   2.578   2.733  0.8561 -0.9357  0.8704
   38MOL    H1414888   0.550   2.449   2.665 -0.8302 -0.7052 -0.5355
   38MOL    H1514889   0.610   2.578   2.563 -1.3205  0.3012  1.3986
   38MOL    H1614890   0.617   2.409   2.510  1.0025 -1.9621  1.2392
   38MOL    H1714891   0.816   2.312   2.419 -0.4321  0.0969  0.3507
   38MOL    H1814892   1.015   2.323   2.310 -2.7150 -0.7420  0.6079
   38MOL    H1914893   1.307   2.471   2.135  0.3882  1.2036  0.4771
   38MOL    H2014894   1.168   2.381   2.171  1.7685 -0.7950  0.3350
   38MOL    H2114895   1.294   2.562   2.380  0.8546 -2.2833  2.0573
   38MOL    C2214896   1.127   2.590   2.139  0.5876 -0.1560  0.2302
   38MOL    C2314897   1.140   2.729   2.204 -0.4721  0.7354  0.2149
   38MOL    C2414898   1.249   2.818   2.181  0.3329 -0.3563  0.0821
   38MOL    C2514899   1.246   2.956   2.222  0.5195  0.2593  0.0502
   38MOL    C2614900   1.144   3.002   2.305  0.8045 -0.4794 -0.3488
   38MOL    O2714901   1.128   3.137   2.342 -0.2952 -0.2765 -0.1936
   38MOL    C2814902   1.203   3.240   2.277 -0.0952 -0.5874  0.2789
   38MOL    C2914903   1.044   2.911   2.336 -0.1606 -0.2506  0.5996
   38MOL    C3014904   1.036   2.777   2.288 -0.3675 -0.7834 -0.1190
   38MOL    C3114905   1.150   2.614   1.984 -0.9225  0.5297  0.6672
   38MOL    H3214906   1.023   2.559   2.145  0.4248  0.4840  0.8638
   38MOL    H3314907   1.326   2.784   2.112 -0.6021  0.4471 -1.3906
   38MOL    H3414908   1.330   3.018   2.195 -1.1359  1.7114 -1.8853
   38MOL    H3514909   1.308   3.211   2.279 -0.2362 -1.0740  1.1295
   38MOL    H3614910   1.187   3.335   2.328 -0.7987 -2.5854  3.9659
   38MOL    H3714911   1.166   3.251   2.175  0.1007 -0.6134  0.2042
   38MOL    H3814912   0.966   2.948   2.401  1.0227 -0.3023  2.0722
   38MOL    H3914913   0.945   2.721   2.305 -1.6081  1.1304 -0.2404
   38MOL    H4014914   1.097   2.701   1.946  1.6836  1.4592 -0.9371
   38MOL    H4114915   1.250   2.654   1.968 -0.9491  0.2164 -0.2740
   38MOL    C4214916   1.130   2.490   1.890  0.3280  0.2385 -0.0716
   38MOL    C4314917   1.254   2.411   1.852  0.1268  0.8069  0.1585
   38MOL    C4414918   1.263   2.274   1.895  0.3894 -0.0863  0.4160
   38MOL    C4514919   1.379   2.200   1.900  0.5768  0.1603 -0.4873
   38MOL    C4614920   1.501   2.256   1.844 -0.2924 -0.1923 -0.2786
   38MOL    O4714921   1.618   2.191   1.847 -0.0046 -0.0516  0.2687
   38MOL    C4814922   1.624   2.090   1.942 -0.5344 -0.4848  0.5258
   38MOL    C4914923   1.490   2.390   1.790 -1.0143  0.6374  0.0254
   38MOL    C5014924   1.374   2.466   1.790 -0.0671 -0.1698 -0.2323
   38MOL    C5114925   1.037   2.525   1.769  0.1525  0.1794  1.1497
   38MOL    H5214926   1.071   2.424   1.954  0.6192  0.9136  0.8868
   38MOL    H5314927   1.172   2.226   1.927  0.3023  0.0555  0.3853
   38MOL    H5414928   1.371   2.100   1.939 -0.9054  0.6115  0.4128
   38MOL    H5514929   1.726   2.078   1.978 -0.2707  1.1132  0.3128
   38MOL    H5614930   1.566   2.114   2.031 -2.4079  1.5714 -1.1743
   38MOL    H5714931   1.585   1.992   1.912  1.9501 -1.3987  0.1881
   38MOL    H5814932   1.577   2.438   1.747 -0.2352 -0.3646  0.4676
   38MOL    H5914933   1.367   2.567   1.753 -2.8324 -0.3943 -0.4396
   38MOL    H6014934   1.071   2.468   1.682  1.4559  0.9735  1.1157
   38MOL    H6114935   1.055   2.630   1.746  2.2437 -0.4186 -0.1619
   38MOL    C6214936   0.883   2.508   1.801 -0.7225 -0.1557  0.3310
   38MOL    C6314937   0.818   2.374   1.813  0.3685 -0.0915  0.3989
   38MOL    C6414938   0.833   2.280   1.711  0.3429 -0.8702  0.8160
   38MOL    C6514939   0.762   2.160   1.709 -0.5419  0.6600 -0.8930
   38MOL    C6614940   0.688   2.115   1.823  0.0354  0.0883  0.3687
   38MOL    O6714941   0.624   1.994   1.820 -0.3935  0.0492 -0.3016
   38MOL    C6814942   0.550   1.954   1.938  0.0777  0.2219  0.1110
   38MOL    C6914943   0.677   2.209   1.934  0.0841  0.4328  0.1929
   38MOL    C7014944   0.739   2.342   1.927  0.2122  0.4096  0.4149
   38MOL    C7114945   0.808   2.592   1.700  0.0357  0.5748  0.0395
   38MOL    H7214946   0.873   2.559   1.897 -1.9462  0.6316 -0.2007
   38MOL    H7314947   0.898   2.310   1.629 -0.3823 -1.6094 -0.0350
   38MOL    H7414948   0.776   2.080   1.637  1.0133 -0.0485  0.1705
   38MOL    H7514949   0.467   2.022   1.956 -0.8783 -1.0284  0.4947
   38MOL    H7614950   0.602   1.948   2.034  0.8745  1.2063 -0.2488
   38MOL    H7714951   0.500   1.859   1.921  0.2608  0.5783 -2.5224
   38MOL    H7814952   0.622   2.186   2.024  1.2132  1.2353  1.1028
   38MOL    H7914953   0.728   2.411   2.009  0.4913  2.2451 -1.0633
   38MOL    H8014954   0.866   2.680   1.674 -0.3234  0.8226  0.0709
   38MOL    H8114955   0.800   2.535   1.607  0.8750 -0.1301  0.3962
   38MOL    C8214956   0.663   2.635   1.753  0.3830 -0.3915  0.1087
   38MOL    C8314957   0.651   2.788   1.732 -1.0848  0.4762 -0.3007
   38MOL    C8414958   0.633   2.867   1.850 -0.5874 -0.8961 -0.6347
   38MOL    C8514959   0.624   3.011   1.837 -0.6062  0.2233  0.1644
   38MOL    C8614960   0.626   3.065   1.700  0.3233  0.4735 -0.0849
   38MOL    O8714961   0.628   3.200   1.697 -0.1365  0.1303  0.6076
   38MOL    C8814962   0.600   3.259   1.575 -0.0455  0.6544  0.7251
   38MOL    C8914963   0.654   2.983   1.589 -0.3509 -0.0647 -0.3587
   38MOL    C9014964   0.660   2.847   1.603 -0.3686  0.5866 -0.1435
   38MOL    C9114965   0.555   2.547   1.690 -0.4271 -0.5423  0.1836
   38MOL    H9214966   0.662   2.607   1.859  1.2062  1.5413  0.6653
   38MOL    H9314967   0.628   2.837   1.954 -0.5921 -0.1898 -0.4220
   38MOL    H9414968   0.606   3.087   1.912 -0.2183 -0.6063  1.1236
   38MOL    H9514969   0.690   3.253   1.514  1.0053  0.9922  2.2013
   38MOL    H9614970   0.566   3.362   1.589 -0.7592  0.5486 -0.1852
   38MOL    H9714971   0.528   3.196   1.522  2.1864 -0.7716 -0.6653
   38MOL    H9814972   0.662   3.029   1.491  1.8381  3.2420  1.2875
   38MOL    H9914973   0.671   2.794   1.510  2.4944 -0.8350  0.9368
   38MOL   H10014974   0.566   2.543   1.581  0.0446 -1.4492  0.2559
   38MOL   H10114975   0.570   2.447   1.731  1.8799 -0.0821  0.5499
   38MOL   C10214976   0.406   2.583   1.722  0.2482 -0.0971 -0.5755
   38MOL   C10314977   0.360   2.712   1.657 -0.4721 -0.7770  0.2564
   38MOL   C10414978   0.318   2.821   1.734  0.8275 -0.2614  0.1153
   38MOL   C10514979   0.271   2.938   1.670  0.0583  0.7839 -0.7305
   38MOL   C10614980   0.270   2.950   1.528  0.0330 -0.0433 -0.5943
   38MOL   O10714981   0.226   3.065   1.474  0.7828  0.0042 -0.8537
   38MOL   C10814982   0.212   3.074   1.330 -0.2007 -0.6975 -0.6628
   38MOL   C10914983   0.306   2.837   1.457 -0.7072 -0.0845  0.0014
   38MOL   C11014984   0.340   2.717   1.519 -0.3964  0.2639  0.6580
   38MOL   C11114985   0.315   2.463   1.682 -0.0705  0.8951  0.0892
   38MOL   H11214986   0.408   2.606   1.829 -0.8961 -1.9882 -0.1249
   38MOL   H11314987   0.307   2.811   1.841 -0.8659 -1.9928 -0.1937
   38MOL   H11414988   0.238   3.024   1.727  0.6412  1.0975 -0.8665
   38MOL   H11514989   0.130   3.007   1.303 -0.6291 -0.7840  0.8128
   38MOL   H11614990   0.196   3.176   1.296  1.8684 -0.3994 -0.7584
   38MOL   H11714991   0.291   3.023   1.275 -0.5533 -1.0133 -0.8821
   38MOL   H11814992   0.311   2.828   1.350  1.4724  0.9463 -0.0195
   38MOL   H11914993   0.369   2.629   1.463 -1.1875  1.8091 -2.2905
   38MOL   H12014994   0.215   2.494   1.652 -0.1117 -1.0896 -1.9103
   38MOL   H12114995   0.368   2.412   1.602  4.1707  1.3681  2.4430
   38MOL   C12214996   0.283   2.363   1.799 -0.1704 -0.2408  0.1754
   38MOL   C12314997   0.229   2.231   1.739 -0.3751  0.0048  0.7617
   38MOL   C12414998   0.313   2.118   1.722  0.5465 -1.0382 -0.1223
   38MOL   C12514999   0.269   2.000   1.655  0.5386  0.3165 -0.1759
   38MOL   C12615000   0.144   2.001   1.593 -0.2646 -0.2043  0.7927
   38MOL   O12715001   0.089   1.895   1.521 -0.2379  0.3667  0.1350
   38MOL   C12815002   0.172   1.800   1.477 -0.4741 -0.4404  0.7916
   38MOL   C12915003   0.056   2.105   1.624  0.5163 -0.4401 -0.2794
   38MOL   C13015004   0.096   2.219   1.688  0.6838  0.6939 -0.8929
   38MOL   C13115005   0.188   2.422   1.906  0.0804 -0.2700 -0.3003
   38MOL   H13215006   0.371   2.329   1.852 -0.1067  2.7948  2.1757
   38MOL   H13315007   0.411   2.111   1.766  0.7877 -1.4050 -0.7185
   38MOL   H13415008   0.333   1.913   1.657 -0.4393 -0.3888  0.8507
   38MOL   H13515009   0.270   1.828   1.436 -0.4515  0.7167  1.5990
   38MOL   H13615010   0.201   1.737   1.561 -0.1467 -0.7649  0.4357
   38MOL   H13715011   0.129   1.736   1.400 -0.9971  0.8911 -0.0324
   38MOL   H13815012   7.999   2.108   1.576  1.3140  2.0194 -1.8435
   38MOL   H13915013   0.024   2.298   1.708 -1.8067 -1.7602  0.1896
   38MOL   H14015014   0.097   2.454   1.854  0.3949  0.6025 -0.3294
   38MOL   H14115015   0.241   2.508   1.947  0.2678  0.6647 -2.4426
   38MOL   C14215016   0.150   2.337   2.031 -0.2132 -0.6128 -0.8827
   38MOL   C14315017   0.269   2.287   2.119 -0.6632  0.0036  0.0909
   38MOL   C14415018   0.366   2.379   2.159 -0.2646  0.1142 -0.1862
   38MOL   C14515019   0.466   2.345   2.250 -0.4266  0.4306 -0.5197
   38MOL   C14615020   0.478   2.208   2.293 -0.3161  0.3344 -0.2551
   38MOL   O14715021   0.578   2.188   2.384 -0.5620  0.4822  0.2359
   38MOL   C14815022   0.560   2.083   2.482 -0.0876 -0.0553 -0.1443
   38MOL   C14915023   0.388   2.107   2.244 -0.3755 -0.1154 -0.1009
   38MOL   C15015024   0.281   2.152   2.159 -0.1616  0.3488 -0.5796
   38MOL   C15115025   0.044   2.401   2.128 -0.4294 -0.4282 -0.4323
   38MOL   H15215026   0.118   2.239   1.994  0.4486 -1.3845  0.5790
   38MOL   H15315027   0.359   2.486   2.148 -0.3842  0.2343  0.9801
   38MOL   H15415028   0.535   2.420   2.287 -0.6865  1.0861 -1.3424
   38MOL   H15515029   0.457   2.084   2.519  1.0200  0.0497  3.0284
   38MOL   H15615030   0.593   1.986   2.444  5.3527  1.8745 -0.7160
   38MOL   H15715031   0.629   2.095   2.565  0.0135  0.6589 -0.3278
   38MOL   H15815032   0.388   2.006   2.283  0.3181 -0.5858 -1.3059
   38MOL   H15915033   0.213   2.075   2.126  2.1736 -2.3880  0.7114
   38MOL   H16015034   0.054   2.348   2.222 -0.9907  0.3558  0.0720
   38MOL   H16115035   7.992   2.356   2.090  0.7634 -1.4420 -2.1813
   38MOL   C16215036   0.035   2.553   2.156  0.6263  0.4792 -0.5688
   38MOL   C16315037   0.160   2.612   2.213 -0.4088  0.4944  0.1014
   38MOL   C16415038   0.236   2.693   2.128 -0.9443  0.1576  0.1629
   38MOL   C16515039   0.359   2.746   2.170 -0.1312 -0.1867  0.2027
   38MOL   C16615040   0.405   2.720   2.304  0.2460 -0.1101  0.1752
   38MOL   O16715041   0.520   2.779   2.355  0.0237 -0.0574  0.2215
   38MOL   C16815042   0.611   2.840   2.254  0.1721  0.4231  0.0764
   38MOL   C16915043   0.322   2.651   2.392  0.0521  0.5813 -0.4928
   38MOL   C17015044   0.203   2.597   2.346 -0.1226 -0.5328  0.2881
   38MOL   C17115045   7.943   2.580   2.235  0.3055 -0.0666  0.7176
   38MOL   H17215046   0.012   2.606   2.063 -1.2760  0.6821 -0.0208
   38MOL   H17315047   0.207   2.706   2.025 -0.1120  0.3241 -0.0543
   38MOL   H17415048   0.419   2.803   2.101  0.0838 -0.1861  0.3875
   38MOL   H17515049   0.559   2.916   2.196  0.0488  0.8888  0.7817
   38MOL   H17615050   0.661   2.777   2.181 -1.1506  1.7742 -2.0810
   38MOL   H17715051   0.691   2.898   2.300 -0.6215 -0.0223  2.0642
   38MOL   H17815052   0.341   2.636   2.497 -0.0785 -0.5179 -0.6250
   38MOL   H17915053   0.140   2.536   2.408 -2.3639 -0.5676 -1.9227
   38MOL   H18015054   7.946   2.512   2.320  1.9706  0.8799  1.4236
   38MOL   H18115055   7.859   2.543   2.175  1.4653  0.1273 -1.0786
   38MOL   C18215056   7.922   2.721   2.285  0.3012  0.3206 -0.5555
   38MOL   C18315057   7.795   2.722   2.376 -0.4534  0.7257  0.5276
   38MOL   C18415058   7.805   2.696   2.511 -0.1213  0.5343 -0.3500
   38MOL   C18515059   7.690   2.679   2.593 -0.1059 -0.3895 -0.4811
   38MOL   C18615060   7.561   2.695   2.538  0.4033  0.1984  0.4777
   38MOL   O18715061   7.445   2.678   2.609 -0.4083 -0.3409 -0.6604
   38MOL   C18815062   7.448   2.734   2.743  0.1727 -0.1249  0.2513
   38MOL   C18915063   7.551   2.730   2.399  0.1869 -0.5094 -0.1738
   38MOL   C19015064   7.668   2.748   2.323  0.3185  0.2593  0.3505
   38MOL   C19115065   7.916   2.832   2.173 -0.4129  0.5662  0.0619
   38MOL   H19215066   8.007   2.742   2.350  0.5774  0.6369 -1.0162
   38MOL   H19315067   7.901   2.675   2.557 -1.2803  1.0501  2.4194
   38MOL   H19415068   7.699   2.653   2.698  0.4611 -1.7146 -0.8529
   38MOL   H19515069   7.456   2.655   2.818 -0.5664 -0.8049 -0.3721
   38MOL   H19615070   7.354   2.787   2.756  1.0488  1.4763  0.1628
   38MOL   H19715071   7.530   2.805   2.747  2.3938 -2.6750  1.2999
   38MOL   H19815072   7.453   2.739   2.353  0.0701 -0.3132  0.1089
   38MOL   H19915073   7.662   2.786   2.222  0.1428 -0.2452  0.1718
   38MOL   H20015074   7.975   2.812   2.084 -1.3508  2.6951 -1.0680
   38MOL   H20115075   7.820   2.843   2.121  0.1460 -0.1234 -1.1425
   38MOL   C20215076   7.971   2.971   2.228  0.6320  0.6819  0.2638
   38MOL   C20315077   7.926   3.082   2.130 -0.4470 -0.5274  0.7573
   38MOL   C20415078   8.011   3.158   2.044 -0.1895 -0.2808  0.2040
   38MOL   C20515079   7.969   3.258   1.956  0.0264 -0.4284 -0.2967
   38MOL   C20615080   7.836   3.299   1.959 -0.0778 -0.0184  0.4072
   38MOL   O20715081   7.775   3.396   1.886 -0.1564 -0.0611  0.5659
   38MOL   C20815082   7.861   3.470   1.800  0.2267 -0.3265 -0.3488
   38MOL   C20915083   7.749   3.227   2.043  0.0611  0.5707  0.0598
   38MOL   C21015084   7.789   3.118   2.126 -0.3057  0.1286  0.2635
   38MOL   C21115085   0.081   2.968   2.258 -0.1680 -0.0071 -0.9644
   38MOL   H21215086   7.897   2.980   2.308  0.2483 -0.6648  0.0738
   38MOL   H21315087   0.077   3.138   2.051  0.3793  1.2909 -3.0304
   38MOL   H21415088   0.002   3.305   1.891  1.0381 -0.1281  1.0105
   38MOL   H21515089   7.810   3.524   1.719 -0.2561 -0.5265 -0.1832
   38MOL   H21615090   7.926   3.540   1.852  0.1100 -1.3859  1.2393
   38MOL   H21715091   7.924   3.404   1.741  0.5536 -0.9977  0.7333
   38MOL   H21815092   7.646   3.258   2.050 -0.0674  0.3357 -0.6795
   38MOL   H21915093   7.718   3.076   2.196  1.3248  0.3407  2.0728
   38MOL   H22015094   0.121   2.957   2.157 -0.1567 -1.0202 -0.8503
   38MOL   H22115095   0.108   2.878   2.313 -2.0713 -0.5882 -0.9485
   38MOL   C22215096   0.130   3.079   2.342 -0.0784  0.0421 -0.3649
   38MOL   C22315097   0.065   3.078   2.480  0.0666  0.3429  0.1554
   38MOL   C22415098   0.071   2.963   2.568  0.4017  0.2885 -0.6451
   38MOL   C22515099   0.011   2.970   2.696 -0.5167  0.1657  0.6485
   38MOL   C22615100   7.993   3.089   2.746 -0.2508 -0.0314 -0.4717
   38MOL   O22715101   7.951   3.087   2.876 -0.2050  0.8081  0.2353
   38MOL   C22815102   7.933   3.210   2.933 -1.0056 -0.4498  0.2570
   38MOL   C22915103   7.992   3.200   2.664 -0.6322 -0.2172  0.6665
   38MOL   C23015104   0.005   3.200   2.532  0.0616  0.2289  0.1508
   38MOL   C23115105   0.282   3.083   2.350  0.1337  0.1221 -0.1266
   38MOL   H23215106   0.108   3.172   2.290 -2.0962 -1.7093 -2.7692
   38MOL   H23315107   0.119   2.869   2.543  0.6427 -0.0133  0.9024
   38MOL   H23415108   0.011   2.889   2.768 -1.0954 -0.3771  0.0434
   38MOL   H23515109   7.924   3.186   3.039  0.8352  1.4059  0.8399
   38MOL   H23615110   8.014   3.282   2.924 -0.8926 -0.3604  1.7865
   38MOL   H23715111   7.843   3.259   2.896  0.6809  2.9408  0.5197
   38MOL   H23815112   7.954   3.296   2.697 -1.7414 -0.5886  0.5157
   38MOL   H23915113   8.039   3.295   2.480  1.4297 -0.7876 -1.9053
   38MOL   H24015114   0.318   2.994   2.400  1.4278  0.7980  0.1519
   38MOL   H24115115   0.315   3.071   2.247  0.0138 -1.2917 -0.0120
   38MOL   C24215116   0.352   3.206   2.417 -0.1916  0.2904 -0.0244
   38MOL   C24315117   0.487   3.158   2.475 -0.6571 -0.5145  0.7835
   38MOL   C24415118   0.602   3.167   2.400  0.5925  0.2173 -0.4908
   38MOL   C24515119   0.724   3.110   2.449  0.3208  0.6090 -0.5394
   38MOL   C24615120   0.734   3.052   2.577  0.9411 -0.6383  0.2711
   38MOL   O24715121   0.859   3.020   2.630  0.0259  0.2456 -0.0714
   38MOL   C24815122   0.863   2.939   2.747 -0.4127  0.4180  0.3937
   38MOL   C24915123   0.614   3.031   2.642 -0.4310  0.3210 -0.1553
   38MOL   C25015124   0.492   3.073   2.591  0.2923  0.2522  0.4977
   38MOL   C25115125   0.350   3.335   2.334  0.6780  0.2165  0.3411
   38MOL   H25215126   0.297   3.222   2.510 -0.4018 -0.2962 -0.0469
   38MOL   H25315127   0.602   3.228   2.310  0.4979  0.6525 -0.1999
   38MOL   H25415128   0.813   3.112   2.388  0.8716 -1.6625  0.1499
   38MOL   H25515129   0.801   2.993   2.818  0.5237  0.4649  1.1886
   38MOL   H25615130   0.816   2.842   2.727 -0.3011  0.2827  0.7751
   38MOL   H25715131   0.964   2.921   2.782 -0.4358  3.6826  2.2626
   38MOL   H25815132   0.608   2.993   2.743 -1.2760 -0.1469 -0.3770
   38MOL   H25915133   0.400   3.064   2.647  0.2230 -1.4650  0.1304
   38MOL   H26015134   0.254   3.343   2.285 -0.4840 -2.3481  2.0929
   38MOL   H26115135   0.411   3.315   2.246  2.0892  0.5039  1.2407
   38MOL   C26215136   0.397   3.471   2.404 -0.1360 -0.2405  0.2142
   38MOL   C26315137   0.308   3.498   2.527  0.0335  0.2089  0.0252
   38MOL   C26415138   0.174   3.522   2.509  0.4651 -0.6182  0.1185
   38MOL   C26515139   0.085   3.544   2.617 -0.1599 -0.1892  0.4486
   38MOL   C26615140   0.138   3.551   2.752  0.0796  0.7932  0.4190
   38MOL   O26715141   0.051   3.570   2.854  0.6033 -0.6419  0.4549
   38MOL   C26815142   0.094   3.535   2.984 -0.4784  0.5873 -0.6013
   38MOL   C26915143   0.280   3.530   2.768 -0.3343 -0.5341  0.7139
   38MOL   C27015144   0.362   3.502   2.657  0.3357 -0.1925 -0.5111
   38MOL   C27115145   0.418   3.586   2.296  0.0731 -0.1095  0.7019
   38MOL   H27215146   0.500   3.459   2.439 -0.0133 -1.0728 -0.4079
   38MOL   H27315147   0.129   3.518   2.411 -0.7488 -0.6329  0.6632
   38MOL   H27415148   8.020   3.555   2.594  0.5909 -0.7297 -3.5241
   38MOL   H27515149   0.175   3.591   3.031  1.0027 -2.2390  0.3812
   38MOL   H27615150   0.127   3.431   2.996  2.1257  1.5189  0.7482
   38MOL   H27715151   8.037   3.548   3.033 -0.3158  0.4816 -0.2500
   38MOL   H27815152   0.330   3.523   2.864  0.5250 -0.6046  0.2709
   38MOL   H27915153   0.467   3.477   2.660  0.2499 -0.3811  1.5768
   38MOL   H28015154   0.499   3.568   2.225 -0.1847 -1.5866  0.7620
   38MOL   H28115155   0.323   3.583   2.243 -0.0186  0.4681  0.8292
   38MOL   C28215156   0.446   3.727   2.354  0.2879 -0.7985  0.1989
   38MOL   C28315157   0.341   3.830   2.307  0.5283 -0.0037 -0.0223
   38MOL   C28415158   0.231   3.846   2.398 -0.0447 -0.0489 -0.0484
   38MOL   C28515159   0.122   3.924   2.359 -0.1181 -0.5532 -0.1139
   38MOL   C28615160   0.118   3.983   2.232  0.6362  0.2668  0.0110
   38MOL   O28715161   0.017   4.069   2.197  0.1860  0.0764  0.7108
   38MOL   C28815162   8.024   4.090   2.062 -0.5174 -0.3783 -0.4888
   38MOL   C28915163   0.222   3.960   2.140 -0.5655  0.3714 -0.4800
   38MOL   C29015164   0.336   3.884   2.176  0.1983  0.1657  0.4523
   38MOL   C29115165   0.586   3.780   2.328  0.3701  0.5438  0.0969
   38MOL   H29215166   0.435   3.725   2.463 -2.0600  1.8040  0.0526
   38MOL   H29315167   0.236   3.796   2.494 -0.9218 -1.3585 -0.6756
   38MOL   H29415168   0.035   3.932   2.424  0.2557  1.9387  0.1106
   38MOL   H29515169   7.919   4.118   2.052 -0.8120 -1.0068  0.6533
   38MOL   H29615170   0.045   4.167   2.015  1.9936 -2.2199 -0.3937
   38MOL   H29715171   0.001   3.999   2.004 -0.7105 -0.8009  0.0976
   38MOL   H29815172   0.224   4.012   2.045 -1.6237  0.2376 -0.5928
   38MOL   H29915173   0.413   3.858   2.105 -0.3950  0.3557 -0.2646
   38MOL   H30015174   0.605   3.803   2.223  2.0892 -0.8565  0.0721
   38MOL   H30115175   0.590   3.883   2.363 -0.1663  0.6143 -0.0528
   38MOL   C30215176   0.702   3.713   2.403 -0.4434 -0.0521  0.0569
   38MOL   C30315177   0.780   3.630   2.296  0.4390  1.2586 -0.0326
   38MOL   C30415178   0.756   3.488   2.285 -0.1674 -0.3665 -0.4337
   38MOL   C30515179   0.834   3.409   2.199 -0.1781  0.3515  0.3443
   38MOL   C30615180   0.941   3.461   2.127  0.3070 -0.3820  0.9575
   38MOL   O30715181   1.007   3.378   2.038 -0.2609  0.2219  0.0455
   38MOL   C30815182   1.052   3.440   1.915  0.3528 -0.7601 -0.7260
   38MOL   C30915183   0.962   3.598   2.132 -0.0987  0.7732  0.0322
   38MOL   C31015184   0.885   3.681   2.217 -0.4699  0.1770  0.1817
   38MOL   C31115185   0.800   3.808   2.488 -0.1439  0.7221 -0.0887
   38MOL   H31215186   0.659   3.633   2.463  1.1120  0.0417  1.3239
   38MOL   H31315187   0.684   3.439   2.348  0.3285 -0.2784  0.2065
   38MOL   H31415188   0.818   3.303   2.201  2.0032 -0.0221  0.0695
   38MOL   H31515189   1.088   3.357   1.854 -1.6477 -1.1577 -1.4118
   38MOL   H31615190   1.127   3.519   1.918 -1.3841  0.9549 -1.2030
   38MOL   H31715191   0.965   3.482   1.864  1.0649  0.3651 -1.0513
   38MOL   H31815192   1.047   3.642   2.080 -1.1237  0.3049 -2.1041
   38MOL   H31915193   0.901   3.788   2.220  0.5800  0.0072  0.9392
   38MOL   H32015194   0.740   3.873   2.551 -0.9315 -2.6707  2.8618
   38MOL   H32115195   0.855   3.881   2.429  2.6479 -1.4482 -0.2932
   38MOL   C32215196   0.890   3.726   2.587 -0.1675 -0.3207 -0.6943
   38MOL   C32315197   0.810   3.635   2.676  0.3859 -0.0922  0.2208
   38MOL   C32415198   0.799   3.499   2.640 -0.3018 -0.4111 -0.1014
   38MOL   C32515199   0.740   3.414   2.738  0.0085  0.5007 -0.2635
   38MOL   C32615200   0.669   3.469   2.850  0.2628  0.3797 -0.0540
   38MOL   O32715201   0.609   3.397   2.949 -0.8396  0.1322 -0.1094
   38MOL   C32815202   0.593   3.265   2.921 -0.0251 -0.5014  0.1249
   38MOL   C32915203   0.673   3.605   2.879  0.6496  0.1107  0.0661
   38MOL   C33015204   0.738   3.689   2.790 -0.1897  0.1736 -0.6741
   38MOL   C33115205   0.987   3.811   2.670  0.3943 -0.5485  0.7254
   38MOL   H33215206   0.950   3.658   2.528  0.9560 -0.4906  0.6233
   38MOL   H33315207   0.848   3.446   2.560  0.5611 -4.4852  2.9460
   38MOL   H33415208   0.749   3.307   2.722  0.6213  0.8225 -2.1063
   38MOL   H33515209   0.537   3.255   2.828 -0.0404 -0.4062  0.1243
   38MOL   H33615210   0.544   3.192   2.986  0.6095 -1.6814 -0.6824
   38MOL   H33715211   0.689   3.218   2.897  0.4281  0.4192  0.1186
   38MOL   H33815212   0.612   3.643   2.961 -0.8504 -2.4668  0.2056
   38MOL   H33915213   0.735   3.795   2.812 -0.7802 -0.3649  2.0188
   38MOL   H34015214   0.931   3.881   2.731 -2.0432 -1.3540 -0.5182
   38MOL   H34115215   1.031   3.747   2.746 -0.3317 -0.3271  1.3410
   38MOL   C34215216   1.094   3.880   2.590  0.5185  0.5110  0.4258
   38MOL   C34315217   1.168   3.779   2.495 -0.0119 -0.6419  0.7836
   38MOL   C34415218   1.210   3.649   2.544 -0.0835 -0.2253 -0.4193
   38MOL   C34515219   1.287   3.559   2.467 -0.5309 -0.2376  0.1381
   38MOL   C34615220   1.320   3.595   2.333 -0.0870  0.8619  0.3061
   38MOL   O34715221   1.389   3.499   2.266  0.0478 -0.2926  0.1857
   38MOL   C34815222   1.436   3.534   2.135  0.1577 -0.0506  0.4870
   38MOL   C34915223   1.276   3.718   2.283 -0.0219  0.6826 -0.0856
   38MOL   C35015224   1.203   3.814   2.367 -0.5745  0.5556  0.8045
   38MOL   C35115225   1.196   3.953   2.687 -0.2526 -0.0526  0.2160
   38MOL   H35215226   1.055   3.956   2.522  0.8711 -1.8616 -2.5322
   38MOL   H35315227   1.174   3.616   2.640  0.2907  1.1379  0.1968
   38MOL   H35415228   1.321   3.470   2.517  0.3147  0.5050  0.9240
   38MOL   H35515229   1.505   3.618   2.126  0.6591 -0.3550  1.3143
   38MOL   H35615230   1.490   3.446   2.098 -1.0296 -0.5189 -0.1406
   38MOL   H35715231   1.345   3.538   2.077 -0.2401 -2.2675  0.8975
   38MOL   H35815232   1.298   3.747   2.181 -2.9100  0.9565 -0.6660
   38MOL   H35915233   1.170   3.908   2.324 -1.0155 -0.5284 -1.3384
   38MOL   H36015234   1.132   3.985   2.770 -0.0567 -2.8269  1.4994
   38MOL   H36115235   1.250   3.873   2.738  1.3926  1.1072  0.3439
   38MOL   C36215236   1.311   4.033   2.621  1.0355 -0.1103  0.3529
   38MOL   C36315237   1.418   4.076   2.723  0.5312  0.0419 -0.2608
   38MOL   C36415238   1.546   4.127   2.692 -0.3865 -0.1368 -0.3240
   38MOL   C36515239   1.646   4.150   2.794 -0.0636 -0.0126 -0.0991
   38MOL   C36615240   1.616   4.128   2.926 -0.6774  0.0121 -0.1834
   38MOL   O36715241   1.717   4.160   3.018  0.5104 -0.4099 -0.1994
   38MOL   C36815242   1.681   4.152   3.150 -0.4271  0.1378 -0.4522
   38MOL   C36915243   1.487   4.085   2.962 -0.7410 -0.5026 -0.3135
   38MOL   C37015244   1.392   4.058   2.859  0.4389  0.5709 -0.1756
   38MOL   C37115245   1.272   4.147   2.530  0.0097 -0.3871  0.6838
   38MOL   H37215246   1.355   3.964   2.549 -1.4533 -0.3116 -1.0059
   38MOL   H37315247   1.583   4.137   2.591  0.8513  1.2535  0.2530
   38MOL   H37415248   1.740   4.193   2.764  0.1886 -0.6326 -0.2004
   38MOL   H37515249   1.598   4.218   3.177  0.7633  2.2267 -1.7380
   38MOL   H37615250   1.660   4.056   3.196 -2.2983  0.8547  0.2596
   38MOL   H37715251   1.764   4.192   3.208 -1.4624  1.6229  0.0300
   38MOL   H37815252   1.462   4.069   3.066  0.9469  0.3675  0.2393
   38MOL   H37915253   1.298   4.028   2.902  0.5406  0.5272  0.0192
   38MOL   H38015254   1.357   4.206   2.496  0.2137 -0.8147  0.4586
   38MOL   H38115255   1.232   4.102   2.439 -1.5415  0.5848  0.8661
   38MOL   C38215256   1.157   4.236   2.590 -0.5941 -1.3797 -0.1369
   38MOL   C38315257   1.116   4.346   2.490  0.0508 -0.2124  0.2068
   38MOL   C38415258   0.993   4.321   2.422  0.0400  0.4177 -0.0997
   38MOL   C38515259   0.943   4.419   2.330 -0.0724  0.0470 -0.1284
   38MOL   C38615260   1.014   4.537   2.309 -0.4281 -0.0675 -0.4974
   38MOL   O38715261   0.942   4.628   2.240  0.9675 -0.7819 -0.2400
   38MOL   C38815262   1.015   4.729   2.169  0.1250 -0.5349 -0.0507
   38MOL   C38915263   1.143   4.553   2.372 -0.4123 -0.8560  0.3852
   38MOL   C39015264   1.190   4.459   2.462  0.0220 -0.0852  0.1156
   38MOL   C39115265   1.209   4.303   2.719 -0.0957 -0.6259 -0.6967
   38MOL   H39215266   1.066   4.181   2.613 -2.6701  2.1010  0.4777
   38MOL   H39315267   0.926   4.240   2.444  0.1196 -0.0773 -1.5998
   38MOL   H39415268   0.843   4.422   2.291 -0.3677  2.7558  0.7425
   38MOL   H39515269   0.939   4.787   2.117 -1.2868 -0.6374  1.8488
   38MOL   H39615270   1.065   4.669   2.093  2.6325  1.4962 -0.0556
   38MOL   H39715271   1.088   4.791   2.220  1.3912 -1.4644 -0.7074
   38MOL   H39815272   1.194   4.648   2.366  0.7951 -1.5512 -0.5389
   38MOL   H39915273   1.276   4.476   2.526 -2.3797 -0.5957  3.6529
   38MOL   H40015274   1.145   4.388   2.745 -1.5643 -1.8585 -0.1967
   38MOL   H40115275   1.307   4.342   2.694 -0.3352  1.3183  1.1950
   38MOL   H40215276   1.216   4.238   2.807  1.8648 -1.6001 -1.5426
   39MOL     C115277   3.397   6.055   0.734  0.0702 -0.1992 -0.7995
   39MOL     C215278   3.300   6.006   0.837  0.0160  0.3936 -0.3459
   39MOL     C315279   3.328   5.898   0.925 -0.3072 -0.1382 -0.3248
   39MOL     C415280   3.233   5.869   1.030  0.1609  0.6603  0.4493
   39MOL     C515281   3.111   5.935   1.040  0.2212  0.8498  1.0060
   39MOL     O615282   3.014   5.907   1.134 -0.2123 -0.5813  0.8401
   39MOL     C715283   3.044   5.836   1.244  0.3203  0.7283 -0.0957
   39MOL     C815284   3.078   6.025   0.937 -0.6372  0.5719  0.3024
   39MOL     C915285   3.177   6.064   0.846  0.0446 -0.7353 -1.2992
   39MOL    C1015286   3.501   6.148   0.807  0.6480 -0.0768  0.2441
   39MOL    H1115287   3.360   6.123   0.657 -1.2828  2.6583  2.2185
   39MOL    H1215288   3.418   5.838   0.915 -1.1014 -1.4614  0.4218
   39MOL    H1315289   3.260   5.787   1.095  1.2190  0.7697  0.1601
   39MOL    H1415290   2.973   5.858   1.324  1.5611 -0.0134  1.2182
   39MOL    H1515291   3.038   5.732   1.214  1.0175  0.3036  1.2095
   39MOL    H1615292   3.147   5.857   1.270  0.6652  0.1831 -1.0035
   39MOL    H1715293   2.987   6.080   0.959 -1.2900  0.1631 -1.3078
   39MOL    H1815294   3.151   6.148   0.783 -1.3419 -0.3310 -0.2243
   39MOL    H1915295   3.457   6.238   0.849 -0.9052 -1.3228  1.3413
   39MOL    H2015296   3.551   6.099   0.891  1.1810 -0.2497 -0.1739
   39MOL    H2115297   3.449   5.971   0.688  1.4134  0.8516 -1.2389
   39MOL    C2215298   3.619   6.192   0.715  0.0056 -0.4444 -0.8116
   39MOL    C2315299   3.692   6.319   0.761  0.5143  0.7442 -1.1457
   39MOL    C2415300   3.747   6.326   0.894  0.6166 -0.2951  0.0939
   39MOL    C2515301   3.835   6.430   0.930 -0.1670 -0.6140 -0.8969
   39MOL    C2615302   3.881   6.519   0.833 -0.4161  0.0796  0.1799
   39MOL    O2715303   3.986   6.606   0.852  0.1455 -0.4659  0.8544
   39MOL    C2815304   4.070   6.586   0.969 -0.0244 -0.6143  0.9691
   39MOL    C2915305   3.816   6.524   0.707 -0.0242  0.4623 -0.3472
   39MOL    C3015306   3.724   6.422   0.668  0.1938  1.1750 -0.6087
   39MOL    C3115307   3.720   6.073   0.690 -0.0529  0.1902  0.1473
   39MOL    H3215308   3.569   6.212   0.620 -1.8237  1.1081  0.4595
   39MOL    H3315309   3.721   6.251   0.967  0.6651  0.2922  0.7315
   39MOL    H3415310   3.876   6.433   1.030  1.6980  1.7432 -1.6714
   39MOL    H3515311   4.146   6.663   0.961  1.0956 -1.7693  0.2330
   39MOL    H3615312   4.117   6.488   0.978  3.0536  0.8506  1.3445
   39MOL    H3715313   4.025   6.592   1.068  0.3667 -0.7062  1.1506
   39MOL    H3815314   3.843   6.582   0.621 -2.0786 -1.4258 -2.3200
   39MOL    H3915315   3.700   6.408   0.564  1.6241 -1.3270 -0.6404
   39MOL    H4015316   3.746   6.029   0.787 -2.9186 -0.5595  0.6287
   39MOL    H4115317   3.675   5.988   0.640  1.7886  0.4433 -2.0279
   39MOL    C4215318   3.861   6.092   0.617 -0.5117  0.1501  0.1321
   39MOL    C4315319   3.840   6.171   0.492  0.3975  1.2874  0.3934
   39MOL    C4415320   3.944   6.255   0.447 -0.4502 -0.5191 -0.5837
   39MOL    C4515321   3.925   6.339   0.332  0.2969  0.0550 -0.3659
   39MOL    C4615322   3.809   6.331   0.247  0.9963 -0.3233 -0.2059
   39MOL    O4715323   3.785   6.409   0.135 -0.0867  0.3653 -0.0328
   39MOL    C4815324   3.901   6.487   0.088 -1.0891  0.0966  0.1102
   39MOL    C4915325   3.716   6.236   0.290 -1.0830  0.6780  0.2676
   39MOL    C5015326   3.727   6.162   0.408 -0.2519  0.0167  0.0850
   39MOL    C5115327   3.950   5.969   0.589 -0.3002  0.4682 -0.8784
   39MOL    H5215328   3.910   6.164   0.682 -1.7370  1.4621 -0.3796
   39MOL    H5315329   4.036   6.268   0.502 -0.7871  0.2140 -0.1880
   39MOL    H5415330   4.010   6.400   0.302 -1.3279  2.7962  0.3787
   39MOL    H5515331   3.964   6.412   0.042 -0.1386  0.7936  0.2702
   39MOL    H5615332   3.861   6.563   0.021  2.0917 -1.0954 -3.2877
   39MOL    H5715333   3.954   6.537   0.169 -1.4341  0.2949  0.2139
   39MOL    H5815334   3.637   6.227   0.217 -2.0085 -0.9551  1.4179
   39MOL    H5915335   3.646   6.103   0.448  1.8895 -1.4679  2.3833
   39MOL    H6015336   4.045   5.994   0.542 -1.2273 -0.3965 -3.2488
   39MOL    H6115337   3.893   5.909   0.519  0.6886  0.9137 -2.0766
   39MOL    C6215338   3.988   5.890   0.723 -0.1397 -0.7547 -0.0450
   39MOL    C6315339   4.051   5.982   0.835 -0.9958 -0.3213  0.6439
   39MOL    C6415340   3.990   5.988   0.962 -0.1153 -0.0019  0.4669
   39MOL    C6515341   4.045   6.082   1.059 -0.0776 -0.2897 -0.0374
   39MOL    C6615342   4.152   6.165   1.024 -0.3737  0.6408 -0.0805
   39MOL    O6715343   4.205   6.259   1.114 -0.1973 -0.7149  0.1767
   39MOL    C6815344   4.116   6.315   1.206 -0.1783 -1.1588 -0.0345
   39MOL    C6915345   4.217   6.152   0.895  0.7741  0.7772  0.1956
   39MOL    C7015346   4.167   6.062   0.795 -0.1266 -0.7113 -0.2111
   39MOL    C7115347   4.068   5.761   0.694  0.2833  0.4500 -0.2974
   39MOL    H7215348   3.892   5.855   0.762  0.1585  0.0005  1.4123
   39MOL    H7315349   3.903   5.926   0.975 -0.1289 -0.5138 -1.8788
   39MOL    H7415350   3.993   6.081   1.154  0.4279  3.5548  0.3500
   39MOL    H7515351   4.142   6.415   1.241 -2.2389 -0.9528  0.9697
   39MOL    H7615352   4.137   6.244   1.286  1.0462 -1.6933 -0.8000
   39MOL    H7715353   4.010   6.311   1.182 -0.1828  0.1695 -0.3079
   39MOL    H7815354   4.309   6.201   0.868  1.6500 -0.5964  0.6215
   39MOL    H7915355   4.225   6.055   0.704  1.4703 -1.4802  0.8418
   39MOL    H8015356   4.173   5.788   0.695  0.8092 -1.4382 -1.2071
   39MOL    H8115357   4.051   5.697   0.781 -1.9288 -2.2327 -2.5847
   39MOL    C8215358   4.018   5.658   0.583  0.0195  0.0656  0.1007
   39MOL    C8315359   4.061   5.709   0.445 -0.3463 -0.0347 -0.2737
   39MOL    C8415360   4.198   5.740   0.414  0.2344 -0.1110  0.3212
   39MOL    C8515361   4.231   5.782   0.285 -0.1586  0.4586 -0.1568
   39MOL    C8615362   4.133   5.793   0.181  0.1771 -0.0988 -1.0573
   39MOL    O8715363   4.154   5.830   0.046  0.5178  0.0224 -0.4313
   39MOL    C8815364   4.286   5.828   0.007  0.1295  0.6124  0.1761
   39MOL    C8915365   3.999   5.761   0.217 -0.4076  0.2986  0.1743
   39MOL    C9015366   3.965   5.718   0.346  0.3701  0.0244 -0.1556
   39MOL    C9115367   4.054   5.509   0.604  0.0339  0.4670  0.1124
   39MOL    H9215368   3.909   5.660   0.574 -0.2050 -1.6389  1.9873
   39MOL    H9315369   4.279   5.726   0.485  2.3188  1.9518 -1.5622
   39MOL    H9415370   4.337   5.796   0.269  0.1252 -2.4768 -1.1424
   39MOL    H9515371   4.349   5.904   0.053 -2.1573  2.9381 -0.3639
   39MOL    H9615372   4.291   5.839   7.938  0.7987  1.1640  0.2615
   39MOL    H9715373   4.333   5.732   0.024  0.3314  0.5576 -0.6746
   39MOL    H9815374   3.931   5.764   0.133 -1.2904 -0.2788  0.8597
   39MOL    H9915375   3.860   5.699   0.363  0.5825  0.6275  1.9723
   39MOL   H10015376   4.160   5.501   0.581  0.2891 -0.9679  1.6914
   39MOL   H10115377   4.048   5.475   0.708  0.7676 -1.7497 -0.5297
   39MOL   C10215378   3.976   5.413   0.512  0.0427  0.1902 -0.2320
   39MOL   C10315379   4.050   5.298   0.450 -0.3557 -0.5171 -0.4090
   39MOL   C10415380   4.078   5.171   0.515 -0.6573  0.1293  0.2716
   39MOL   C10515381   4.136   5.066   0.438 -0.1611  0.3349 -0.6960
   39MOL   C10615382   4.192   5.087   0.310  0.0439 -0.1167 -0.0413
   39MOL   O10715383   4.278   4.981   0.273 -0.4343  0.4219 -0.5401
   39MOL   C10815384   4.351   5.009   0.152 -0.8339 -0.0208 -0.4766
   39MOL   C10915385   4.176   5.221   0.249 -0.5260 -0.1667 -0.1203
   39MOL   C11015386   4.108   5.323   0.323  0.1838  0.0276  0.1258
   39MOL   C11115387   3.834   5.377   0.568 -0.4005 -0.0354 -0.4618
   39MOL   H11215388   3.948   5.462   0.419 -0.0910  2.5520  1.0312
   39MOL   H11315389   4.041   5.162   0.616 -1.1254 -0.2818  0.0665
   39MOL   H11415390   4.146   4.967   0.479 -0.2129  0.5422 -0.1798
   39MOL   H11515391   4.285   5.050   0.076 -0.7357 -2.8604 -2.1653
   39MOL   H11615392   4.421   5.088   0.178 -0.2469 -0.0510 -1.9097
   39MOL   H11715393   4.407   4.928   0.104  1.8595  1.1866  0.5454
   39MOL   H11815394   4.217   5.239   0.151 -1.9961 -1.7764 -1.0697
   39MOL   H11915395   4.105   5.419   0.272 -0.5762  0.1241  0.3508
   39MOL   H12015396   3.847   5.307   0.650 -0.7222 -0.9132 -1.1501
   39MOL   H12115397   3.787   5.469   0.601 -0.3057  0.1294 -0.7825
   39MOL   C12215398   3.747   5.289   0.469  0.1143  0.4695 -0.0457
   39MOL   C12315399   3.735   5.342   0.320  0.1109 -0.4210 -0.4228
   39MOL   C12415400   3.782   5.267   0.208  0.1509  0.2544 -0.6597
   39MOL   C12515401   3.805   5.332   0.085 -0.0398  0.4217  0.4778
   39MOL   C12615402   3.755   5.456   0.057 -0.0059  0.0144 -1.2460
   39MOL   O12715403   3.770   5.501   7.969 -0.0248  0.3479 -0.5266
   39MOL   C12815404   3.719   5.623   7.935  0.1239  0.3480  0.0691
   39MOL   C12915405   3.679   5.521   0.160  0.9099 -0.2134 -0.5136
   39MOL   C13015406   3.666   5.460   0.290  0.1983 -0.0218 -0.1291
   39MOL   C13115407   3.601   5.273   0.532  0.4611 -0.2869 -0.6050
   39MOL   H13215408   3.787   5.188   0.454 -1.2850 -0.3405  1.4706
   39MOL   H13315409   3.820   5.167   0.220  1.1575  0.4443 -2.2247
   39MOL   H13415410   3.856   5.282   0.004 -0.5566  0.6573 -0.0019
   39MOL   H13515411   3.769   5.649   7.843  1.5192  0.2474  0.7862
   39MOL   H13615412   3.612   5.619   7.915 -0.3484  0.1464  2.3942
   39MOL   H13715413   3.741   5.702   8.007  0.1154 -0.2663  0.7569
   39MOL   H13815414   3.618   5.606   0.134  3.2658  0.6720 -3.4334
   39MOL   H13915415   3.615   5.514   0.368  0.6526 -0.8136  0.7177
   39MOL   H14015416   3.527   5.239   0.459  0.7111  2.4228 -2.2231
   39MOL   H14115417   3.570   5.366   0.579 -1.5596 -0.9714 -0.5603
   39MOL   C14215418   3.593   5.165   0.641 -0.0868  0.1697  0.6728
   39MOL   C14315419   3.480   5.199   0.740 -0.3604 -0.0428 -0.2677
   39MOL   C14415420   3.512   5.230   0.877 -0.4603 -0.0910 -0.2950
   39MOL   C14515421   3.417   5.275   0.968  0.2259  0.3054 -0.5949
   39MOL   C14615422   3.287   5.294   0.922  0.2032  0.1722  0.0380
   39MOL   O14715423   3.193   5.337   1.014  0.0667 -0.4084  0.6816
   39MOL   C14815424   3.055   5.303   0.990  0.4134  0.3360 -0.0073
   39MOL   C14915425   3.254   5.276   0.788  0.2381  0.0672  0.4987
   39MOL   C15015426   3.351   5.230   0.699  0.0942  0.1034  0.4968
   39MOL   C15115427   3.586   5.022   0.588 -0.2633  0.0442 -0.2183
   39MOL   H15215428   3.682   5.176   0.703  0.7864  0.3135 -0.5812
   39MOL   H15315429   3.613   5.213   0.911  0.3102  0.0908 -2.4096
   39MOL   H15415430   3.442   5.304   1.069  0.7881 -0.2171 -0.5804
   39MOL   H15515431   3.010   5.379   0.926  2.9099 -0.0255 -2.2328
   39MOL   H15615432   3.048   5.203   0.949 -3.1074 -0.2308  1.7535
   39MOL   H15715433   3.007   5.316   1.088  0.2454  0.4526 -0.1053
   39MOL   H15815434   3.152   5.298   0.760  0.1692 -1.9031 -0.8558
   39MOL   H15915435   3.325   5.206   0.597  3.2314 -0.2481 -0.2507
   39MOL   H16015436   3.672   5.018   0.521 -0.8481 -0.2211 -0.9689
   39MOL   H16115437   3.494   5.017   0.530 -1.2529  0.4810  1.2959
   39MOL   C16215438   3.605   4.900   0.686 -0.5505 -0.2430 -0.6753
   39MOL   C16315439   3.749   4.906   0.748 -0.0384  0.1792 -0.1426
   39MOL   C16415440   3.865   4.875   0.670 -0.1111  0.4166  0.1397
   39MOL   C16515441   3.997   4.894   0.720 -0.4530 -0.3011  0.8746
   39MOL   C16615442   4.014   4.957   0.843 -1.1446  0.4527 -0.4792
   39MOL   O16715443   4.139   4.980   0.896  0.2269 -0.0298  0.2845
   39MOL   C16815444   4.243   4.996   0.805  0.6701  0.0079  0.0971
   39MOL   C16915445   3.901   5.000   0.920 -0.2302 -0.8768 -0.2071
   39MOL   C17015446   3.772   4.979   0.867 -0.0572 -0.7001 -0.4546
   39MOL   C17115447   3.585   4.766   0.609  0.3905 -0.9217 -0.4270
   39MOL   H17215448   3.524   4.900   0.758 -0.7092 -0.6230 -0.8541
   39MOL   H17315449   3.855   4.832   0.571  0.3395  0.7383 -0.0514
   39MOL   H17415450   4.078   4.868   0.654 -0.6336  0.8027  0.2039
   39MOL   H17515451   4.267   4.911   0.741 -1.4168 -0.9254  0.5294
   39MOL   H17615452   4.328   5.022   0.868  0.9395  2.0556 -1.0676
   39MOL   H17715453   4.235   5.083   0.740  1.3788  0.3097  0.4071
   39MOL   H17815454   3.921   5.044   1.017 -0.9084 -2.3480  0.6136
   39MOL   H17915455   3.683   5.007   0.921 -0.0402 -0.8067 -0.3697
   39MOL   H18015456   3.636   4.690   0.668  0.2353 -0.1298  0.7462
   39MOL   H18115457   3.636   4.769   0.513 -0.1067 -1.1053 -0.6975
   39MOL   C18215458   3.440   4.735   0.584 -0.5461 -0.5041 -0.5530
   39MOL   C18315459   3.348   4.727   0.709  0.7673 -0.3717 -0.8876
   39MOL   C18415460   3.242   4.819   0.743 -0.5081 -0.3452 -0.2604
   39MOL   C18515461   3.180   4.819   0.870 -0.0069 -0.0681 -0.5775
   39MOL   C18615462   3.217   4.719   0.964  0.4939  0.7513 -0.0568
   39MOL   O18715463   3.148   4.710   1.085  0.1805 -0.6793 -0.3142
   39MOL   C18815464   3.182   4.606   1.177 -0.3461 -0.5079 -0.3816
   39MOL   C18915465   3.318   4.630   0.938 -0.6714  0.4320  1.1187
   39MOL   C19015466   3.390   4.636   0.815 -0.4483 -0.6648  0.3071
   39MOL   C19115467   3.411   4.621   0.493 -0.1525  0.0255  0.1798
   39MOL   H19215468   3.406   4.826   0.534 -0.1002 -0.6688 -1.1562
   39MOL   H19315469   3.222   4.896   0.670 -1.5361  0.2360  0.6242
   39MOL   H19415470   3.101   4.886   0.900  0.7588  1.5577 -2.1060
   39MOL   H19515471   3.207   4.507   1.140 -1.1574 -0.9439  0.2455
   39MOL   H19615472   3.108   4.588   1.255  1.4778 -1.9588  1.0627
   39MOL   H19715473   3.271   4.641   1.230 -0.6842 -0.6399  0.2817
   39MOL   H19815474   3.357   4.548   0.997 -0.5176  0.7498  1.4640
   39MOL   H19915475   3.475   4.572   0.794 -1.4135 -1.4916 -1.1936
   39MOL   H20015476   3.447   4.525   0.529 -2.0394 -1.4825 -1.8216
   39MOL   H20115477   3.303   4.608   0.499 -0.3958  1.3165 -1.3282
   39MOL   C20215478   3.460   4.643   0.345 -0.6146 -0.3966 -0.1964
   39MOL   C20315479   3.429   4.780   0.290 -0.0924 -0.2810  0.6225
   39MOL   C20415480   3.527   4.878   0.260  0.2719  0.1681 -0.1499
   39MOL   C20515481   3.494   5.006   0.221  0.3883  0.3120  0.8380
   39MOL   C20615482   3.359   5.043   0.198 -0.7271  0.0208 -0.2730
   39MOL   O20715483   3.303   5.165   0.158  0.1061 -0.3949  0.2916
   39MOL   C20815484   3.401   5.254   0.114  0.3795  0.1010 -0.2697
   39MOL   C20915485   3.260   4.946   0.220  0.1568 -0.2285  0.0079
   39MOL   C21015486   3.296   4.817   0.264  1.2399  0.1643 -0.3333
   39MOL   C21115487   3.411   4.525   0.262 -0.3877 -0.3742  1.0931
   39MOL   H21215488   3.569   4.636   0.345 -0.5562  0.2930  1.5754
   39MOL   H21315489   3.630   4.851   0.281  1.0643  0.1305 -3.7342
   39MOL   H21415490   3.577   5.076   0.215 -0.5310  1.5223  2.0185
   39MOL   H21515491   3.348   5.336   0.064 -0.8512  0.0891  0.9805
   39MOL   H21615492   3.461   5.288   0.198 -0.1395 -0.3126  0.2735
   39MOL   H21715493   3.470   5.200   0.049  1.5480  1.4033 -0.1351
   39MOL   H21815494   3.155   4.971   0.212  0.4604  0.7489 -1.1106
   39MOL   H21915495   3.217   4.744   0.278  1.7944 -0.3195  0.2484
   39MOL   H22015496   3.306   4.515   0.291 -0.9818  2.2151 -0.0307
   39MOL   H22115497   3.456   4.430   0.289 -2.0557 -1.1144  1.3578
   39MOL   C22215498   3.411   4.537   0.105 -0.4223  0.1086  0.2992
   39MOL   C22315499   3.538   4.606   0.058  0.0227  0.0703  0.3065
   39MOL   C22415500   3.661   4.545   0.080 -0.0394  0.2879 -0.1738
   39MOL   C22515501   3.778   4.600   0.022 -1.2728 -0.0284  0.6189
   39MOL   C22615502   3.764   4.713   7.975  0.2640 -0.1376  0.4202
   39MOL   O22715503   3.883   4.744   7.910 -0.0370  0.6223 -0.2773
   39MOL   C22815504   3.874   4.767   7.770  0.3103 -0.3502  0.4073
   39MOL   C22915505   3.642   4.772   7.940  0.6287  0.4793 -0.1501
   39MOL   C23015506   3.527   4.720   8.007 -0.3377  0.7012  0.5356
   39MOL   C23115507   3.379   4.406   0.035 -0.5517  0.0821 -0.1705
   39MOL   H23215508   3.337   4.612   0.079  1.2807  1.8495  0.3635
   39MOL   H23315509   3.655   4.452   0.134 -2.3596  0.0638 -0.7637
   39MOL   H23415510   3.872   4.547   0.032 -2.3226 -1.8232  1.2503
   39MOL   H23515511   3.786   4.717   7.730  0.6340 -0.1402 -0.5735
   39MOL   H23615512   3.877   4.872   7.744 -1.2604 -0.9960 -2.5230
   39MOL   H23715513   3.949   4.706   7.719  0.5410  0.8514 -0.6921
   39MOL   H23815514   3.630   4.852   7.868 -1.0597 -0.9079 -1.4465
   39MOL   H23915515   3.429   4.763   7.993 -0.2009  0.3132 -1.8870
   39MOL   H24015516   3.437   4.417   7.983 -0.4145 -1.4740 -0.2864
   39MOL   H24115517   3.433   4.319   0.072 -0.3182 -0.2721 -1.3311
   39MOL   C24215518   3.228   4.378   0.011  0.4752 -0.5813  0.6411
   39MOL   C24315519   3.146   4.494   7.991 -0.4090  0.0791  0.1883
   39MOL   C24415520   3.184   4.543   7.866  0.2509  0.5040  0.3269
   39MOL   C24515521   3.144   4.671   7.816  0.0891 -0.1474 -0.1557
   39MOL   C24615522   3.061   4.753   7.897  0.1190 -0.2614 -0.1313
   39MOL   O24715523   3.026   4.875   7.860 -0.1205  0.0541 -0.0935
   39MOL   C24815524   3.049   4.980   7.951 -0.5843  0.3921  0.7176
   39MOL   C24915525   3.016   4.696   8.019 -0.1561 -0.7866  0.8120
   39MOL   C25015526   3.072   4.577   0.033  0.0331 -0.2716 -0.2642
   39MOL   C25115527   3.195   4.232   7.998  0.3862 -0.5317 -0.2666
   39MOL   H25215528   3.198   4.361   0.115  0.6918 -0.3604  0.7404
   39MOL   H25315529   3.254   4.483   7.809 -2.2276 -1.2711 -0.9182
   39MOL   H25415530   3.190   4.719   7.731 -0.6708  0.9026  0.0103
   39MOL   H25515531   3.095   5.062   7.895  0.8289  0.3587  1.8088
   39MOL   H25615532   2.951   5.016   7.983 -0.6271  1.0316 -0.0973
   39MOL   H25715533   3.111   4.957   8.038  0.1823  0.2412  0.1433
   39MOL   H25815534   2.952   4.761   0.036  1.3421  0.8879  0.6048
   39MOL   H25915535   3.052   4.556   0.137  0.9127 -1.4547 -0.3220
   39MOL   H26015536   3.241   4.164   0.029  0.6335 -1.0809 -0.9437
   39MOL   H26115537   3.253   4.206   7.909  0.7758  0.2299 -0.2388
   39MOL   C26215538   3.039   4.203   7.980  0.0611  0.4263  1.0669
   39MOL   C26315539   2.966   4.213   0.076 -0.2620 -0.3195 -0.1170
   39MOL   C26415540   2.866   4.306   0.097  0.5178 -0.4973  0.2010
   39MOL   C26515541   2.791   4.328   0.214  0.2952  0.0550  0.3253
   39MOL   C26615542   2.837   4.264   0.331 -0.2586 -1.5445 -0.7032
   39MOL   O26715543   2.778   4.289   0.455  0.0368  0.5626  0.1287
   39MOL   C26815544   2.838   4.236   0.572  0.0147 -0.4470  0.1080
   39MOL   C26915545   2.943   4.172   0.314  0.5713  0.5046  0.5590
   39MOL   C27015546   2.999   4.140   0.188  0.1564  0.9062  0.1362
   39MOL   C27115547   2.998   4.075   7.895 -0.2052 -0.4198 -0.1889
   39MOL   H27215548   3.005   4.288   7.922 -1.0952 -0.7129  0.0365
   39MOL   H27315549   2.824   4.355   0.011  1.4609 -0.1581 -0.0640
   39MOL   H27415550   2.710   4.399   0.222  0.4970  0.1956  1.2168
   39MOL   H27515551   2.816   4.130   0.560  0.9117 -0.7835  1.3499
   39MOL   H27615552   2.790   4.278   0.661  1.0174 -0.9442  0.8868
   39MOL   H27715553   2.944   4.253   0.588 -0.2106 -0.8435  2.1961
   39MOL   H27815554   2.977   4.129   0.407 -0.1503  0.2743  0.7194
   39MOL   H27915555   3.082   4.072   0.187  0.2765  1.0334  0.9595
   39MOL   H28015556   2.889   4.076   7.894 -0.2286 -1.7183 -0.2917
   39MOL   H28115557   3.018   4.084   7.788  0.2999 -0.6675 -0.1187
   39MOL   C28215558   3.057   3.941   7.938 -0.4832 -0.2977  0.4497
   39MOL   C28315559   3.204   3.929   7.908  0.4876 -0.0392  0.7199
   39MOL   C28415560   3.255   3.951   7.776 -0.5645  0.0087  0.2918
   39MOL   C28515561   3.392   3.946   7.748  0.8502 -0.3877 -0.1033
   39MOL   C28615562   3.484   3.923   7.855  0.8768 -0.5459 -0.7334
   39MOL   O28715563   3.624   3.906   7.839 -0.2492  0.6286 -0.2428
   39MOL   C28815564   3.683   3.898   7.711 -0.0373 -0.1757  0.3738
   39MOL   C28915565   3.439   3.914   7.984 -0.2175  0.0752 -0.3150
   39MOL   C29015566   3.298   3.907   8.010 -0.3151 -0.0450 -0.7001
   39MOL   C29115567   2.992   3.814   7.877  0.6910 -0.2655 -0.3946
   39MOL   H29215568   3.039   3.942   0.006 -0.5253  0.3669  0.4338
   39MOL   H29315569   3.184   3.972   7.698 -0.4617  1.0069  0.4660
   39MOL   H29415570   3.416   3.941   7.643  0.0178 -0.5879 -0.2902
   39MOL   H29515571   3.788   3.873   7.727  0.4263  0.0007 -2.2020
   39MOL   H29615572   3.656   3.809   7.654  0.0879  0.6461 -0.9845
   39MOL   H29715573   3.678   3.993   7.657 -0.1951 -0.4442 -0.0872
   39MOL   H29815574   3.511   3.898   0.022 -2.6194  0.4258  2.0347
   39MOL   H29915575   3.269   3.899   0.074  0.5115 -0.2039 -0.4731
   39MOL   H30015576   2.976   3.831   7.771 -0.3956  0.5178 -0.1130
   39MOL   H30115577   3.055   3.725   7.872  1.7934  0.5143 -0.7968
   39MOL   C30215578   2.864   3.779   7.950  0.3872 -0.3848 -0.0480
   39MOL   C30315579   2.769   3.707   7.853  0.0676  0.1124  0.0205
   39MOL   C30415580   2.792   3.571   7.820 -0.6905  0.4433 -0.5767
   39MOL   C30515581   2.705   3.512   7.725 -0.2314  0.5885  0.0228
   39MOL   C30615582   2.607   3.588   7.661  0.3509  0.1384 -0.4651
   39MOL   O30715583   2.539   3.552   7.544 -0.5265 -0.1181  0.1702
   39MOL   C30815584   2.526   3.415   7.520 -0.0694 -0.0238  0.3042
   39MOL   C30915585   2.586   3.724   7.700  0.0712 -0.2274 -0.0482
   39MOL   C31015586   2.667   3.783   7.792  0.0316 -0.1692 -0.6107
   39MOL   C31115587   2.893   3.693   0.042  0.5470 -0.6039  0.0955
   39MOL   H31215588   2.815   3.873   7.977  0.5337 -0.0881 -0.8030
   39MOL   H31315589   2.860   3.505   7.871 -1.2331 -1.5214 -2.3122
   39MOL   H31415590   2.709   3.406   7.703  1.1926 -0.3371  4.2748
   39MOL   H31515591   2.479   3.363   7.604  0.0780 -0.7475 -0.0571
   39MOL   H31615592   2.619   3.369   7.486 -0.5072 -0.2643 -0.5845
   39MOL   H31715593   2.462   3.395   7.434 -0.0523 -3.9490  1.1100
   39MOL   H31815594   2.502   3.773   7.653  0.3760 -1.2220 -1.6829
   39MOL   H31915595   2.647   3.885   7.822 -0.3415 -0.9102  1.7341
   39MOL   H32015596   2.960   3.746   0.110 -1.4373  1.9156  0.1599
   39MOL   H32115597   2.953   3.605   0.017  0.7043 -0.5938  0.4237
   39MOL   C32215598   2.765   3.644   0.112  0.2064  0.7481 -0.2302
   39MOL   C32315599   2.667   3.751   0.133  0.3582  0.5816 -0.8409
   39MOL   C32415600   2.704   3.865   0.203 -0.7548 -0.7251 -0.0439
   39MOL   C32515601   2.612   3.964   0.229 -0.4204 -0.4300  0.0432
   39MOL   C32615602   2.480   3.950   0.186  0.5733 -0.0856 -0.3130
   39MOL   O32715603   2.376   4.037   0.227  0.1196  0.0466 -0.2052
   39MOL   C32815604   2.414   4.151   0.301 -0.0409 -0.8010 -0.0540
   39MOL   C32915605   2.445   3.841   0.101  0.2406 -0.6721 -0.2562
   39MOL   C33015606   2.539   3.737   0.074 -1.2778 -0.4507 -0.5605
   39MOL   C33115607   2.805   3.582   0.251 -0.3447 -0.2605 -0.7236
   39MOL   H33215608   2.717   3.568   0.049  2.6159 -0.3237 -0.8600
   39MOL   H33315609   2.799   3.875   0.254 -0.5966  0.6154 -0.5848
   39MOL   H33415610   2.638   4.045   0.295  1.7586 -0.5424 -0.6511
   39MOL   H33515611   2.328   4.214   0.324  0.6704 -0.0097  0.4607
   39MOL   H33615612   2.478   4.215   0.241 -0.1192 -0.2616  0.4303
   39MOL   H33715613   2.469   4.122   0.391  0.9430  1.6162  0.1460
   39MOL   H33815614   2.347   3.844   0.056  0.7855  1.8715 -1.4161
   39MOL   H33915615   2.512   3.660   0.004  0.6353 -0.0671 -1.7404
   39MOL   H34015616   2.857   3.662   0.303 -1.5024  0.1267 -0.1381
   39MOL   H34115617   2.711   3.574   0.307  0.5765 -1.7608  0.6776
   39MOL   C34215618   2.879   3.451   0.251 -0.2825 -0.5941  0.9502
   39MOL   C34315619   2.789   3.344   0.196  0.0787 -0.1902 -0.2521
   39MOL   C34415620   2.673   3.300   0.271  0.7168 -0.5372 -0.2988
   39MOL   C34515621   2.595   3.198   0.213  0.0682  0.5928 -0.1379
   39MOL   C34615622   2.631   3.133   0.098 -0.3394 -0.2710 -0.2662
   39MOL   O34715623   2.554   3.041   0.034  1.0202  0.1026 -0.1512
   39MOL   C34815624   2.422   3.015   0.076 -0.1375  0.1051 -0.3002
   39MOL   C34915625   2.744   3.174   0.030 -0.2050 -0.5175  0.1054
   39MOL   C35015626   2.823   3.279   0.073 -0.0988  0.0398 -0.4576
   39MOL   C35115627   2.945   3.420   0.388  0.3971  0.3327 -0.8836
   39MOL   H35215628   2.965   3.471   0.188 -1.3699 -0.1401 -0.4099
   39MOL   H35315629   2.622   3.346   0.354  0.2537  0.8597 -1.3228
   39MOL   H35415630   2.499   3.172   0.254  0.9525 -0.8992  1.0503
   39MOL   H35515631   2.434   2.970   0.175  0.5080 -0.7438 -0.7594
   39MOL   H35615632   2.373   3.112   0.089 -0.4110  0.2897 -2.5394
   39MOL   H35715633   2.365   2.955   0.005 -0.3972  2.4420 -2.1236
   39MOL   H35815634   2.768   3.130   7.974  3.2251  0.3568  0.5052
   39MOL   H35915635   2.916   3.301   0.024  0.9502  0.0657  1.4893
   39MOL   H36015636   3.035   3.480   0.403  0.6680 -0.3969  0.5216
   39MOL   H36115637   2.867   3.440   0.462  1.7313  1.0424  0.3539
   39MOL   C36215638   2.974   3.275   0.427  0.1526  0.4009 -0.2050
   39MOL   C36315639   3.025   3.267   0.569  1.0371 -0.3206  0.8499
   39MOL   C36415640   2.950   3.190   0.658  0.1242  0.3307 -0.2496
   39MOL   C36515641   3.002   3.169   0.787  0.5481 -0.5269  0.3434
   39MOL   C36615642   3.130   3.216   0.825  0.0601 -0.2575 -0.5391
   39MOL   O36715643   3.172   3.184   0.956 -0.2341  0.2220  0.3172
   39MOL   C36815644   3.295   3.230   0.997  0.3818  0.4511 -0.0474
   39MOL   C36915645   3.203   3.297   0.734  0.4313  0.0567  0.5469
   39MOL   C37015646   3.147   3.332   0.606 -0.5566  0.7066  0.2815
   39MOL   C37115647   3.072   3.218   0.330 -0.3578  0.2708 -0.6510
   39MOL   H37215648   2.886   3.212   0.424  0.4176 -0.1836  2.7061
   39MOL   H37315649   2.855   3.146   0.633 -0.0562  0.5665  0.0219
   39MOL   H37415650   2.934   3.115   0.851 -2.7717  2.3172 -0.6170
   39MOL   H37515651   3.296   3.338   1.010  2.5130  0.3035  1.3887
   39MOL   H37615652   3.295   3.188   1.098 -2.4124  0.8866  0.1784
   39MOL   H37715653   3.379   3.190   0.940 -0.1312 -0.4588 -0.1792
   39MOL   H37815654   3.296   3.347   0.761  0.9210  0.5772 -1.9942
   39MOL   H37915655   3.209   3.391   0.540  2.4089 -0.4556  1.9428
   39MOL   H38015656   3.052   3.248   0.227  3.8297 -0.5387 -1.8189
   39MOL   H38115657   3.173   3.257   0.343  0.3728 -0.6788 -3.1222
   39MOL   C38215658   3.077   3.066   0.324  0.0870  0.9015  0.2317
   39MOL   C38315659   3.217   3.009   0.292  0.0155  0.4007 -0.0656
   39MOL   C38415660   3.298   2.945   0.388 -0.2724 -0.0588 -0.2474
   39MOL   C38515661   3.425   2.895   0.359 -0.0190  0.1090  0.2797
   39MOL   C38615662   3.480   2.917   0.230  0.5979 -0.0215  0.5566
   39MOL   O38715663   3.606   2.885   0.189 -0.1812  0.0449 -0.3591
   39MOL   C38815664   3.705   2.846   0.282 -0.2557 -0.2585  0.5311
   39MOL   C38915665   3.400   2.987   0.135  0.2478 -0.4775 -0.3064
   39MOL   C39015666   3.269   3.038   0.165 -0.3069 -0.5106 -0.6937
   39MOL   C39115667   2.963   3.017   0.240 -0.0242 -0.2600  0.0017
   39MOL   H39215668   3.063   3.032   0.427 -1.9250  0.5847 -0.1230
   39MOL   H39315669   3.272   2.920   0.489 -1.5019  1.6906 -0.1268
   39MOL   H39415670   3.482   2.854   0.442 -2.2954 -1.2048  1.2411
   39MOL   H39515671   3.795   2.807   0.234 -0.6043  0.3810 -0.6610
   39MOL   H39615672   3.673   2.753   0.329  1.5365 -2.3502 -2.2743
   39MOL   H39715673   3.729   2.925   0.354 -1.3440  1.7832 -1.2823
   39MOL   H39815674   3.442   2.987   0.035 -0.5781 -1.4340 -0.6514
   39MOL   H39915675   3.219   3.079   0.078  0.3372  2.0103  0.1028
   39MOL   H40015676   2.960   2.908   0.248 -0.0867 -0.0925  2.9482
   39MOL   H40115677   2.987   3.034   0.136  3.1050 -1.2573  0.5260
   39MOL   H40215678   2.858   3.046   0.253 -0.2844 -1.5667  1.0071
   40MOL     C115679   0.335   0.343   5.830 -0.2988 -0.3266  0.8980
   40MOL     C215680   0.201   0.401   5.862  0.4519  0.1162 -0.2276
   40MOL     C315681   0.212   0.535   5.911  0.0915  0.5630  0.3224
   40MOL     C415682   0.092   0.603   5.938 -0.3658 -0.2798 -1.0900
   40MOL     C515683   8.005   0.530   5.928 -0.6782 -0.3498  0.8224
   40MOL     O615684   7.881   0.582   5.959  0.5678 -0.8268 -0.4127
   40MOL     C715685   7.877   0.710   6.031 -0.3909  0.3878  0.2530
   40MOL     C815686   8.002   0.401   5.886 -0.5915  0.2735  0.5982
   40MOL     C915687   0.081   0.332   5.847  0.4756 -0.1823 -0.1886
   40MOL    C1015688   0.350   0.190   5.853  0.2323 -0.2228  0.2238
   40MOL    H1115689   0.418   0.377   5.892  1.4421 -0.0849 -1.4706
   40MOL    H1215690   0.300   0.598   5.922 -0.7804  1.7337  0.7382
   40MOL    H1315691   0.082   0.700   5.984  0.6081 -1.2429  1.2443
   40MOL    H1415692   7.897   0.792   5.962  1.2748  0.3161  0.6188
   40MOL    H1515693   7.773   0.736   6.050 -0.6984  1.4523 -2.5670
   40MOL    H1615694   7.927   0.703   6.128 -2.8033 -2.1202  1.3626
   40MOL    H1715695   7.905   0.359   5.865 -1.1300  1.4238  0.7433
   40MOL    H1815696   0.077   0.232   5.806  0.7928  0.0243 -0.7384
   40MOL    H1915697   0.301   0.160   5.945 -1.7171  0.6419 -0.5114
   40MOL    H2015698   0.289   0.151   5.772  1.3154 -0.3750 -0.5343
   40MOL    H2115699   0.359   0.368   5.726  0.9481 -3.4789  0.3748
   40MOL    C2215700   0.491   0.129   5.842 -0.3081 -0.1238 -0.2930
   40MOL    C2315701   0.487   8.024   5.820  0.8846  0.1991 -0.8614
   40MOL    C2415702   0.548   7.930   5.908 -0.9312 -0.1253 -0.7797
   40MOL    C2515703   0.532   7.793   5.891 -0.4397 -0.0464  0.0020
   40MOL    C2615704   0.442   7.742   5.795 -0.1588  0.7615  0.2203
   40MOL    O2715705   0.411   7.608   5.787  0.0765  0.5169 -0.2941
   40MOL    C2815706   0.427   7.516   5.890 -0.5702  0.3809  0.0346
   40MOL    C2915707   0.380   7.830   5.703 -0.2140  0.1313 -0.1435
   40MOL    C3015708   0.404   7.971   5.721 -0.0993 -0.1100  0.2056
   40MOL    C3115709   0.588   0.193   5.743  0.5881 -0.2711 -0.3426
   40MOL    H3215710   0.538   0.145   5.939 -1.9009 -0.3383  0.5318
   40MOL    H3315711   0.622   7.959   5.981 -1.8959  0.6157 -0.0794
   40MOL    H3415712   0.583   7.731   5.963  1.0826  2.6692  1.3278
   40MOL    H3515713   0.412   7.561   5.988  2.2678  0.9122  0.2645
   40MOL    H3615714   0.520   7.459   5.889  0.2576  1.6836  1.4941
   40MOL    H3715715   0.346   7.444   5.879  0.5859 -0.6809 -1.9166
   40MOL    H3815716   0.299   7.806   5.636  0.3253  1.8833 -1.4935
   40MOL    H3915717   0.356   8.037   5.650  1.4278  1.5568  0.6900
   40MOL    H4015718   0.532   0.189   5.649  2.4886 -0.0129 -1.5114
   40MOL    H4115719   0.591   0.301   5.762 -1.3660 -0.3274  0.3422
   40MOL    C4215720   0.728   0.134   5.706 -0.7668  0.1071 -0.4474
   40MOL    C4315721   0.825   0.135   5.823  0.3823 -0.4907 -0.1323
   40MOL    C4415722   0.879   0.009   5.862  0.3080 -0.1852  0.2578
   40MOL    C4515723   0.985   0.015   5.955  0.1365 -0.2414  0.2671
   40MOL    C4615724   1.037   0.137   6.002  0.0792 -0.0572  0.3519
   40MOL    O4715725   1.159   0.120   6.071 -0.1761 -0.1485  0.5072
   40MOL    C4815726   1.245   0.233   6.085 -0.9702  0.3171 -0.3310
   40MOL    C4915727   0.981   0.258   5.968 -0.1528  0.4009  0.9992
   40MOL    C5015728   0.875   0.257   5.873  0.7663  0.2166  0.3151
   40MOL    C5115729   0.782   0.203   5.581  0.3538  0.0713  0.1666
   40MOL    H5215730   0.706   0.032   5.674  0.1475  0.6631 -2.9070
   40MOL    H5315731   0.846   7.951   5.830 -0.2131 -0.8085  2.6225
   40MOL    H5415732   1.036   7.964   5.984 -3.9208 -2.4205  0.9124
   40MOL    H5515733   1.211   0.309   6.155 -1.6967  0.7776 -1.1630
   40MOL    H5615734   1.336   0.190   6.125 -1.2012  0.0320 -0.1067
   40MOL    H5715735   1.263   0.277   5.986 -0.4739  0.1164 -0.3290
   40MOL    H5815736   1.008   0.355   6.005  1.3823  0.2973  0.1787
   40MOL    H5915737   0.824   0.344   5.834 -0.3176 -0.6608 -0.2934
   40MOL    H6015738   0.889   0.203   5.601  0.0982  0.7237  1.6342
   40MOL    H6115739   0.747   0.306   5.587 -0.6950 -0.3706  2.3402
   40MOL    C6215740   0.750   0.146   5.441  0.5380  0.2126  0.1034
   40MOL    C6315741   0.887   0.136   5.373  0.7243 -0.8590 -0.2895
   40MOL    C6415742   0.927   0.014   5.305  0.6861 -0.5855  0.0915
   40MOL    C6515743   1.055   8.030   5.259 -0.1479 -0.4650  0.0297
   40MOL    C6615744   1.152   0.090   5.269 -0.2070  0.0865  0.0943
   40MOL    O6715745   1.284   0.057   5.226 -0.7283  0.3405 -0.1257
   40MOL    C6815746   1.391   0.129   5.293  1.1523 -0.1201  0.3723
   40MOL    C6915747   1.115   0.214   5.321 -0.2383 -0.1110 -0.1996
   40MOL    C7015748   0.988   0.235   5.372  1.2445  0.0904  0.8443
   40MOL    C7115749   0.658   0.237   5.362 -0.3839  0.4791  0.5291
   40MOL    H7215750   0.702   0.049   5.457  1.4097 -0.3951 -0.8958
   40MOL    H7315751   0.856   7.975   5.283  0.7533 -0.0278 -2.2446
   40MOL    H7415752   1.089   7.940   5.211  1.9683  0.8318 -0.9745
   40MOL    H7515753   1.404   0.094   5.396  0.5816  1.9006  1.1691
   40MOL    H7615754   1.381   0.238   5.289  1.0440 -0.1871 -1.4774
   40MOL    H7715755   1.482   0.110   5.236  0.0649 -0.2138 -1.3621
   40MOL    H7815756   1.185   0.296   5.317  2.0552 -2.0480 -1.1549
   40MOL    H7915757   0.952   0.325   5.419 -0.5138 -1.5425  2.7430
   40MOL    H8015758   0.590   0.288   5.430 -2.4254 -1.4495 -0.0062
   40MOL    H8115759   0.717   0.312   5.309  1.5282 -0.9336  0.5903
   40MOL    C8215760   0.584   0.157   5.260  0.2545  0.0308 -0.1585
   40MOL    C8315761   0.466   0.076   5.311  0.3576 -0.0733 -0.3830
   40MOL    C8415762   0.349   0.146   5.368  0.5782 -0.4721 -0.0938
   40MOL    C8515763   0.232   0.077   5.406  0.8612 -0.3383 -0.0068
   40MOL    C8615764   0.226   7.977   5.393  0.8848  0.0505 -0.1959
   40MOL    O8715765   0.119   7.907   5.429 -0.1369  0.4574 -0.4104
   40MOL    C8815766   8.035   7.973   5.466  0.3265 -0.6010 -0.1378
   40MOL    C8915767   0.340   7.907   5.356  0.0233  0.8932  0.4228
   40MOL    C9015768   0.453   7.974   5.308  0.0975  0.2754  0.3521
   40MOL    C9115769   0.532   0.236   5.132 -0.2106  0.0185  0.4526
   40MOL    H9215770   0.654   0.084   5.221  1.7934  1.9925 -1.1561
   40MOL    H9315771   0.336   0.252   5.385 -0.7715 -0.6862  0.2562
   40MOL    H9415772   0.142   0.133   5.427  0.9838 -0.3097  0.4476
   40MOL    H9515773   0.017   8.020   5.562 -2.1324 -0.5704  0.4205
   40MOL    H9615774   7.958   7.902   5.494  0.3855 -0.3588  0.6647
   40MOL    H9715775   7.989   0.004   5.397 -3.9707 -2.5733  0.5445
   40MOL    H9815776   0.338   7.799   5.351 -0.2837  0.9775 -2.3329
   40MOL    H9915777   0.537   7.922   5.264  0.7106  0.3286  1.4300
   40MOL   H10015778   0.459   0.175   5.079  0.0541  1.3656 -1.5389
   40MOL   H10115779   0.469   0.316   5.171 -1.2337 -0.9383  0.7914
   40MOL   C10215780   0.639   0.285   5.034  0.5705 -0.7492  0.5737
   40MOL   C10315781   0.733   0.169   4.993 -0.1546  0.8572 -0.4685
   40MOL   C10415782   0.875   0.173   5.014  0.1233 -0.8083 -0.2654
   40MOL   C10515783   0.957   0.072   4.957  0.0658 -0.0878 -0.2336
   40MOL   C10615784   0.902   7.992   4.904  0.7505 -0.0001  0.1922
   40MOL   O10715785   0.974   7.877   4.854  0.0025 -0.2587 -0.3486
   40MOL   C10815786   1.110   7.876   4.887 -0.5080  0.2092  0.3938
   40MOL   C10915787   0.762   7.985   4.902 -0.5187  0.2398 -0.2502
   40MOL   C11015788   0.679   0.050   4.940  0.1552  0.1571 -0.6196
   40MOL   C11115789   0.564   0.346   4.910  0.2044  1.3100 -0.7476
   40MOL   H11215790   0.690   0.364   5.090 -1.1333  0.3709  0.6029
   40MOL   H11315791   0.928   0.256   5.058 -2.6042  0.7648  0.1595
   40MOL   H11415792   1.063   0.092   4.964 -0.5635  3.3777  0.6395
   40MOL   H11515793   1.125   7.879   4.995  0.4876  1.0035  0.2346
   40MOL   H11615794   1.158   7.794   4.834 -0.9612  0.6832 -0.7652
   40MOL   H11715795   1.159   7.968   4.857  1.1882 -0.8448 -0.1324
   40MOL   H11815796   0.720   7.898   4.854  2.1117 -0.9738 -0.4314
   40MOL   H11915797   0.572   0.034   4.931 -0.6502  2.0451  4.1768
   40MOL   H12015798   0.518   0.275   4.841  3.4836  0.9641 -2.6746
   40MOL   H12115799   0.480   0.397   4.956  0.9826 -0.1469  2.3771
   40MOL   C12215800   0.651   0.451   4.833 -0.1827  0.4879  0.7873
   40MOL   C12315801   0.564   0.534   4.740  0.0210  0.1239 -0.1650
   40MOL   C12415802   0.506   0.471   4.624  0.0900 -0.3111  0.1598
   40MOL   C12515803   0.426   0.546   4.545  0.9447 -0.3804  0.3147
   40MOL   C12615804   0.423   0.687   4.550 -0.0460 -0.2205  0.5053
   40MOL   O12715805   0.353   0.745   4.443  0.5389  0.3596  0.1710
   40MOL   C12815806   0.403   0.879   4.406 -0.4507 -0.3195 -0.8719
   40MOL   C12915807   0.479   0.753   4.659  0.0705  0.1022  0.5316
   40MOL   C13015808   0.540   0.675   4.760  0.8151 -0.3452  0.7155
   40MOL   C13115809   0.768   0.386   4.750  1.3025  0.4416 -0.3161
   40MOL   H13215810   0.692   0.527   4.899  0.0758  2.5046 -1.5787
   40MOL   H13315811   0.519   0.366   4.605 -0.2902 -0.3840  0.3044
   40MOL   H13415812   0.365   0.505   4.466  0.8931  3.4078 -1.7178
   40MOL   H13515813   0.512   0.877   4.406 -0.4266 -0.9396  1.8898
   40MOL   H13615814   0.379   0.885   4.300  2.0418 -2.8515 -1.6279
   40MOL   H13715815   0.358   0.960   4.463  1.1228 -0.1029  0.0902
   40MOL   H13815816   0.463   0.858   4.682 -1.0971 -0.1918  1.0843
   40MOL   H13915817   0.582   0.725   4.846  0.6123 -1.3451  1.4009
   40MOL   H14015818   0.734   0.315   4.675 -1.9115  1.8739 -0.2663
   40MOL   H14115819   0.837   0.338   4.820 -0.0730 -1.2347 -0.0942
   40MOL   C14215820   0.856   0.475   4.660  0.2132  0.3847  0.1762
   40MOL   C14315821   0.895   0.605   4.726  0.1610 -0.8301 -0.9505
   40MOL   C14415822   0.871   0.725   4.659 -0.3696 -0.0712 -0.3153
   40MOL   C14515823   0.920   0.845   4.716 -0.2900  0.5830 -0.2150
   40MOL   C14615824   0.979   0.852   4.841 -0.3031  0.1046  1.0562
   40MOL   O14715825   1.012   0.973   4.889 -0.3067  0.2030  0.1200
   40MOL   C14815826   1.117   0.964   4.985 -0.5245  0.5859  0.1680
   40MOL   C14915827   0.988   0.731   4.909  0.8107  0.4677 -0.3399
   40MOL   C15015828   0.957   0.607   4.855  0.4071  0.4643  0.3067
   40MOL   C15115829   0.972   0.396   4.605 -0.3877 -0.1473  0.2176
   40MOL   H15215830   0.785   0.513   4.586 -1.7801  1.0607  2.3507
   40MOL   H15315831   0.825   0.722   4.561 -2.6278  1.4786  0.6365
   40MOL   H15415832   0.902   0.937   4.662 -1.5924 -0.1968 -1.1621
   40MOL   H15515833   1.195   0.890   4.968 -0.5874  0.8987 -1.5664
   40MOL   H15615834   1.162   1.061   5.003  1.0102  0.0411 -0.6319
   40MOL   H15715835   1.074   0.934   5.080  1.8209 -0.3072  0.9765
   40MOL   H15815836   1.015   0.726   5.013  1.0318  0.9456 -0.3723
   40MOL   H15915837   0.992   0.521   4.910  0.5959 -0.8244 -1.7680
   40MOL   H16015838   0.955   0.288   4.607  2.0115 -0.5731 -0.3615
   40MOL   H16115839   1.057   0.412   4.672  1.2451 -1.1214 -1.5678
   40MOL   C16215840   1.019   0.450   4.463  0.2717 -0.2628 -0.0073
   40MOL   C16315841   0.910   0.436   4.361  0.4240 -0.1042  0.7189
   40MOL   C16415842   0.856   0.310   4.333 -0.6690  0.1249 -0.3925
   40MOL   C16515843   0.743   0.291   4.247  0.9205  0.1987 -0.4987
   40MOL   C16615844   0.680   0.406   4.193 -0.3427 -0.4153 -0.2755
   40MOL   O16715845   0.571   0.404   4.105 -0.2352 -0.3528  0.5916
   40MOL   C16815846   0.548   0.283   4.031  0.6663 -0.0077  0.2083
   40MOL   C16915847   0.735   0.532   4.223  0.1261 -0.0722 -0.2808
   40MOL   C17015848   0.843   0.546   4.312  0.4289 -0.4874 -0.0002
   40MOL   C17115849   1.145   0.388   4.415  0.5241  0.3075  0.2868
   40MOL   H17215850   1.032   0.558   4.477  3.2622 -0.4767 -0.9144
   40MOL   H17315851   0.905   0.224   4.376  0.5017  0.4265 -1.0896
   40MOL   H17415852   0.714   0.188   4.232 -0.9283  0.4799  1.0184
   40MOL   H17515853   0.510   0.206   4.098  0.3728 -2.4615 -2.6772
   40MOL   H17615854   0.647   0.259   3.991  0.3981  1.8049 -1.6373
   40MOL   H17715855   0.491   0.303   3.940  0.0899  0.9263  0.7692
   40MOL   H17815856   0.695   0.625   4.184 -0.4728 -0.4189 -0.4933
   40MOL   H17915857   0.877   0.645   4.338 -2.0438  0.4938 -0.3720
   40MOL   H18015858   1.168   0.428   4.316  1.1145 -0.5079  0.0842
   40MOL   H18115859   1.124   0.282   4.402 -1.9468  0.7769  0.2960
   40MOL   C18215860   1.274   0.407   4.498  0.3632  0.8256 -0.9049
   40MOL   C18315861   1.292   0.554   4.553 -1.3164  0.0905 -0.0539
   40MOL   C18415862   1.269   0.667   4.465  0.3710  0.2154 -0.0132
   40MOL   C18515863   1.279   0.795   4.517 -0.0797  0.1747 -0.1423
   40MOL   C18615864   1.297   0.815   4.656  0.1480 -0.3635 -0.4100
   40MOL   O18715865   1.296   0.936   4.721 -0.4825 -0.8270 -0.2802
   40MOL   C18815866   1.258   1.050   4.660  0.0535  0.7480  0.0948
   40MOL   C18915867   1.318   0.704   4.740 -0.4736  0.2604  0.0362
   40MOL   C19015868   1.323   0.574   4.687 -0.3179 -0.0130 -0.4369
   40MOL   C19115869   1.400   0.371   4.427  0.3030 -0.6846  0.2211
   40MOL   H19215870   1.261   0.338   4.581  2.7685  0.1434 -1.0456
   40MOL   H19315871   1.232   0.659   4.364 -0.6308  1.1969  0.2636
   40MOL   H19415872   1.279   0.883   4.454 -0.8153 -1.0469 -1.9026
   40MOL   H19515873   1.169   1.037   4.598 -0.4188 -0.6593  1.0410
   40MOL   H19615874   1.340   1.093   4.602 -0.1108  0.0456 -0.6638
   40MOL   H19715875   1.234   1.120   4.740 -1.0969  1.2727 -0.6853
   40MOL   H19815876   1.325   0.717   4.847  1.5478 -2.5048  0.2943
   40MOL   H19915877   1.332   0.489   4.754 -1.1837  0.5558  0.4159
   40MOL   H20015878   1.414   0.449   4.352  1.5159  0.5575  1.7013
   40MOL   H20115879   1.482   0.397   4.493  1.1089 -0.2077 -0.9504
   40MOL   C20215880   1.405   0.219   4.392 -0.6745 -0.1908  0.2268
   40MOL   C20315881   1.420   0.134   4.519  0.0732  0.3342  0.3950
   40MOL   C20415882   1.517   0.165   4.618 -0.0820 -0.3584 -0.7727
   40MOL   C20515883   1.532   0.082   4.730  0.6811 -0.1680  0.2100
   40MOL   C20615884   1.456   8.006   4.745  0.7224  0.2902  0.8387
   40MOL   O20715885   1.475   7.923   4.856 -0.2261  0.2906 -0.1806
   40MOL   C20815886   1.523   7.983   4.972  0.4797 -0.1124 -0.0824
   40MOL   C20915887   1.363   7.979   4.648 -1.0447  0.6825 -0.0599
   40MOL   C21015888   1.346   0.015   4.530 -0.2247 -0.2700 -0.0845
   40MOL   C21115889   1.511   0.181   4.287 -0.3023  0.1104 -0.2868
   40MOL   H21215890   1.307   0.191   4.353  1.0889 -3.4879 -2.0807
   40MOL   H21315891   1.584   0.250   4.611 -0.9275  0.2934 -0.9036
   40MOL   H21415892   1.611   0.097   4.803  0.8279  1.1179 -0.2030
   40MOL   H21515893   1.499   7.919   5.057 -1.2251 -0.2859 -0.6760
   40MOL   H21615894   1.632   7.990   4.966  0.5785  0.0933  1.5421
   40MOL   H21715895   1.481   0.041   4.994 -3.2082 -1.5430 -0.3656
   40MOL   H21815896   1.301   7.894   4.668  2.9066 -2.1231  0.8252
   40MOL   H21915897   1.284   8.011   4.454 -0.6543  0.9827 -0.4634
   40MOL   H22015898   1.585   0.108   4.319 -0.4282  0.6894  1.4036
   40MOL   H22115899   1.576   0.269   4.277  0.6765 -0.6885 -1.0374
   40MOL   C22215900   1.447   0.127   4.158 -0.8452 -0.1807 -0.3126
   40MOL   C22315901   1.370   0.236   4.086  0.2822 -0.0498  0.2147
   40MOL   C22415902   1.231   0.223   4.064 -0.6685 -0.0375 -0.2184
   40MOL   C22515903   1.156   0.327   4.004  0.1372  0.2840 -0.3548
   40MOL   C22615904   1.226   0.451   3.977  0.6885 -0.1858  0.5845
   40MOL   O22715905   1.168   0.565   3.916  0.4393  0.2504  0.4396
   40MOL   C22815906   1.039   0.585   3.949 -0.6608  0.6045  0.6853
   40MOL   C22915907   1.364   0.462   3.999 -0.1613  0.5146 -0.6493
   40MOL   C23015908   1.440   0.348   4.045  0.4940 -0.5050  0.1195
   40MOL   C23115909   1.552   0.067   4.059 -0.7031 -0.5258 -0.6579
   40MOL   H23215910   1.383   0.042   4.180  2.0823 -2.0817  1.2033
   40MOL   H23315911   1.189   0.128   4.094 -2.3152  0.6922 -0.1912
   40MOL   H23415912   1.052   0.321   3.978 -0.1395  2.6350  0.0528
   40MOL   H23515913   0.981   0.503   3.907 -1.0033  0.5294  1.3035
   40MOL   H23615914   1.021   0.595   4.057  0.7389 -0.1633  0.9971
   40MOL   H23715915   1.000   0.672   3.897  2.2588 -0.3841 -3.3545
   40MOL   H23815916   1.420   0.549   3.970  2.0181  0.2927  2.6539
   40MOL   H23915917   1.538   0.383   4.073  0.2710 -0.7914  1.3088
   40MOL   H24015918   1.615   0.151   4.028 -2.0549  0.4454 -0.8124
   40MOL   H24115919   1.621   0.007   4.119 -0.9033  0.7084  0.8258
   40MOL   C24215920   1.517   8.037   3.931 -0.3049 -0.7273  0.1462
   40MOL   C24315921   1.639   7.986   3.867  0.2589 -0.0180 -0.7164
   40MOL   C24415922   1.721   7.893   3.938 -0.3207  0.4940  0.4217
   40MOL   C24515923   1.835   7.837   3.874  0.1907  0.3281  1.1496
   40MOL   C24615924   1.865   7.863   3.735  0.2329 -0.0813 -0.0292
   40MOL   O24715925   1.965   7.806   3.664 -0.5770  0.9329  0.2706
   40MOL   C24815926   1.985   7.671   3.699 -0.3250 -0.4088 -0.0502
   40MOL   C24915927   1.794   7.973   3.680  0.2670 -0.3591  0.4181
   40MOL   C25015928   1.684   8.036   3.742 -0.3661 -0.4377  0.1051
   40MOL   C25115929   1.415   7.928   3.953  0.4672 -0.5164  0.7589
   40MOL   H25215930   1.473   0.072   3.865  0.6224 -1.1932 -1.0318
   40MOL   H25315931   1.697   7.853   4.035 -0.3847 -0.4473  0.0159
   40MOL   H25415932   1.887   7.751   3.914  2.1896  0.5523 -0.8814
   40MOL   H25515933   1.890   7.622   3.680 -1.5428  1.6413  0.6242
   40MOL   H25615934   2.055   7.630   3.626  0.9161 -1.2905  1.6045
   40MOL   H25715935   2.022   7.655   3.800 -2.3541  0.5487  0.8591
   40MOL   H25815936   1.827   8.027   3.592  2.6733 -0.4898  1.2082
   40MOL   H25915937   1.637   0.083   3.699  0.9252 -0.4112 -1.3013
   40MOL   H26015938   1.324   7.969   3.995  0.6216  0.6144 -0.0065
   40MOL   H26115939   1.463   7.864   4.028 -0.9604  1.1316  3.1350
   40MOL   C26215940   1.378   7.847   3.822  0.1671 -0.4849  0.4670
   40MOL   C26315941   1.349   7.923   3.693  0.4727  0.2993 -0.4903
   40MOL   C26415942   1.400   7.874   3.567 -0.4194  0.4285 -0.1029
   40MOL   C26515943   1.382   7.942   3.446 -0.5549  0.1680  0.1164
   40MOL   C26615944   1.324   0.024   3.446  0.7673 -0.0939  0.1338
   40MOL   O26715945   1.310   0.098   3.333  0.3895  0.4160 -0.1559
   40MOL   C26815946   1.318   0.036   3.207  0.3947 -0.3295  0.1945
   40MOL   C26915947   1.282   0.077   3.571  0.2354  1.0516  0.8024
   40MOL   C27015948   1.290   0.009   3.695  0.3509  0.4870  0.3648
   40MOL   C27115949   1.272   7.743   3.837 -0.1785  0.1867 -0.1175
   40MOL   H27215950   1.475   7.809   3.790 -0.6617  0.0867 -2.8748
   40MOL   H27315951   1.445   7.776   3.569  1.5958  1.2906 -1.3225
   40MOL   H27415952   1.429   7.900   3.359 -0.7353  0.8954 -0.3325
   40MOL   H27515953   1.413   8.025   3.193  0.2515 -1.5424  3.2458
   40MOL   H27615954   1.320   0.113   3.130 -1.2800 -0.0731  0.3829
   40MOL   H27715955   1.237   8.007   3.183  1.6694 -0.9580 -2.4106
   40MOL   H27815956   1.243   0.177   3.571  0.2722  1.0672  0.5413
   40MOL   H27915957   1.257   0.056   3.787 -0.4346  0.8654 -0.1043
   40MOL   H28015958   1.170   7.779   3.853  0.7460  2.2333  1.3429
   40MOL   H28115959   1.272   7.680   3.748 -2.4163  2.2995 -1.7068
   40MOL   C28215960   1.297   7.650   3.955  0.1665 -0.2805  0.2121
   40MOL   C28315961   1.438   7.591   3.951  0.5205 -0.5573 -0.6304
   40MOL   C28415962   1.529   7.606   4.056 -0.4269 -0.0779 -0.4429
   40MOL   C28515963   1.657   7.557   4.055  0.1927  0.8230 -0.4601
   40MOL   C28615964   1.715   7.493   3.942  0.3756  1.4446 -0.0436
   40MOL   O28715965   1.845   7.459   3.953 -0.0651 -0.0902  0.2368
   40MOL   C28815966   1.896   7.376   3.853 -0.2937 -0.4387 -0.2052
   40MOL   C28915967   1.621   7.486   3.832  0.2857 -0.4730 -0.3743
   40MOL   C29015968   1.485   7.523   3.836 -0.8999 -0.4130 -0.1677
   40MOL   C29115969   1.191   7.538   3.971 -0.3477  0.1226  0.4656
   40MOL   H29215970   1.282   7.703   4.049 -1.2450 -1.5119  0.6992
   40MOL   H29315971   1.503   7.668   4.140  1.8169 -1.1710  1.0916
   40MOL   H29415972   1.721   7.565   4.142 -0.8980 -1.6519  0.5920
   40MOL   H29515973   2.005   7.386   3.858 -0.2814  0.8728 -2.3829
   40MOL   H29615974   1.856   7.278   3.879  2.0099 -0.7293  2.4811
   40MOL   H29715975   1.860   7.403   3.753  0.4067  0.0038 -0.3430
   40MOL   H29815976   1.650   7.433   3.742  0.8308 -2.7176  1.0749
   40MOL   H29915977   1.416   7.505   3.755 -0.6086 -2.3063 -0.0094
   40MOL   H30015978   1.097   7.593   3.983 -0.7033 -0.6106  1.0804
   40MOL   H30115979   1.174   7.483   3.879 -0.4002  2.2067 -0.8068
   40MOL   C30215980   1.218   7.445   4.087 -0.2177 -0.2788 -0.2204
   40MOL   C30315981   1.200   7.520   4.224 -0.1105  0.6417  0.1999
   40MOL   C30415982   1.076   7.566   4.264 -0.2526  0.3247  0.3968
   40MOL   C30515983   1.054   7.616   4.395  0.3533 -0.2288  0.5618
   40MOL   C30615984   1.164   7.618   4.486  0.1585  0.5897 -0.1269
   40MOL   O30715985   1.147   7.649   4.617  0.0201 -0.1804 -0.1986
   40MOL   C30815986   1.016   7.619   4.676  0.1050  0.3583  0.0806
   40MOL   C30915987   1.293   7.576   4.448  1.0664 -0.6792 -0.1488
   40MOL   C31015988   1.303   7.529   4.317 -0.4241 -0.0950 -0.1451
   40MOL   C31115989   1.128   7.323   4.081  0.4447 -0.6534  0.0851
   40MOL   H31215990   1.317   7.400   4.088 -0.6471 -1.3083 -1.5641
   40MOL   H31315991   0.991   7.555   4.199 -1.5391 -2.6466  2.4527
   40MOL   H31415992   0.955   7.647   4.423 -0.2733 -2.3848  0.8517
   40MOL   H31515993   1.026   7.604   4.783  2.4901  0.0867 -0.1488
   40MOL   H31615994   0.971   7.532   4.629  1.2305  0.7397 -1.7786
   40MOL   H31715995   0.946   7.701   4.657 -0.7963 -0.9213 -2.2817
   40MOL   H31815996   1.371   7.575   4.522  1.0858 -1.0610 -0.1688
   40MOL   H31915997   1.405   7.503   4.291 -0.6040 -0.6647 -0.2876
   40MOL   H32015998   1.044   7.338   4.013  1.9067 -0.1647 -1.6636
   40MOL   H32115999   1.081   7.297   4.176 -0.2708 -0.7527 -0.2882
   40MOL   C32216000   1.196   7.184   4.053  0.6356  0.1554 -0.6002
   40MOL   C32316001   1.281   7.194   3.927  0.0095 -0.1007 -0.0542
   40MOL   C32416002   1.421   7.187   3.942 -0.1952 -0.4964 -0.5518
   40MOL   C32516003   1.505   7.186   3.824 -0.2077  0.2327 -0.2478
   40MOL   C32616004   1.438   7.204   3.697 -0.9021  0.4972  0.0779
   40MOL   O32716005   1.516   7.233   3.588  0.6375  0.0343  0.0221
   40MOL   C32816006   1.488   7.198   3.457 -0.1277  0.3450 -0.0497
   40MOL   C32916007   1.300   7.210   3.682 -0.3600  0.5969 -0.0568
   40MOL   C33016008   1.225   7.201   3.804  0.0229 -0.0505  0.1196
   40MOL   C33116009   1.088   7.073   4.059 -0.3435 -0.1259  1.0228
   40MOL   H33216010   1.267   7.155   4.131  0.4112 -1.0034 -0.8287
   40MOL   H33316011   1.453   7.183   4.045  0.6706 -2.2545 -0.8810
   40MOL   H33416012   1.613   7.191   3.831 -0.0916 -2.5323  0.1111
   40MOL   H33516013   1.457   7.097   3.431 -2.1900  0.7840  0.6393
   40MOL   H33616014   1.578   7.211   3.396 -0.4201 -1.1125 -0.8257
   40MOL   H33716015   1.433   7.278   3.407  0.2109 -0.2253 -1.3668
   40MOL   H33816016   1.251   7.213   3.586 -1.6771  0.7996  0.6102
   40MOL   H33916017   1.117   7.196   3.804  0.0467 -0.6384  0.8644
   40MOL   H34016018   1.002   7.098   3.997 -0.1371 -0.8596  0.4311
   40MOL   H34116019   1.130   6.991   4.000 -0.6722  0.2207  0.2986
   40MOL   C34216020   1.048   7.008   4.198 -0.7826  0.0449  0.1981
   40MOL   C34316021   1.159   6.931   4.269  0.9458 -0.7695 -0.1218
   40MOL   C34416022   1.186   6.955   4.406 -0.6702 -0.1542  0.3534
   40MOL   C34516023   1.292   6.889   4.473  0.4565 -0.0197  0.0659
   40MOL   C34616024   1.364   6.790   4.404 -0.0036 -0.1628 -0.0797
   40MOL   O34716025   1.471   6.737   4.472  0.2279 -0.2543  0.5749
   40MOL   C34816026   1.462   6.595   4.493  0.3840 -0.2548  0.0024
   40MOL   C34916027   1.328   6.753   4.273  0.6242 -0.8341 -0.2578
   40MOL   C35016028   1.227   6.828   4.203 -0.2003  0.6599 -0.0693
   40MOL   C35116029   0.920   6.922   4.182 -0.0255 -0.1979  0.5406
   40MOL   H35216030   1.027   7.087   4.270 -1.3329  1.3325 -1.3382
   40MOL   H35316031   1.135   7.037   4.455 -1.3427 -0.6501  0.4790
   40MOL   H35416032   1.311   6.918   4.575 -0.9698 -0.7111  0.5427
   40MOL   H35516033   1.540   6.565   4.563  0.1122  0.2448  0.5307
   40MOL   H35616034   1.371   6.553   4.537  0.5360 -1.2248 -0.6046
   40MOL   H35716035   1.472   6.533   4.404  0.7104  0.6805 -0.6233
   40MOL   H35816036   1.385   6.672   4.228  1.0594 -0.5094 -0.2913
   40MOL   H35916037   1.198   6.794   4.105 -0.8180 -0.1096  0.3691
   40MOL   H36016038   0.939   6.846   4.106 -1.9981  1.8678 -2.1433
   40MOL   H36116039   0.902   6.868   4.275 -1.0448 -2.2877 -0.8261
   40MOL   C36216040   0.794   6.998   4.153 -0.0648  0.0375  0.2397
   40MOL   C36316041   0.774   7.112   4.245  0.2427 -0.1608  0.0352
   40MOL   C36416042   0.773   7.245   4.186 -0.3752 -0.1142 -0.2493
   40MOL   C36516043   0.742   7.352   4.272 -0.1556  0.2578 -0.0144
   40MOL   C36616044   0.718   7.335   4.415  0.7880  0.1817 -0.2097
   40MOL   O36716045   0.685   7.453   4.478 -0.4526 -0.5451  0.3079
   40MOL   C36816046   0.690   7.460   4.620 -0.3199 -0.5326 -0.5192
   40MOL   C36916047   0.710   7.200   4.465 -0.0411  0.2007 -0.3457
   40MOL   C37016048   0.750   7.090   4.386  0.1678 -0.3438  0.0662
   40MOL   C37116049   0.681   6.890   4.153  0.0383  0.2998  0.4175
   40MOL   H37216050   0.797   7.031   4.049 -2.6480 -2.7115 -0.7827
   40MOL   H37316051   0.804   7.252   4.083  0.6407  0.2415  0.0783
   40MOL   H37416052   0.743   7.447   4.221  1.8463 -1.3830 -3.1846
   40MOL   H37516053   0.711   7.367   4.674  0.4817  0.1543  0.3735
   40MOL   H37616054   0.766   7.523   4.665  0.0397 -1.1696 -0.2171
   40MOL   H37716055   0.596   7.485   4.668  0.1756 -0.4668  0.4282
   40MOL   H37816056   0.683   7.195   4.569  1.2018  1.5218  0.0603
   40MOL   H37916057   0.753   6.995   4.436  2.5444 -0.2891  0.1118
   40MOL   H38016058   0.701   6.808   4.084 -0.4172  0.1121  0.5101
   40MOL   H38116059   0.691   6.845   4.252 -0.0349  3.5983  2.0105
   40MOL   C38216060   0.532   6.939   4.151  0.3993 -0.7870  0.4141
   40MOL   C38316061   0.444   6.828   4.208 -0.7331  0.0625 -0.3796
   40MOL   C38416062   0.355   6.859   4.311 -0.3332  0.4300 -0.6236
   40MOL   C38516063   0.282   6.757   4.382  0.0265  0.3175  0.3618
   40MOL   C38616064   0.285   6.624   4.329  0.0847 -0.1762 -0.1220
   40MOL   O38716065   0.227   6.521   4.400  0.4367 -0.0798 -0.3346
   40MOL   C38816066   0.099   6.547   4.454  0.7582 -0.3126  0.1863
   40MOL   C38916067   0.373   6.593   4.223  0.3958 -0.0146  0.6881
   40MOL   C39016068   0.456   6.690   4.171  0.3083  0.5610  0.5456
   40MOL   C39116069   0.489   6.971   4.003  0.3529  0.3215  0.2247
   40MOL   H39216070   0.519   7.026   4.215 -0.6578  0.8070 -1.9146
   40MOL   H39316071   0.346   6.962   4.340 -0.3119  1.1157 -2.9880
   40MOL   H39416072   0.212   6.779   4.462 -0.9984  0.6427 -0.6016
   40MOL   H39516073   0.038   6.463   4.487 -0.3036  0.7684  1.0261
   40MOL   H39616074   0.040   6.588   4.372 -1.0948 -0.4356  1.4333
   40MOL   H39716075   0.104   6.624   4.531 -1.5241 -0.0519  0.1203
   40MOL   H39816076   0.387   6.494   4.183 -0.6684  0.7369 -1.5739
   40MOL   H39916077   0.539   6.671   4.104  0.8155  2.3621  0.6352
   40MOL   H40016078   0.478   6.883   3.939  1.4959 -1.1489  2.0238
   40MOL   H40116079   0.573   7.024   3.960 -2.0745  2.6864 -1.7648
   40MOL   H40216080   0.408   7.043   3.995 -1.8841 -2.1063  0.0162
   41MOL     C116081   0.121   7.771   7.679  0.6475 -0.1323 -0.5935
   41MOL     C216082   0.006   7.682   7.730  0.4309  0.1969  0.9166
   41MOL     C316083   7.986   7.590   7.653  0.2481  0.0795 -0.1542
   41MOL     C416084   7.865   7.528   7.691 -0.9602 -0.1436 -0.4106
   41MOL     C516085   7.811   7.551   7.824  0.4125 -1.1380 -0.2828
   41MOL     O616086   7.691   7.500   7.869 -0.0779 -0.4997  0.3777
   41MOL     C716087   7.591   7.489   7.773  0.4814 -0.1119 -0.2703
   41MOL     C816088   7.883   7.630   7.912  0.2192  0.7976 -0.5031
   41MOL     C916089   7.996   7.693   7.864 -0.3219  0.3226 -0.4161
   41MOL    C1016090   0.063   7.900   7.638  0.0286 -0.0870 -0.2542
   41MOL    H1116091   0.171   7.729   7.592  1.1152 -2.3901  0.7109
   41MOL    H1216092   8.021   7.562   7.554 -2.0985  0.6614 -1.1938
   41MOL    H1316093   7.813   7.458   7.627 -0.5929  0.4102 -1.3221
   41MOL    H1416094   7.591   7.579   7.712 -0.2768 -0.7953 -1.3082
   41MOL    H1516095   7.594   7.396   7.715 -1.0341 -0.1812 -0.2753
   41MOL    H1616096   7.502   7.489   7.835  1.5916  1.9810  1.3775
   41MOL    H1716097   7.842   7.645   8.010  0.0967  0.4386 -0.4985
   41MOL    H1816098   0.001   7.768   7.928  0.1343 -1.2733  1.1623
   41MOL    H1916099   8.013   7.884   7.578  0.5069 -1.3680 -0.6385
   41MOL    H2016100   0.028   7.950   7.728  0.0405 -1.2296  0.3941
   41MOL    H2116101   0.189   7.775   7.764  0.1093  0.8498 -0.2025
   41MOL    C2216102   0.147   7.985   7.548 -0.3626 -0.2850  0.1716
   41MOL    C2316103   0.173   7.926   7.410 -0.7089 -0.1446  0.0423
   41MOL    C2416104   0.305   7.893   7.369  0.0504 -0.3500 -0.6246
   41MOL    C2516105   0.335   7.830   7.248 -0.1242 -0.1706 -0.3308
   41MOL    C2616106   0.230   7.791   7.163 -0.5143 -0.1328  0.0144
   41MOL    O2716107   0.243   7.717   7.053 -0.0373 -0.5738  0.1947
   41MOL    C2816108   0.367   7.684   7.004 -0.0339  0.3319 -0.5005
   41MOL    C2916109   0.096   7.826   7.197 -0.0194 -0.0725 -0.0291
   41MOL    C3016110   0.073   7.883   7.325  0.7469 -0.4697  0.3791
   41MOL    C3116111   0.095   0.088   7.536  0.0971  0.4152  0.0397
   41MOL    H3216112   0.248   7.985   7.591 -0.0883  2.2325 -0.3844
   41MOL    H3316113   0.386   7.928   7.431  0.1345 -0.2364 -0.7976
   41MOL    H3416114   0.436   7.801   7.222 -0.2247 -1.1366  0.3511
   41MOL    H3516115   0.416   7.622   7.079 -1.5359 -3.4232 -2.4866
   41MOL    H3616116   0.427   7.773   6.984 -0.5437  0.7775 -0.0786
   41MOL    H3716117   0.348   7.632   6.910 -2.5638  1.2867 -0.5637
   41MOL    H3816118   0.017   7.800   7.128 -0.0824  1.5602 -0.5908
   41MOL    H3916119   8.010   7.890   7.359 -0.1404 -1.2743 -2.0442
   41MOL    H4016120   8.029   0.084   7.512  0.0283 -2.6802  0.6094
   41MOL    H4116121   0.105   0.127   7.638 -1.3503  0.6497  0.0983
   41MOL    C4216122   0.166   0.181   7.431 -0.5764 -0.1698  0.7854
   41MOL    C4316123   0.278   0.268   7.485  0.7557 -0.3808 -0.3346
   41MOL    C4416124   0.256   0.364   7.590  0.9544 -0.0317  0.4576
   41MOL    C4516125   0.357   0.449   7.635 -0.1415  0.1098  0.2990
   41MOL    C4616126   0.486   0.447   7.569 -0.8481 -0.0038 -0.2916
   41MOL    O4716127   0.591   0.516   7.621 -0.5053 -0.2293  0.1213
   41MOL    C4816128   0.574   0.614   7.719 -0.0922  0.8720  0.1188
   41MOL    C4916129   0.504   0.357   7.462 -0.1651 -0.3752 -0.0142
   41MOL    C5016130   0.404   0.266   7.425 -0.3159  0.2243 -0.4181
   41MOL    C5116131   0.061   0.281   7.373  0.5520 -0.5621  0.8856
   41MOL    H5216132   0.199   0.130   7.340 -0.6603 -0.2710  0.8114
   41MOL    H5316133   0.164   0.372   7.645 -0.0001 -2.1016 -0.7731
   41MOL    H5416134   0.338   0.523   7.712  2.0489  0.8413  0.1593
   41MOL    H5516135   0.668   0.669   7.723 -0.1145  1.1080 -2.0479
   41MOL    H5616136   0.491   0.683   7.705 -3.8082 -3.0117  1.9571
   41MOL    H5716137   0.564   0.564   7.815 -1.3561 -1.2070 -1.0741
   41MOL    H5816138   0.599   0.362   7.409  1.0845 -0.0531  2.1804
   41MOL    H5916139   0.419   0.198   7.342 -2.4705  0.1257 -0.7681
   41MOL    H6016140   0.111   0.372   7.339 -0.0678  0.3473  2.3416
   41MOL    H6116141   0.009   0.318   7.462  1.3028 -2.1623  2.0183
   41MOL    C6216142   8.001   0.226   7.272  0.1565 -0.6155 -0.0178
   41MOL    C6316143   0.001   0.234   7.132 -0.3623  0.0274  0.3613
   41MOL    C6416144   0.036   0.358   7.073  0.0131  0.3631 -0.1676
   41MOL    C6516145   0.089   0.371   6.943 -0.3958  0.3896 -0.5433
   41MOL    C6616146   0.128   0.255   6.871  0.2640 -0.7264 -0.2900
   41MOL    O6716147   0.185   0.263   6.747 -0.6869  0.0859 -0.1466
   41MOL    C6816148   0.240   0.148   6.688  0.0049  0.0214 -0.2919
   41MOL    C6916149   0.096   0.126   6.929  0.0990 -0.2737  0.2128
   41MOL    C7016150   0.029   0.118   7.055 -0.3711  0.8451  0.3361
   41MOL    C7116151   7.854   0.277   7.295  0.1515  0.1580 -0.5026
   41MOL    H7216152   7.993   0.119   7.293 -1.9245 -0.2898  1.0791
   41MOL    H7316153   0.032   0.454   7.123  1.6634  0.2772  0.1468
   41MOL    H7416154   0.116   0.467   6.901  0.3254  0.2496 -0.4073
   41MOL    H7516155   0.299   0.090   6.759  1.2680 -1.1465 -2.2500
   41MOL    H7616156   0.303   0.165   6.600  0.1565 -2.9955 -0.7992
   41MOL    H7716157   0.166   0.077   6.653  1.9636 -1.6519 -1.1495
   41MOL    H7816158   0.114   0.034   6.875  0.0921 -0.3978  0.4188
   41MOL    H7916159   8.029   0.025   7.094 -1.9895  0.3739 -2.2935
   41MOL    H8016160   7.828   0.256   7.399 -4.4196 -1.7461 -1.8876
   41MOL    H8116161   7.847   0.384   7.280 -1.9782  0.2526  0.9117
   41MOL    C8216162   7.743   0.206   7.212 -0.4341  0.2493  0.5894
   41MOL    C8316163   7.754   0.053   7.234  0.2398 -0.6202  0.3667
   41MOL    C8416164   7.751   8.035   7.360 -0.6256 -0.8519  0.3208
   41MOL    C8516165   7.753   7.897   7.375 -0.5185 -0.2278 -0.3467
   41MOL    C8616166   7.779   7.813   7.264 -0.1130 -0.1553 -0.0600
   41MOL    O8716167   7.805   7.678   7.288  0.1220 -0.1925 -0.0080
   41MOL    C8816168   7.788   7.585   7.178 -0.4877  0.2528 -0.8555
   41MOL    C8916169   7.776   7.876   7.132  0.2987  0.4188  0.2466
   41MOL    C9016170   7.762   8.009   7.119 -0.2172  0.2856 -0.1656
   41MOL    C9116171   7.604   0.274   7.232 -0.4329 -0.0354 -0.0507
   41MOL    H9216172   7.775   0.211   7.108  0.0457  0.4745  0.7492
   41MOL    H9316173   7.718   0.054   7.445  0.4408  0.8658 -0.4178
   41MOL    H9416174   7.763   7.851   7.472  2.4956 -1.5095 -1.1999
   41MOL    H9516175   7.852   7.616   7.095 -0.5369  1.6195 -0.3902
   41MOL    H9616176   7.693   7.565   7.130 -0.7470  1.2107 -0.7525
   41MOL    H9716177   7.833   7.493   7.216  1.7734  1.8673  0.5392
   41MOL    H9816178   7.769   7.816   7.043 -0.0777 -0.7928  1.0741
   41MOL    H9916179   7.746   0.014   7.022 -0.6592  0.3753 -0.0530
   41MOL   H10016180   7.546   0.192   7.274 -0.2072 -0.5966 -0.8244
   41MOL   H10116181   7.611   0.353   7.307  0.1612  0.6118 -0.7742
   41MOL   C10216182   7.546   0.333   7.100  0.7030  0.0717 -0.3878
   41MOL   C10316183   7.400   0.374   7.106  0.1544 -0.0429 -0.3009
   41MOL   C10416184   7.360   0.455   7.208  0.5130  0.2833 -0.1032
   41MOL   C10516185   7.227   0.508   7.208  0.0892 -0.1366  1.4092
   41MOL   C10616186   7.131   0.460   7.119  0.2533  0.5123  0.0035
   41MOL   O10716187   7.005   0.510   7.141  0.8162 -0.5134  0.1416
   41MOL   C10816188   6.901   0.440   7.082  0.1230  0.1216  0.5606
   41MOL   C10916189   7.168   0.371   7.019  0.2919  0.1114 -0.1803
   41MOL   C11016190   7.303   0.330   7.006 -0.2333  0.5910  0.2804
   41MOL   C11116191   7.630   0.445   7.046 -0.4666 -0.2566  0.0426
   41MOL   H11216192   7.551   0.243   7.039 -0.6496 -1.1167  1.2201
   41MOL   H11316193   7.429   0.483   7.287  1.0633  1.2385 -0.9071
   41MOL   H11416194   7.206   0.586   7.280 -1.5399  0.6813  0.0596
   41MOL   H11516195   6.810   0.470   7.136  0.1063  2.9036 -0.8955
   41MOL   H11616196   6.895   0.465   6.976 -1.1932 -0.8127  0.4053
   41MOL   H11716197   6.916   0.333   7.082  3.6429  0.5623 -0.9274
   41MOL   H11816198   7.103   0.339   6.939 -0.2766  0.3634  0.1809
   41MOL   H11916199   7.333   0.263   6.928 -1.2380 -0.2292  0.5913
   41MOL   H12016200   7.597   0.534   7.100 -2.0796  0.6190 -2.2732
   41MOL   H12116201   7.727   0.424   7.091  0.2867  3.1361  0.1729
   41MOL   C12216202   7.652   0.454   6.890  0.1100 -0.0877  0.0188
   41MOL   C12316203   7.678   0.316   6.819 -0.4600  0.1969 -0.4358
   41MOL   C12416204   7.805   0.256   6.826  0.1329 -0.1117  0.7322
   41MOL   C12516205   7.826   0.144   6.743 -0.0981 -0.2065 -0.3209
   41MOL   C12616206   7.719   0.086   6.673 -0.3406  0.4647  0.6089
   41MOL   O12716207   7.729   8.010   6.599  0.1343  0.4350  0.1644
   41MOL   C12816208   7.860   7.947   6.596 -0.2018 -0.2272 -0.1181
   41MOL   C12916209   7.589   0.134   6.687  0.1640 -0.2269 -0.2892
   41MOL   C13016210   7.566   0.252   6.760 -0.4217  0.0727  0.6445
   41MOL   C13116211   7.760   0.562   6.852  0.1392 -0.1082 -0.1999
   41MOL   H13216212   7.553   0.481   6.853  0.2578  2.1304  1.1724
   41MOL   H13316213   7.894   0.303   6.866  1.3046 -0.2511 -1.6143
   41MOL   H13416214   7.926   0.103   6.739 -0.3894 -1.0621  0.7833
   41MOL   H13516215   7.906   7.940   6.695 -0.6381  1.0692  0.1758
   41MOL   H13616216   7.851   7.857   6.535  0.1276  0.2674 -0.8987
   41MOL   H13716217   7.922   8.011   6.534  2.1020 -0.9705  1.3641
   41MOL   H13816218   7.509   0.087   6.631  0.0981 -0.0209 -0.3667
   41MOL   H13916219   7.469   0.299   6.768 -1.9326 -2.5800 -0.9902
   41MOL   H14016220   7.857   0.523   6.883  0.1255 -1.2901 -1.5913
   41MOL   H14116221   7.733   0.653   6.906 -0.1959 -0.7536  0.7262
   41MOL   C14216222   7.772   0.583   6.695 -0.7628  0.2008  0.7522
   41MOL   C14316223   7.646   0.603   6.617  0.2548  0.0657 -0.5124
   41MOL   C14416224   7.560   0.718   6.638  0.1665  0.1504  0.5544
   41MOL   C14516225   7.440   0.730   6.568 -0.3560  0.7197  0.6219
   41MOL   C14616226   7.398   0.628   6.473 -0.3316  0.1342 -0.3593
   41MOL   O14716227   7.277   0.643   6.412  0.2785  0.3056 -0.3626
   41MOL   C14816228   7.241   0.546   6.314  0.1282  0.2023  1.0399
   41MOL   C14916229   7.482   0.517   6.454 -0.2684  0.7482 -0.2629
   41MOL   C15016230   7.602   0.500   6.528 -0.0370  0.0378  0.3912
   41MOL   C15116231   7.872   0.690   6.653  0.2035 -0.5635  0.2697
   41MOL   H15216232   7.813   0.491   6.654  1.0701  1.1124  0.4948
   41MOL   H15316233   7.585   0.790   6.714 -1.0458  3.2363 -1.8858
   41MOL   H15416234   7.373   0.813   6.585 -1.7824 -0.1037 -0.7796
   41MOL   H15516235   7.223   0.447   6.357  1.5883 -0.5404 -0.0022
   41MOL   H15616236   7.144   0.578   6.277  0.8549  0.6996 -0.4628
   41MOL   H15716237   7.315   0.537   6.235 -1.1070 -1.5227  0.0229
   41MOL   H15816238   7.443   0.438   6.392  2.3771 -3.2507  2.9229
   41MOL   H15916239   7.653   0.405   6.524  0.1580  0.1670 -0.1723
   41MOL   H16016240   7.968   0.686   6.705  0.5630  3.0915  0.0190
   41MOL   H16116241   7.823   0.784   6.677  0.4875  0.0189 -1.3693
   41MOL   C16216242   7.897   0.694   6.499  0.5309  0.0302 -0.5922
   41MOL   C16316243   7.947   0.564   6.440  0.0379 -1.2108 -0.4948
   41MOL   C16416244   0.024   0.503   6.492 -0.4012 -0.0060  0.3471
   41MOL   C16516245   0.052   0.367   6.455 -0.2357  0.6441  0.1728
   41MOL   C16616246   8.021   0.298   6.357  0.3298  0.0390  0.8205
   41MOL   O16716247   0.029   0.172   6.331 -0.3638 -0.1192 -0.0550
   41MOL   C16816248   7.994   0.100   6.231  0.0225  0.6510  0.3924
   41MOL   C16916249   7.916   0.368   6.287 -0.1276 -0.3590 -0.6539
   41MOL   C17016250   7.874   0.490   6.345  0.2222 -0.9873  0.3856
   41MOL   C17116251   8.001   0.804   6.466 -0.3478 -0.1602  0.4072
   41MOL   H17216252   7.805   0.722   6.450  0.8106  0.5646 -0.8134
   41MOL   H17316253   0.086   0.548   6.569 -1.8498  2.6791  0.0100
   41MOL   H17416254   0.137   0.322   6.504 -2.4732 -0.8587  2.8123
   41MOL   H17516255   8.011   0.134   6.128 -1.1890 -1.5086 -0.5359
   41MOL   H17616256   7.887   0.100   6.250 -0.0836  0.8496 -0.2002
   41MOL   H17716257   8.016   8.033   6.232 -0.7938  0.4844  0.5954
   41MOL   H17816258   7.856   0.324   6.209 -0.1880  0.9662 -1.3519
   41MOL   H17916259   7.790   0.540   6.299  0.0885 -1.6363 -0.0789
   41MOL   H18016260   8.016   0.795   6.358 -0.9832  0.3089  0.2763
   41MOL   H18116261   0.060   0.777   6.501 -0.6032 -1.3208  0.2632
   41MOL   C18216262   7.958   0.944   6.498  0.3811 -0.0367  0.0261
   41MOL   C18316263   7.833   0.985   6.423  0.5724  0.4055 -0.3372
   41MOL   C18416264   7.729   1.047   6.497  0.3346 -0.3507  0.3654
   41MOL   C18516265   7.604   1.079   6.436 -0.0399  0.2052 -0.3706
   41MOL   C18616266   7.586   1.063   6.298  0.5205  0.0677  0.6179
   41MOL   O18716267   7.466   1.097   6.242 -0.3120  0.0884 -0.3365
   41MOL   C18816268   7.350   1.101   6.323 -0.3969 -0.0971  0.1981
   41MOL   C18916269   7.696   1.007   6.218 -0.0103  0.1501 -0.2914
   41MOL   C19016270   7.817   0.970   6.283  0.0309 -0.5063 -0.5973
   41MOL   C19116271   0.031   1.046   6.491 -0.2461  0.5493  0.4902
   41MOL   H19216272   7.941   0.945   6.606 -1.8390  1.6977 -0.3060
   41MOL   H19316273   7.735   1.080   6.600 -0.0472  0.5183  0.1189
   41MOL   H19416274   7.535   1.126   6.504 -2.2583 -0.3749 -2.1520
   41MOL   H19516275   7.341   1.195   6.376  0.4819  0.2105 -0.1731
   41MOL   H19616276   7.350   1.014   6.388 -0.6460 -0.9079 -0.8677
   41MOL   H19716277   7.262   1.100   6.259  0.8357 -0.5969 -1.5642
   41MOL   H19816278   7.679   0.995   6.112 -2.2535 -0.4167  0.1125
   41MOL   H19916279   7.890   0.927   6.215 -0.1444 -0.4259 -0.8390
   41MOL   H20016280   0.123   1.029   6.548  0.3392  1.3059 -0.2102
   41MOL   H20116281   0.051   1.050   6.384 -4.2649  1.0499 -0.2873
   41MOL   C20216282   8.030   1.190   6.527  0.4110 -0.1417  0.4260
   41MOL   C20316283   0.110   1.277   6.491 -0.3747  0.4958  0.2590
   41MOL   C20416284   0.104   1.370   6.383 -0.0738  0.3394  0.4686
   41MOL   C20516285   0.211   1.452   6.350 -0.3897 -0.2751 -0.2125
   41MOL   C20616286   0.334   1.438   6.419 -0.1802 -0.1570  0.2065
   41MOL   O20716287   0.451   1.507   6.390  0.0745 -0.0319 -0.1487
   41MOL   C20816288   0.460   1.588   6.269  0.6642 -0.3671  0.3508
   41MOL   C20916289   0.337   1.359   6.530 -0.4549  0.2521  0.1100
   41MOL   C21016290   0.229   1.278   6.567 -0.1606  0.5406 -0.3613
   41MOL   C21116291   7.985   1.206   6.677 -0.0058 -0.1502  0.1618
   41MOL   H21216292   7.954   1.220   6.455  1.0006 -1.2418 -0.6735
   41MOL   H21316293   0.011   1.370   6.328 -0.2082  0.5290  0.6956
   41MOL   H21416294   0.198   1.515   6.264  1.1844 -0.7229 -0.7852
   41MOL   H21516295   0.434   1.527   6.182  1.7625  2.6009 -2.1369
   41MOL   H21616296   0.397   1.677   6.264 -0.4166 -1.2201 -2.1493
   41MOL   H21716297   0.556   1.635   6.248  0.2757  0.1872 -0.2140
   41MOL   H21816298   0.422   1.354   6.597 -2.2768  0.2272  2.5131
   41MOL   H21916299   0.255   1.204   6.641  1.6001  0.0419 -1.4570
   41MOL   H22016300   0.025   1.167   6.740 -0.2096  0.1761  0.6299
   41MOL   H22116301   7.895   1.149   6.701  0.3924 -0.8039  0.0845
   41MOL   C22216302   7.962   1.348   6.716 -0.2364 -0.5344  0.8044
   41MOL   C22316303   7.860   1.429   6.632 -0.5235  0.4125  1.0690
   41MOL   C22416304   7.909   1.540   6.555  0.1700  0.7226 -0.4785
   41MOL   C22516305   7.825   1.610   6.469  0.4669  0.5055  0.2626
   41MOL   C22616306   7.684   1.580   6.459  0.1162 -0.4167 -0.0107
   41MOL   O22716307   7.612   1.660   6.376 -0.0011  0.1474  0.1617
   41MOL   C22816308   7.470   1.629   6.357  0.2426  0.5538  0.0850
   41MOL   C22916309   7.637   1.464   6.532 -0.2960  0.4638 -0.1418
   41MOL   C23016310   7.719   1.395   6.626  0.2625 -1.0462  0.4745
   41MOL   C23116311   7.921   1.350   6.859 -0.5050  0.3871  0.6519
   41MOL   H23216312   0.022   1.392   6.710 -0.2609 -0.5849 -0.1332
   41MOL   H23316313   8.012   1.570   6.557  0.2700  0.9494 -4.1734
   41MOL   H23416314   7.872   1.697   6.426 -0.5469  0.2730 -1.3482
   41MOL   H23516315   7.425   1.655   6.453 -1.5512  0.3505 -0.6912
   41MOL   H23616316   7.434   1.685   6.271  0.8452 -0.9213 -1.1620
   41MOL   H23716317   7.449   1.524   6.336  0.4522  0.4166  0.5539
   41MOL   H23816318   7.541   1.416   6.515  0.4196 -0.7592 -0.8030
   41MOL   H23916319   7.687   1.299   6.663  0.4251 -0.9695  0.8141
   41MOL   H24016320   7.823   1.302   6.864 -1.8698  2.6470 -2.6785
   41MOL   H24116321   7.984   1.293   6.928  0.7306  0.8649 -0.0722
   41MOL   C24216322   7.897   1.491   6.913  0.6736  0.0079  0.2050
   41MOL   C24316323   7.814   1.485   7.038  0.0242  0.1773  0.1337
   41MOL   C24416324   7.859   1.412   7.150  0.6925  0.2708 -0.2813
   41MOL   C24516325   7.769   1.395   7.255  0.0077  0.1831  0.0390
   41MOL   C24616326   7.638   1.447   7.261 -0.5685 -0.4030  0.6369
   41MOL   O24716327   7.558   1.411   7.371 -0.5942 -0.3231 -0.3144
   41MOL   C24816328   7.420   1.435   7.365 -0.1263 -0.1008 -0.0157
   41MOL   C24916329   7.599   1.515   7.148  0.2240 -0.2138 -0.8018
   41MOL   C25016330   7.679   1.527   7.030  0.3571 -0.1227  0.5057
   41MOL   C25116331   8.023   1.573   6.945 -0.4016 -0.3392  0.2414
   41MOL   H25216332   7.835   1.549   6.844 -1.0039  0.4612  2.0286
   41MOL   H25316333   7.955   1.362   7.161 -0.3664 -1.8829 -0.6157
   41MOL   H25416334   7.793   1.340   7.345 -1.4585  1.3298  1.1690
   41MOL   H25516335   7.406   1.537   7.402  1.4554  0.6929 -1.5434
   41MOL   H25616336   7.374   1.416   7.268  0.7161  0.1656 -0.4713
   41MOL   H25716337   7.372   1.374   7.441 -1.4977  0.7329 -0.1873
   41MOL   H25816338   7.504   1.566   7.144 -0.6748 -1.9002 -1.8273
   41MOL   H25916339   7.634   1.575   6.945 -0.8785  2.6271  2.6264
   41MOL   H26016340   0.046   1.565   6.856  0.0558  0.1494  0.5202
   41MOL   H26116341   0.035   1.515   7.021 -0.7195 -3.7204 -1.9836
   41MOL   C26216342   8.011   1.725   6.988 -0.3573  0.6380 -0.1666
   41MOL   C26316343   7.925   1.795   6.883  0.0024  0.7247 -0.6454
   41MOL   C26416344   7.971   1.840   6.754  0.3298 -0.4034  0.5304
   41MOL   C26516345   7.889   1.910   6.662  0.0266 -0.4910  0.0727
   41MOL   C26616346   7.755   1.941   6.693  0.6610  0.2688  0.1225
   41MOL   O26716347   7.665   2.000   6.605 -0.3666  0.8871  0.4797
   41MOL   C26816348   7.704   2.006   6.470  0.1243  0.2759  0.6321
   41MOL   C26916349   7.710   1.905   6.825 -0.3416 -0.0102 -0.2941
   41MOL   C27016350   7.793   1.837   6.913 -0.6943  0.7045  0.0596
   41MOL   C27116351   0.098   1.814   7.000  0.0114  0.7445 -0.6543
   41MOL   H27216352   7.953   1.726   7.080 -2.9719 -0.4468 -1.7522
   41MOL   H27316353   0.032   1.823   6.718 -0.0732 -0.5963 -0.5289
   41MOL   H27416354   7.930   1.931   6.565  0.2775 -0.9960  0.0669
   41MOL   H27516355   7.798   2.061   6.473  1.1723 -1.5567  2.5714
   41MOL   H27616356   7.630   2.068   6.419  1.9923  2.6449  0.7164
   41MOL   H27716357   7.729   1.910   6.423 -2.2712 -0.1290  0.0966
   41MOL   H27816358   7.605   1.920   6.844 -0.4044 -1.0308  0.1656
   41MOL   H27916359   7.751   1.814   7.010  1.2777  1.1818  1.0703
   41MOL   H28016360   0.167   1.791   6.919 -0.3952  0.4424 -0.9168
   41MOL   H28116361   0.063   1.915   6.982  3.7673  2.3436  0.5919
   41MOL   C28216362   0.164   1.823   7.145 -0.3445  0.0144 -0.6862
   41MOL   C28316363   0.219   1.687   7.189  0.6619 -0.2351  0.5117
   41MOL   C28416364   0.133   1.596   7.255  0.3262  0.3634 -0.0239
   41MOL   C28516365   0.181   1.477   7.312  0.5436  0.0816  0.6965
   41MOL   C28616366   0.322   1.444   7.299  0.9114  0.4381  0.4112
   41MOL   O28716367   0.389   1.338   7.340 -0.0752 -0.0492 -0.0630
   41MOL   C28816368   0.316   1.240   7.409 -1.1743  0.7084  0.1968
   41MOL   C28916369   0.403   1.536   7.235 -0.0321  0.0478  0.7611
   41MOL   C29016370   0.355   1.654   7.183  0.1191  0.3500  0.1229
   41MOL   C29116371   0.094   1.892   7.260 -0.0053  0.7548  0.2575
   41MOL   H29216372   0.251   1.888   7.133 -1.6724  2.0429  0.5464
   41MOL   H29316373   0.030   1.629   7.265 -0.3043 -1.3965 -0.6063
   41MOL   H29416374   0.114   1.408   7.360  1.7512 -1.2582  0.5048
   41MOL   H29516375   0.261   1.177   7.339 -0.6624 -0.8012  1.1323
   41MOL   H29616376   0.381   1.174   7.466  0.0337  0.0452 -1.9056
   41MOL   H29716377   0.248   1.276   7.487 -0.1379 -2.4861  2.7351
   41MOL   H29816378   0.509   1.517   7.232 -0.1943 -0.7641  0.0530
   41MOL   H29916379   0.420   1.714   7.122  1.2733 -0.8877  0.1253
   41MOL   H30016380   0.075   1.997   7.237  0.4092  0.7373 -0.1613
   41MOL   H30116381   8.037   1.850   7.287  0.4145  0.6950  1.7086
   41MOL   C30216382   0.170   1.894   7.397 -0.5272 -1.1985  0.1990
   41MOL   C30316383   0.306   1.964   7.378  0.1971 -0.0342 -0.0488
   41MOL   C30416384   0.421   1.911   7.439 -0.3684  0.0718  0.5208
   41MOL   C30516385   0.532   1.994   7.461  0.0915  0.2552  0.8507
   41MOL   C30616386   0.531   2.119   7.401 -0.1206  0.2140 -0.3866
   41MOL   O30716387   0.639   2.207   7.409 -0.3058 -0.2700  0.6643
   41MOL   C30816388   0.724   2.193   7.523  0.1394 -0.2705 -0.2247
   41MOL   C30916389   0.428   2.161   7.322  0.4068  0.1876 -0.7593
   41MOL   C31016390   0.308   2.090   7.314 -0.2741 -0.2616  0.2189
   41MOL   C31116391   0.093   1.964   7.502  0.0193  0.0429 -0.8740
   41MOL   H31216392   0.183   1.790   7.426  0.4435 -1.6956 -1.9201
   41MOL   H31316393   0.417   1.808   7.472  0.5079  0.3031  1.3666
   41MOL   H31416394   0.613   1.951   7.518  0.1798 -1.4226 -0.5337
   41MOL   H31516395   0.672   2.240   7.606 -1.4700  2.1251 -2.5197
   41MOL   H31616396   0.816   2.250   7.508 -0.4269  0.7492  0.1368
   41MOL   H31716397   0.769   2.097   7.550 -1.1749 -1.0465 -0.7282
   41MOL   H31816398   0.437   2.258   7.273 -1.1180 -0.0032 -1.4472
   41MOL   H31916399   0.225   2.129   7.258  1.2296  0.0114 -1.8995
   41MOL   H32016400   8.024   1.960   7.496  0.0406 -2.0426 -0.1532
   41MOL   H32116401   0.124   2.069   7.500 -0.3955  0.1526 -1.6358
   41MOL   C32216402   0.113   1.903   7.639  0.7202 -0.4095  1.2421
   41MOL   C32316403   0.036   1.773   7.649  0.1795 -0.3304 -0.0617
   41MOL   C32416404   0.102   1.650   7.665 -0.3953  0.4813 -0.4108
   41MOL   C32516405   0.026   1.535   7.673  0.4069  0.6419 -0.6146
   41MOL   C32616406   7.925   1.539   7.682  0.4904  0.1382 -0.3594
   41MOL   O32716407   7.861   1.420   7.712 -0.1843  0.8558  0.4424
   41MOL   C32816408   7.720   1.410   7.670 -0.3186 -0.2009  0.3248
   41MOL   C32916409   7.857   1.662   7.675  0.5110  0.1213  0.3833
   41MOL   C33016410   7.931   1.777   7.661 -0.2201 -0.1237  0.2892
   41MOL   C33116411   0.084   2.007   7.758  0.0512  0.1918  0.3076
   41MOL   H33216412   0.215   1.870   7.656  1.3938  1.5006  0.9219
   41MOL   H33316413   0.210   1.649   7.668 -0.4491  0.2265  1.7686
   41MOL   H33416414   0.063   1.436   7.693 -1.0681 -0.1538 -1.7019
   41MOL   H33516415   7.656   1.473   7.731  0.5520 -0.5914  1.6586
   41MOL   H33616416   7.677   1.311   7.686 -0.2836  0.0420  2.0060
   41MOL   H33716417   7.726   1.437   7.564  0.0905  0.7188  0.5818
   41MOL   H33816418   7.749   1.672   7.675  0.4780 -0.1875 -0.4209
   41MOL   H33916419   7.876   1.870   7.659 -0.1899 -0.1147 -1.6788
   41MOL   H34016420   0.100   2.109   7.723  0.3441  0.6412  1.7283
   41MOL   H34116421   8.020   1.993   7.786 -0.3307  1.1963 -0.6038
   41MOL   C34216422   0.192   1.988   7.866 -0.4196  0.4511  1.1595
   41MOL   C34316423   0.125   2.019   8.007 -0.1945  0.3896  0.2806
   41MOL   C34416424   0.115   1.919   0.066 -0.6469  0.6551  0.5818
   41MOL   C34516425   0.033   1.935   0.177 -0.9331 -0.1314 -0.1226
   41MOL   C34616426   8.011   2.053   0.205 -0.0317  1.3957  0.5034
   41MOL   O34716427   7.940   2.073   0.321 -0.0370  0.2873 -0.4687
   41MOL   C34816428   7.810   2.132   0.312 -0.3750 -0.0119 -0.3359
   41MOL   C34916429   8.027   2.158   0.109 -0.1333 -0.3897  0.8345
   41MOL   C35016430   0.059   2.144   8.025 -0.2832 -0.4528 -0.3485
   41MOL   C35116431   0.312   2.079   7.838  0.1392  0.2085 -0.4251
   41MOL   H35216432   0.221   1.884   7.882  1.0333  0.7850  0.7425
   41MOL   H35316433   0.167   1.827   0.045  0.3945  1.2413  0.5622
   41MOL   H35416434   0.033   1.851   0.246  1.6111 -0.7667 -0.8420
   41MOL   H35516435   7.820   2.239   0.331  0.8097 -0.0701 -0.5964
   41MOL   H35616436   7.764   2.105   0.217 -1.2699 -0.9578  0.3578
   41MOL   H35716437   7.746   2.090   0.390  1.4226 -0.4353  0.9481
   41MOL   H35816438   7.971   2.250   0.111 -2.1781 -1.6090  0.9711
   41MOL   H35916439   0.059   2.226   7.955  0.4911  0.1323  0.3207
   41MOL   H36016440   0.349   2.053   7.739 -0.2018  0.3630 -0.5966
   41MOL   H36116441   0.280   2.183   7.828  1.2362  0.5089 -0.8719
   41MOL   C36216442   0.423   2.048   7.941  0.2417 -0.5021 -0.3427
   41MOL   C36316443   0.404   2.123   0.035  0.2179  0.0222 -0.3644
   41MOL   C36416444   0.376   2.259   0.028  0.2889 -0.1421  0.1700
   41MOL   C36516445   0.354   2.328   0.146  0.4150  0.0840 -0.1639
   41MOL   C36616446   0.362   2.269   0.272  0.2757  1.0078 -0.1192
   41MOL   O36716447   0.370   2.327   0.398  0.5809 -0.0770 -0.0376
   41MOL   C36816448   0.367   2.467   0.398 -0.1570 -0.7139 -0.3460
   41MOL   C36916449   0.384   2.132   0.279 -0.2639  0.7143  0.3547
   41MOL   C37016450   0.403   2.059   0.159 -0.6225 -0.9585 -0.6958
   41MOL   C37116451   0.570   2.079   7.893 -0.0939  0.2722 -0.5976
   41MOL   H37216452   0.415   1.944   7.972 -1.0585  0.5469  3.1749
   41MOL   H37316453   0.373   2.313   7.974  0.6759 -0.8155 -0.2422
   41MOL   H37416454   0.324   2.431   0.135  0.4365  0.1574  0.4652
   41MOL   H37516455   0.375   2.502   0.501  0.0546 -2.2935  0.1893
   41MOL   H37616456   0.449   2.512   0.342  3.0412 -3.3321  2.0192
   41MOL   H37716457   0.272   2.502   0.359  0.5859  0.8230 -0.7966
   41MOL   H37816458   0.385   2.080   0.374 -0.8124 -0.0136 -0.0357
   41MOL   H37916459   0.422   1.954   0.176 -2.1058 -1.3057 -1.0959
   41MOL   H38016460   0.595   2.030   7.799 -0.3870 -2.1593  0.5253
   41MOL   H38116461   0.582   2.186   7.880  0.7744  0.3682  0.9096
   41MOL   C38216462   0.681   2.022   7.992  0.5411  0.7202  1.4731
   41MOL   C38316463   0.818   2.070   7.951 -0.1753 -0.0155 -0.5277
   41MOL   C38416464   0.888   2.161   8.032 -0.0124  0.6143  0.1808
   41MOL   C38516465   1.023   2.188   8.003 -0.2647  0.2367 -0.7456
   41MOL   C38616466   1.084   2.141   7.882 -0.2690 -0.6326 -0.1514
   41MOL   O38716467   1.215   2.165   7.843 -0.3744  0.0598 -0.8112
   41MOL   C38816468   1.302   2.219   7.940  0.1649 -0.3508  0.1541
   41MOL   C38916469   1.008   2.063   7.797 -0.2263 -0.1302 -0.3824
   41MOL   C39016470   0.876   2.021   7.832 -0.3582  0.4121 -0.2106
   41MOL   C39116471   0.677   1.865   7.990 -0.6994  0.3615 -0.0419
   41MOL   H39216472   0.660   2.076   0.044 -0.5211 -0.0452  1.6834
   41MOL   H39316473   0.838   2.204   0.077  0.3295 -1.6168  1.5720
   41MOL   H39416474   1.082   2.246   0.032  0.8622 -1.9624  0.2009
   41MOL   H39516475   1.398   2.255   7.904  0.6145 -3.6908 -2.2768
   41MOL   H39616476   1.316   2.137   8.011 -1.3857  0.4211  1.3723
   41MOL   H39716477   1.268   2.316   7.974  2.4302  0.0923  1.2266
   41MOL   H39816478   1.061   2.024   7.711  1.1985 -1.2968  0.9927
   41MOL   H39916479   0.817   1.954   7.772 -0.0826 -0.7826  0.8342
   41MOL   H40016480   0.609   1.826   0.025  1.1117 -1.1043  0.8861
   41MOL   H40116481   0.774   1.830   8.025  0.3129 -0.2589 -3.2618
   41MOL   H40216482   0.651   1.811   7.899  1.1621 -0.4122 -0.1460
   42MOL     C116483   0.054   4.978   2.432  0.7306 -0.9400 -0.2325
   42MOL     C216484   0.201   4.939   2.427  0.2331 -0.5556 -0.7135
   42MOL     C316485   0.240   4.806   2.426  0.3661 -0.1422 -0.0171
   42MOL     C416486   0.374   4.766   2.421 -0.7309  0.6058  0.3875
   42MOL     C516487   0.472   4.871   2.402 -0.3197  0.0116  0.0156
   42MOL     O616488   0.606   4.841   2.404 -0.0498  0.5104  0.2637
   42MOL     C716489   0.648   4.710   2.359  0.1431 -0.2543  0.4515
   42MOL     C816490   0.431   5.006   2.387  0.6645 -0.7131  0.6776
   42MOL     C916491   0.294   5.036   2.402 -0.5392  0.0647  0.9170
   42MOL    C1016492   0.023   5.079   2.555 -0.4331 -0.0755 -0.5163
   42MOL    H1116493   8.032   4.889   2.444 -1.2982  0.7848  2.6600
   42MOL    H1216494   0.158   4.736   2.425  1.7453 -1.7607 -0.4287
   42MOL    H1316495   0.402   4.663   2.435 -1.7805  0.2667  0.0814
   42MOL    H1416496   0.595   4.669   2.273  1.1445 -1.3262  0.3295
   42MOL    H1516497   0.749   4.710   2.316  0.0133  0.5880  0.1408
   42MOL    H1616498   0.648   4.633   2.436 -3.2535  1.1264  1.9318
   42MOL    H1716499   0.496   5.092   2.382 -1.4603  0.9540  1.0567
   42MOL    H1816500   0.274   5.142   2.409  3.0376  0.8705  0.2502
   42MOL    H1916501   0.059   5.036   2.648  0.7520  0.3738 -0.7497
   42MOL    H2016502   0.073   5.174   2.537  0.4359 -0.6419 -1.1488
   42MOL    H2116503   0.020   5.020   2.338 -2.1055 -0.3982  0.9855
   42MOL    C2216504   7.910   5.115   2.571 -0.3689 -0.4224  0.0825
   42MOL    C2316505   7.828   4.989   2.564  0.5286 -0.2566 -0.2137
   42MOL    C2416506   7.823   4.910   2.681 -0.8476  0.3310  0.4685
   42MOL    C2516507   7.729   4.806   2.692 -0.1925  0.6710  0.9289
   42MOL    C2616508   7.657   4.770   2.574  0.3170 -0.2498  0.1225
   42MOL    O2716509   7.570   4.667   2.568 -0.0061 -0.3457 -0.0531
   42MOL    C2816510   7.567   4.580   2.679 -0.0636 -0.7383  0.4832
   42MOL    C2916511   7.672   4.840   2.453 -0.6785 -0.4073  0.1568
   42MOL    C3016512   7.759   4.949   2.444  0.1135  0.2425  0.3257
   42MOL    C3116513   7.872   5.214   2.680  0.1315 -0.5904  0.5534
   42MOL    H3216514   7.878   5.165   2.480 -0.3551 -0.6989 -0.0745
   42MOL    H3316515   7.872   4.950   2.768 -0.4324  0.3406  0.2320
   42MOL    H3416516   7.716   4.753   2.785 -1.1915  1.8809  1.4981
   42MOL    H3516517   7.480   4.516   2.662 -1.1647  0.9666 -0.5274
   42MOL    H3616518   7.548   4.636   2.771 -1.7615  0.2460 -0.4301
   42MOL    H3716519   7.653   4.514   2.682  1.0604  0.6054 -1.4277
   42MOL    H3816520   7.619   4.806   2.365 -1.1701 -0.4124  0.4547
   42MOL    H3916521   7.776   5.009   2.356  3.8468 -1.4174 -0.1716
   42MOL    H4016522   7.911   5.174   2.774  0.5654 -1.5598 -0.0254
   42MOL    H4116523   7.930   5.304   2.659 -0.7297 -0.3498 -0.8422
   42MOL    C4216524   7.718   5.246   2.696  0.3841 -0.8042  0.7029
   42MOL    C4316525   7.637   5.259   2.566  0.3518  0.0479  0.4806
   42MOL    C4416526   7.683   5.351   2.467  0.0360 -0.1078 -0.7271
   42MOL    C4516527   7.614   5.361   2.341 -0.0760  0.2842  0.0997
   42MOL    C4616528   7.498   5.287   2.318 -0.2691  0.6098 -0.2899
   42MOL    O4716529   7.426   5.293   2.199  0.1742  0.1156  0.0286
   42MOL    C4816530   7.481   5.369   2.094  0.4196 -0.6293  0.1168
   42MOL    C4916531   7.445   5.199   2.415  0.2928 -0.4250  0.3420
   42MOL    C5016532   7.518   5.191   2.539  0.1230  0.3554 -0.4009
   42MOL    C5116533   7.706   5.362   2.791 -1.0724  0.2420  0.7727
   42MOL    H5216534   7.678   5.161   2.751 -1.9254 -1.4837 -1.9240
   42MOL    H5316535   7.771   5.413   2.476 -1.5323  2.2305 -1.0884
   42MOL    H5416536   7.663   5.423   2.268  0.0734 -0.6105 -0.5614
   42MOL    H5516537   7.478   5.477   2.108  0.2820 -0.4050 -1.5383
   42MOL    H5616538   7.576   5.326   2.063 -0.0482 -2.1095  0.7030
   42MOL    H5716539   7.418   5.355   2.006 -0.4955  1.6784  0.3800
   42MOL    H5816540   7.364   5.130   2.399 -0.9382  1.1791 -0.5669
   42MOL    H5916541   7.494   5.118   2.614 -0.0567  1.3784  0.5434
   42MOL    H6016542   7.748   5.452   2.746 -0.9702 -0.7968 -1.2743
   42MOL    H6116543   7.773   5.341   2.874  0.3741 -1.2281 -0.7267
   42MOL    C6216544   7.568   5.402   2.839 -0.0348  0.7245  0.5059
   42MOL    C6316545   7.575   5.538   2.910  0.1492 -0.3018 -0.0668
   42MOL    C6416546   7.604   5.561   3.047  0.8166 -0.0563  0.1111
   42MOL    C6516547   7.614   5.697   3.096 -0.0152  0.4736  0.6073
   42MOL    C6616548   7.591   5.804   3.006 -0.4754 -0.3071  0.0680
   42MOL    O6716549   7.602   5.939   3.044  0.0106  0.1345  0.5109
   42MOL    C6816550   7.670   5.971   3.167  0.0061 -0.0825  0.3964
   42MOL    C6916551   7.566   5.779   2.872  0.9664 -0.1453 -0.0264
   42MOL    C7016552   7.560   5.648   2.825 -0.0821  0.3899  0.2458
   42MOL    C7116553   7.494   5.294   2.916  0.0964 -0.6411  0.1051
   42MOL    H7216554   7.520   5.411   2.741 -1.1386 -0.8171  0.8881
   42MOL    H7316555   7.631   5.476   3.108 -0.5583 -0.5296  0.0714
   42MOL    H7416556   7.644   5.709   3.199 -1.9426  3.1196  0.9460
   42MOL    H7516557   7.772   5.935   3.159 -0.5176 -1.1109 -1.8448
   42MOL    H7616558   7.616   5.908   3.238 -2.1970 -0.8951 -1.9204
   42MOL    H7716559   7.671   6.075   3.201  1.0338 -0.9024  3.0641
   42MOL    H7816560   7.547   5.864   2.807  1.3280 -0.5827 -0.7132
   42MOL    H7916561   7.543   5.631   2.720  0.8540 -4.5007  0.7619
   42MOL    H8016562   7.482   5.211   2.846  1.7657  0.0675 -1.0730
   42MOL    H8116563   7.550   5.253   3.000 -1.9735  1.6329  2.6930
   42MOL    C8216564   7.347   5.336   2.959  0.0751 -0.1206 -0.1004
   42MOL    C8316565   7.278   5.377   2.839  0.8478 -0.1011  0.5267
   42MOL    C8416566   7.249   5.292   2.729  0.3429 -0.3458  0.3465
   42MOL    C8516567   7.163   5.331   2.625  1.1144 -0.4826  0.9320
   42MOL    C8616568   7.104   5.462   2.627 -0.2303  0.7988 -0.3175
   42MOL    O8716569   7.032   5.512   2.520 -0.0831 -0.0553 -0.5486
   42MOL    C8816570   7.007   5.426   2.412  0.6946  0.2652 -0.1041
   42MOL    C8916571   7.139   5.548   2.730  0.5861  0.0748  0.3784
   42MOL    C9016572   7.219   5.501   2.828 -0.5456  0.1662  0.2529
   42MOL    C9116573   7.280   5.213   3.029 -0.0131 -0.1877  0.0260
   42MOL    H9216574   7.353   5.423   3.025  1.6498 -0.2825 -0.0256
   42MOL    H9316575   7.297   5.195   2.721  3.1128  0.9649  0.2636
   42MOL    H9416576   7.150   5.264   2.541 -0.4603  0.1272  0.6710
   42MOL    H9516577   7.094   5.373   2.373  0.0995 -0.4013 -0.5248
   42MOL    H9616578   6.945   5.482   2.342  0.1456  0.0063  0.1684
   42MOL    H9716579   6.940   5.345   2.440  3.3212 -1.9196  0.0793
   42MOL    H9816580   7.101   5.648   2.739  0.7026  0.2027 -0.4719
   42MOL    H9916581   7.241   5.578   2.901  0.9047 -1.2278  1.3221
   42MOL   H10016582   7.179   5.235   3.064  0.1674  1.7117 -0.5799
   42MOL   H10116583   7.268   5.133   2.956  0.6265  1.9150 -2.4481
   42MOL   C10216584   7.346   5.165   3.158  0.0774  0.8196  0.1326
   42MOL   C10316585   7.382   5.282   3.248  0.5355 -0.3292  0.4818
   42MOL   C10416586   7.515   5.299   3.281 -0.2587 -0.0927  0.0037
   42MOL   C10516587   7.548   5.405   3.367 -0.0158 -0.3774 -0.1020
   42MOL   C10616588   7.451   5.493   3.420 -0.2464  0.0316  0.4063
   42MOL   O10716589   7.475   5.592   3.511 -0.1440 -0.7834 -0.1025
   42MOL   C10816590   7.591   5.591   3.589  0.0401  0.0154  0.1487
   42MOL   C10916591   7.319   5.483   3.375  0.0804 -0.3738  0.1722
   42MOL   C11016592   7.285   5.378   3.287  0.2154 -0.0279 -0.1844
   42MOL   C11116593   7.249   5.066   3.224  1.3493 -0.1382 -0.1938
   42MOL   H11216594   7.441   5.115   3.139 -1.1140 -3.1212  3.8832
   42MOL   H11316595   7.595   5.229   3.261 -0.5069  0.0891 -1.6665
   42MOL   H11416596   7.651   5.423   3.393  0.0943  0.9423 -1.3873
   42MOL   H11516597   7.603   5.499   3.646 -0.6719 -1.7585 -2.4676
   42MOL   H11616598   7.685   5.590   3.532 -0.3941  2.1262 -0.6436
   42MOL   H11716599   7.582   5.672   3.661  3.0822  0.2803  0.3122
   42MOL   H11816600   7.242   5.551   3.408 -1.3998 -0.2965 -3.1625
   42MOL   H11916601   7.188   5.375   3.238  1.7247 -0.4514 -3.2966
   42MOL   H12016602   7.173   5.127   3.272  1.4682  1.8202 -2.4585
   42MOL   H12116603   7.195   5.004   3.152 -1.5571 -0.7752  2.4255
   42MOL   C12216604   7.320   4.966   3.318  0.6481 -0.3734  0.5595
   42MOL   C12316605   7.419   4.875   3.254 -0.8408 -0.3675 -0.0595
   42MOL   C12416606   7.559   4.887   3.293  0.3475 -0.2140  0.9390
   42MOL   C12516607   7.657   4.811   3.218 -0.2640  0.0558  0.7493
   42MOL   C12616608   7.621   4.719   3.121 -0.7072  0.1720  0.0761
   42MOL   O12716609   7.711   4.627   3.059  0.5725  0.1663  0.2283
   42MOL   C12816610   7.849   4.664   3.040  0.1311  0.6113 -0.6093
   42MOL   C12916611   7.485   4.700   3.086  0.0192 -0.4174 -0.0839
   42MOL   C13016612   7.380   4.782   3.152 -0.9518 -0.1586  0.1003
   42MOL   C13116613   7.201   4.888   3.385  0.4687  0.0447 -0.1712
   42MOL   H13216614   7.366   5.028   3.394 -2.1023  0.8046  1.3256
   42MOL   H13316615   7.592   4.957   3.368  0.9553  1.1957 -0.6271
   42MOL   H13416616   7.761   4.820   3.247  0.9547  1.7038 -3.6101
   42MOL   H13516617   7.874   4.619   2.944 -0.8517 -1.1537 -0.0618
   42MOL   H13616618   7.865   4.771   3.033 -0.9001  0.7661 -0.7287
   42MOL   H13716619   7.912   4.636   3.124 -0.2211 -0.2780 -0.6349
   42MOL   H13816620   7.460   4.630   3.007 -2.4903  0.1123  0.2202
   42MOL   H13916621   7.277   4.785   3.121 -0.7411  0.3751 -0.5764
   42MOL   H14016622   7.141   4.839   3.309  0.4148  0.3506 -0.3281
   42MOL   H14116623   7.125   4.958   3.423 -1.9827 -1.5109 -2.0270
   42MOL   C14216624   7.254   4.792   3.489 -0.0597  0.3407 -0.3289
   42MOL   C14316625   7.283   4.863   3.617  0.5519 -0.4434 -0.5419
   42MOL   C14416626   7.197   4.955   3.685 -0.6910 -0.4419  0.4019
   42MOL   C14516627   7.237   5.021   3.801  0.5817  0.0793 -0.5657
   42MOL   C14616628   7.363   4.985   3.862 -0.1334 -0.4308 -0.2566
   42MOL   O14716629   7.386   5.046   3.979  0.3462  0.5442 -0.2714
   42MOL   C14816630   7.514   5.040   4.035  1.3136  0.0165  1.0186
   42MOL   C14916631   7.453   4.892   3.800  0.2067  0.1626 -0.9679
   42MOL   C15016632   7.410   4.833   3.680 -0.3662 -0.4678 -0.2360
   42MOL   C15116633   7.158   4.683   3.512 -0.2078 -0.7164 -0.0442
   42MOL   H15216634   7.349   4.750   3.457 -0.2669  0.6366 -1.3505
   42MOL   H15316635   7.099   4.973   3.644  0.2281  1.7819 -0.8960
   42MOL   H15416636   7.167   5.092   3.842 -0.5454 -0.9127 -0.7362
   42MOL   H15516637   7.502   5.091   4.130 -1.0135 -1.1507  1.4074
   42MOL   H15616638   7.535   4.940   4.073 -2.4039 -0.5768  1.7948
   42MOL   H15716639   7.594   5.079   3.973 -0.1236  0.5583 -0.5548
   42MOL   H15816640   7.554   4.873   3.834  0.0707  0.5221 -0.3300
   42MOL   H15916641   7.480   4.772   3.626 -0.9880 -1.6795  0.3150
   42MOL   H16016642   7.120   4.657   3.413  0.6471 -0.8872 -0.3320
   42MOL   H16116643   7.073   4.720   3.570  1.3889  2.0235  0.6365
   42MOL   C16216644   7.210   4.552   3.581 -0.3353 -0.4207 -0.0527
   42MOL   C16316645   7.356   4.517   3.556  0.0373 -0.0528 -0.0618
   42MOL   C16416646   7.447   4.498   3.667 -0.0777 -0.1341 -0.2374
   42MOL   C16516647   7.578   4.454   3.641 -0.0548 -0.6270  0.1899
   42MOL   C16616648   7.625   4.438   3.510  0.0777 -0.6155 -0.3045
   42MOL   O16716649   7.754   4.400   3.499 -0.4884  0.1602 -0.1213
   42MOL   C16816650   7.823   4.438   3.375 -0.5731  0.3422  0.9683
   42MOL   C16916651   7.539   4.462   3.403  0.2099 -0.2312 -0.0657
   42MOL   C17016652   7.405   4.498   3.423 -0.4958 -0.5555 -0.3096
   42MOL   C17116653   7.121   4.428   3.548 -0.3555 -0.5614 -0.0393
   42MOL   H17216654   7.204   4.579   3.686 -0.2974 -1.5695  0.2531
   42MOL   H17316655   7.417   4.503   3.771 -2.2918 -0.7499 -0.8291
   42MOL   H17416656   7.650   4.444   3.721 -0.0856 -0.2092  0.2700
   42MOL   H17516657   7.931   4.427   3.387 -0.3181  1.3440 -0.2817
   42MOL   H17616658   7.811   4.543   3.348 -1.1094 -0.6010 -2.7542
   42MOL   H17716659   7.789   4.395   3.281  1.2322  0.8293  0.0597
   42MOL   H17816660   7.570   4.465   3.300  0.6688  4.3684  0.1214
   42MOL   H17916661   7.334   4.507   3.342  2.3370 -0.5192 -2.9131
   42MOL   H18016662   7.174   4.350   3.604 -0.7862  0.8298  2.3691
   42MOL   H18116663   7.127   4.419   3.440  0.9036 -0.4111  0.0055
   42MOL   C18216664   6.981   4.409   3.600 -0.7551 -0.2571  0.3855
   42MOL   C18316665   6.964   4.456   3.745  0.9250 -0.5588  0.6584
   42MOL   C18416666   6.925   4.588   3.767 -0.4772  0.7994 -0.2015
   42MOL   C18516667   6.920   4.642   3.893  0.0324  0.1271 -0.3239
   42MOL   C18616668   6.963   4.567   4.007 -0.0231  0.2217 -0.2390
   42MOL   O18716669   6.957   4.623   4.128 -0.0037  0.5766 -0.3205
   42MOL   C18816670   7.029   4.552   4.233  0.0010 -0.0670  0.4508
   42MOL   C18916671   7.010   4.439   3.985  0.2313  0.4536  0.8643
   42MOL   C19016672   7.012   4.381   3.856  0.3153  0.4804 -0.2738
   42MOL   C19116673   6.938   4.264   3.579  0.3559 -0.1175 -0.4282
   42MOL   H19216674   6.911   4.470   3.543 -3.4356 -2.9182  0.7052
   42MOL   H19316675   6.899   4.648   3.681  0.9367  2.0989  0.2511
   42MOL   H19416676   6.892   4.744   3.915  2.3540  0.8804 -0.6894
   42MOL   H19516677   7.024   4.613   4.324  1.1918 -0.8364  1.0455
   42MOL   H19616678   7.134   4.543   4.207  0.1463  3.3594 -0.3077
   42MOL   H19716679   6.993   4.453   4.262  0.8883 -1.5302 -3.1708
   42MOL   H19816680   7.040   4.373   4.065  2.3334 -0.8259 -0.9534
   42MOL   H19916681   7.040   4.278   3.836  0.3693  0.0661  1.8342
   42MOL   H20016682   6.962   4.233   3.477  1.1988 -2.1920  0.3764
   42MOL   H20116683   6.985   4.194   3.648 -1.7478 -1.1470 -0.0154
   42MOL   C20216684   6.796   4.233   3.623 -0.9643 -0.6181 -0.6904
   42MOL   C20316685   6.764   4.087   3.611  0.2092 -0.1906 -0.0331
   42MOL   C20416686   6.732   4.034   3.481 -0.0242  0.1989  0.2622
   42MOL   C20516687   6.716   3.894   3.462  0.1197  0.4892  1.0252
   42MOL   C20616688   6.715   3.806   3.576 -0.0593  0.3682  0.2376
   42MOL   O20716689   6.671   3.678   3.579  0.3140 -0.1768 -0.2042
   42MOL   C20816690   6.625   3.615   3.455  0.1738 -0.2628  0.3470
   42MOL   C20916691   6.745   3.864   3.702 -0.7343  0.3295 -0.1958
   42MOL   C21016692   6.771   4.002   3.723 -0.2809 -0.0778  0.6313
   42MOL   C21116693   6.687   4.326   3.568 -0.1642 -0.3483 -0.3534
   42MOL   H21216694   6.793   4.250   3.730  0.4084 -0.4659 -0.6654
   42MOL   H21316695   6.717   4.102   3.398 -0.5722  1.1371  1.1276
   42MOL   H21416696   6.682   3.856   3.367 -1.0959  0.0623  1.6307
   42MOL   H21516697   6.700   3.624   3.377 -1.3241  1.4355 -0.9073
   42MOL   H21616698   6.608   3.507   3.465  1.1128 -0.4015  0.5599
   42MOL   H21716699   6.531   3.660   3.424  0.1998  1.0042  2.0250
   42MOL   H21816700   6.760   3.801   3.789  1.5517 -1.0576 -1.5325
   42MOL   H21916701   6.813   4.043   3.814  2.6560 -1.2840 -0.1234
   42MOL   H22016702   6.698   4.342   3.461  0.6544 -0.2188 -0.2503
   42MOL   H22116703   6.689   4.424   3.616  0.4993 -0.2599 -0.5498
   42MOL   C22216704   6.539   4.284   3.570 -0.2319 -0.4568 -0.5231
   42MOL   C22316705   6.491   4.269   3.713  0.7975  0.1603 -0.0960
   42MOL   C22416706   6.424   4.151   3.750 -0.0246 -0.1032 -0.0365
   42MOL   C22516707   6.374   4.136   3.879  0.6308 -0.5699  0.1958
   42MOL   C22616708   6.374   4.244   3.967  0.6303 -0.1835 -0.0268
   42MOL   O22716709   6.330   4.233   4.098 -0.5173  0.2314  0.1624
   42MOL   C22816710   6.254   4.344   4.142 -0.1130 -0.8361 -0.5390
   42MOL   C22916711   6.435   4.368   3.928  0.1509 -0.2609 -0.6395
   42MOL   C23016712   6.491   4.382   3.799  0.4182  0.5257  0.6956
   42MOL   C23116713   6.439   4.379   3.498  0.2694 -0.2895  0.6048
   42MOL   H23216714   6.534   4.186   3.524  0.9621 -0.9440  0.3486
   42MOL   H23316715   6.421   4.063   3.688 -0.4178  0.2939 -0.5901
   42MOL   H23416716   6.316   4.051   3.912 -0.2611  0.7180  2.1426
   42MOL   H23516717   6.176   4.312   4.211  0.5497  0.5263  0.8588
   42MOL   H23616718   6.312   4.416   4.198  0.7463 -0.4198 -1.9220
   42MOL   H23716719   6.196   4.390   4.062 -1.7344 -0.8168  0.6232
   42MOL   H23816720   6.440   4.442   4.007 -0.0270  0.4187 -1.2625
   42MOL   H23916721   6.540   4.469   3.759 -0.7115 -0.4442 -3.0139
   42MOL   H24016722   6.337   4.371   3.535 -0.1372  0.3084 -0.3700
   42MOL   H24116723   6.457   4.479   3.539  0.0280 -0.0234  0.0606
   42MOL   C24216724   6.436   4.374   3.341  0.0757 -0.2437  0.6645
   42MOL   C24316725   6.419   4.226   3.290 -0.8951  0.4585 -0.2971
   42MOL   C24416726   6.302   4.155   3.322 -0.4823 -0.4153  0.2935
   42MOL   C24516727   6.300   4.013   3.289  0.1500 -0.6629 -0.6628
   42MOL   C24616728   6.402   3.948   3.219  0.9790 -0.0019  0.0613
   42MOL   O24716729   6.391   3.815   3.170  0.1982 -0.5429 -0.0701
   42MOL   C24816730   6.280   3.742   3.191  0.1336 -0.3117 -0.3383
   42MOL   C24916731   6.513   4.026   3.185 -0.5960  0.1829 -0.2903
   42MOL   C25016732   6.520   4.163   3.216 -0.0987  0.4972 -0.2000
   42MOL   C25116733   6.336   4.472   3.288  0.6221  0.3533 -0.0454
   42MOL   H25216734   6.532   4.411   3.306  0.2068 -0.8566  0.3722
   42MOL   H25316735   6.223   4.200   3.379 -2.5340 -0.9212 -2.0376
   42MOL   H25416736   6.215   3.960   3.330  0.7021 -1.3873 -0.4566
   42MOL   H25516737   6.293   3.649   3.137 -1.0541 -0.2734 -0.7072
   42MOL   H25616738   6.273   3.707   3.294 -0.4183 -1.9296 -0.9151
   42MOL   H25716739   6.184   3.787   3.167 -0.7607 -1.5979  0.7356
   42MOL   H25816740   6.595   3.982   3.130  0.1795  2.2426 -0.8309
   42MOL   H25916741   6.613   4.213   3.194 -1.0529  2.0470 -0.8162
   42MOL   H26016742   6.338   4.572   3.330 -1.4850 -0.5523  2.2737
   42MOL   H26116743   6.243   4.438   3.332  1.9058 -1.1680  1.5844
   42MOL   C26216744   6.341   4.472   3.131  0.6417  0.1188 -0.1444
   42MOL   C26316745   6.452   4.573   3.083  0.1079  0.3788 -0.1544
   42MOL   C26416746   6.437   4.711   3.108 -0.7619 -0.2455 -0.0390
   42MOL   C26516747   6.533   4.805   3.068  0.4206  0.0530 -0.7193
   42MOL   C26616748   6.649   4.763   2.993  0.2302  0.6800 -0.4754
   42MOL   O26716749   6.747   4.847   2.949 -0.3010  0.2307  0.2055
   42MOL   C26816750   6.741   4.982   2.973 -0.2824 -0.4163  0.3939
   42MOL   C26916751   6.657   4.623   2.967 -0.9157 -0.2387  0.5512
   42MOL   C27016752   6.566   4.529   3.020 -0.3289 -0.0610  0.3924
   42MOL   C27116753   6.205   4.525   3.058 -0.6870 -0.1986  0.0706
   42MOL   H27216754   6.381   4.379   3.091  0.2159  0.1875 -0.7452
   42MOL   H27316755   6.352   4.755   3.158  1.1425  3.4908  0.1268
   42MOL   H27416756   6.533   4.908   3.101 -1.2247  0.3794 -1.7234
   42MOL   H27516757   6.666   5.031   2.912 -0.1140 -0.2886  0.2902
   42MOL   H27616758   6.833   5.029   2.937 -1.8127  3.2901  1.0250
   42MOL   H27716759   6.724   5.011   3.077 -0.7428  0.4350  0.0932
   42MOL   H27816760   6.738   4.594   2.902 -0.8045 -2.0014  1.4591
   42MOL   H27916761   6.566   4.425   2.990 -1.8723  0.4966 -1.6556
   42MOL   H28016762   6.161   4.605   3.118  0.7179 -1.1721  2.4679
   42MOL   H28116763   6.237   4.576   2.967 -1.2940  0.0884  0.0086
   42MOL   C28216764   6.089   4.428   3.028 -0.9291  0.1671 -0.3144
   42MOL   C28316765   6.138   4.299   2.965 -0.8458  0.3813 -0.6165
   42MOL   C28416766   6.205   4.293   2.839  0.1049 -0.0620  0.0629
   42MOL   C28516767   6.241   4.170   2.781 -0.2337  0.0127 -0.1189
   42MOL   C28616768   6.227   4.051   2.853  0.1411 -0.2218 -0.1009
   42MOL   O28716769   6.280   3.934   2.793  0.0157 -0.5375 -0.6403
   42MOL   C28816770   6.209   3.811   2.833 -0.0370  0.3905 -0.0203
   42MOL   C28916771   6.167   4.053   2.983 -0.3394  0.0029  0.6416
   42MOL   C29016772   6.125   4.178   3.032  0.3696  0.2719 -0.4606
   42MOL   C29116773   5.984   4.492   2.939  0.3407  0.2732  0.2058
   42MOL   H29216774   6.040   4.409   3.123  2.7282 -2.3825  1.1871
   42MOL   H29316775   6.225   4.378   2.776  0.2097 -1.2707 -1.5866
   42MOL   H29416776   6.297   4.173   2.689  0.5698 -0.3393  0.3577
   42MOL   H29516777   6.240   3.723   2.776  2.5054  2.3683 -1.8421
   42MOL   H29616778   6.221   3.789   2.939  1.8079 -1.7520 -0.6356
   42MOL   H29716779   6.101   3.823   2.820  0.0962  2.9017  0.8893
   42MOL   H29816780   6.165   3.965   3.045 -0.0014 -1.8040 -1.8398
   42MOL   H29916781   6.064   4.177   3.121 -0.2237  0.3559 -0.8639
   42MOL   H30016782   6.030   4.529   2.847  2.6459 -2.2331  0.2733
   42MOL   H30116783   5.917   4.412   2.907  1.0674 -0.0809 -0.4528
   42MOL   C30216784   5.900   4.611   3.000  0.0647  0.2597 -0.5771
   42MOL   C30316785   5.970   4.746   3.018  0.9294 -0.1414 -0.3252
   42MOL   C30416786   6.018   4.825   2.909  0.2978  0.0590  0.1249
   42MOL   C30516787   6.049   4.962   2.929 -0.1270 -0.0208 -0.4464
   42MOL   C30616788   6.052   5.010   3.058 -0.0043 -0.0913 -0.0936
   42MOL   O30716789   6.118   5.130   3.071 -0.0856  0.6452  0.5879
   42MOL   C30816790   6.190   5.139   3.188  0.1847 -0.0733  0.0775
   42MOL   C30916791   6.004   4.935   3.170 -0.4032 -0.5565 -0.2237
   42MOL   C31016792   5.957   4.804   3.149 -0.6516 -0.7299  0.1855
   42MOL   C31116793   5.776   4.629   2.918  0.0853  0.1808 -0.2968
   42MOL   H31216794   5.853   4.576   3.092  3.5811 -1.2120  0.7498
   42MOL   H31316795   6.008   4.788   2.809  3.4099  0.5912 -0.4368
   42MOL   H31416796   6.070   5.026   2.845  1.7403 -0.3837 -0.2792
   42MOL   H31516797   6.257   5.057   3.210 -2.2481 -1.8465  1.0453
   42MOL   H31616798   6.117   5.142   3.269 -2.2383  0.1182 -2.0363
   42MOL   H31716799   6.249   5.231   3.187 -0.0355  0.0630 -0.8090
   42MOL   H31816800   6.004   4.976   3.270  0.1739 -0.0299 -0.4328
   42MOL   H31916801   5.922   4.741   3.230 -1.7629  3.1093  2.8380
   42MOL   H32016802   5.711   4.543   2.932  0.8112 -0.1396  1.1867
   42MOL   H32116803   5.821   4.627   2.818 -0.8420 -1.6612 -0.6989
   42MOL   C32216804   5.678   4.750   2.951 -0.3192  0.9233 -0.3252
   42MOL   C32316805   5.650   4.760   3.096 -0.1542 -1.2726  0.3347
   42MOL   C32416806   5.629   4.889   3.148 -0.3663  0.3514  0.3010
   42MOL   C32516807   5.588   4.908   3.283 -0.7174  0.1827 -0.2005
   42MOL   C32616808   5.583   4.793   3.371  0.1593  0.0336 -0.3510
   42MOL   O32716809   5.558   4.812   3.505  0.4471  0.1898  0.0714
   42MOL   C32816810   5.593   4.696   3.584  0.2209  0.3231 -0.4936
   42MOL   C32916811   5.583   4.665   3.313 -0.5261  0.2463  0.0072
   42MOL   C33016812   5.623   4.646   3.177  0.2187 -0.2335  0.2517
   42MOL   C33116813   5.552   4.760   2.863  1.0553 -0.1136 -0.5655
   42MOL   H33216814   5.738   4.838   2.927 -0.6548  1.4361  0.6919
   42MOL   H33316815   5.638   4.980   3.090  1.4901  0.7172  1.1125
   42MOL   H33416816   5.575   5.011   3.313 -0.1540  0.0401  0.5540
   42MOL   H33516817   5.584   4.722   3.689  0.3875  0.7300 -0.5818
   42MOL   H33616818   5.699   4.674   3.575  0.3205 -0.0583  1.4895
   42MOL   H33716819   5.535   4.607   3.559  1.9756 -0.8469 -0.4566
   42MOL   H33816820   5.577   4.577   3.375  2.3914  1.2814  1.8542
   42MOL   H33916821   5.648   4.547   3.142 -0.3716 -0.7449  1.2569
   42MOL   H34016822   5.485   4.676   2.880  2.7559 -1.7481 -1.7715
   42MOL   H34116823   5.504   4.854   2.890  1.6361  0.1132 -0.3058
   42MOL   C34216824   5.573   4.747   2.712 -0.6681  0.2243 -0.0306
   42MOL   C34316825   5.708   4.807   2.656  0.3942  0.4136  0.2478
   42MOL   C34416826   5.776   4.735   2.558  0.5593 -0.4667 -0.0737
   42MOL   C34516827   5.882   4.795   2.490  0.0808  1.2356 -0.3510
   42MOL   C34616828   5.930   4.925   2.527  0.2258 -0.5111  0.1521
   42MOL   O34716829   6.040   4.978   2.464  0.8806 -0.0225  0.2214
   42MOL   C34816830   6.092   5.102   2.502  1.0481 -0.2664  0.5279
   42MOL   C34916831   5.854   4.994   2.630  0.3673 -0.9860  0.5695
   42MOL   C35016832   5.741   4.937   2.688 -0.5438 -0.3183  0.4023
   42MOL   C35116833   5.463   4.778   2.621  0.6514  0.3971 -0.0269
   42MOL   H35216834   5.585   4.640   2.698  0.9513  0.5817 -1.6457
   42MOL   H35316835   5.750   4.642   2.509 -1.1355  1.4917 -3.0881
   42MOL   H35416836   5.938   4.738   2.417 -1.9435  0.5985 -1.4504
   42MOL   H35516837   6.023   5.180   2.472 -1.6708 -2.3562  1.1179
   42MOL   H35616838   6.129   5.105   2.605  0.0123  0.8883  0.8698
   42MOL   H35716839   6.182   5.113   2.441  0.0200  0.4493 -0.8876
   42MOL   H35816840   5.875   5.096   2.658  1.1126 -1.0808  0.3824
   42MOL   H35916841   5.681   4.998   2.755  0.6880  1.4319 -0.0430
   42MOL   H36016842   5.513   4.759   2.526  0.9401 -1.0624  0.4090
   42MOL   H36116843   5.386   4.702   2.618 -1.4712  2.3622  2.3403
   42MOL   C36216844   5.406   4.924   2.614  0.0458 -0.3709 -0.7173
   42MOL   C36316845   5.313   4.956   2.733  0.1872 -0.5584 -0.9958
   42MOL   C36416846   5.191   4.888   2.741 -0.4098 -0.1796  0.2723
   42MOL   C36516847   5.096   4.920   2.839  0.2084  0.2272 -1.1517
   42MOL   C36616848   5.118   5.023   2.934 -0.2602  0.1995 -0.7459
   42MOL   O36716849   5.025   5.073   3.021 -0.2279 -0.1505 -0.0735
   42MOL   C36816850   4.895   5.028   3.013  0.4219 -0.0050  0.2942
   42MOL   C36916851   5.241   5.092   2.920  0.1011 -0.2383 -0.3406
   42MOL   C37016852   5.337   5.063   2.822  0.3455  0.0001 -0.3977
   42MOL   C37116853   5.350   4.975   2.472 -1.7035  0.5121  0.0755
   42MOL   H37216854   5.493   4.986   2.636 -0.6282  0.8258 -1.3210
   42MOL   H37316855   5.170   4.815   2.665 -2.7658  0.7305 -0.0030
   42MOL   H37416856   5.000   4.872   2.843 -0.7822  2.2144 -0.5621
   42MOL   H37516857   4.816   5.084   3.063 -0.1232 -0.0795 -0.4888
   42MOL   H37616858   4.868   5.043   2.909 -0.8825  2.0793  0.9037
   42MOL   H37716859   4.879   4.928   3.053 -2.5914  0.0408 -0.6827
   42MOL   H37816860   5.256   5.173   2.990  0.5129  0.1367 -0.8608
   42MOL   H37916861   5.430   5.118   2.811 -0.2463  0.7869 -1.5436
   42MOL   H38016862   5.384   4.914   2.388 -1.7363  1.5347 -0.6991
   42MOL   H38116863   5.243   4.955   2.477 -1.7118  1.0487  2.6306
   42MOL   C38216864   5.373   5.125   2.452 -0.4613 -0.3486  0.1331
   42MOL   C38316865   5.293   5.177   2.341 -0.3373  0.1693 -0.1277
   42MOL   C38416866   5.311   5.140   2.212  0.4734  0.1641  1.0503
   42MOL   C38516867   5.232   5.197   2.112 -0.1413 -0.5128 -0.3210
   42MOL   C38616868   5.128   5.292   2.143 -0.3318 -0.1787  0.5753
   42MOL   O38716869   5.049   5.350   2.050  0.3602  0.0838 -1.0630
   42MOL   C38816870   5.100   5.367   1.923 -0.6189  0.4340  0.4868
   42MOL   C38916871   5.106   5.330   2.272 -0.3762  0.1879  0.3866
   42MOL   C39016872   5.197   5.277   2.373  0.1129  0.4436 -0.0556
   42MOL   C39116873   5.518   5.153   2.412  0.0246  0.4985 -0.3670
   42MOL   H39216874   5.337   5.167   2.546 -0.0076 -1.9566  1.0422
   42MOL   H39316875   5.384   5.066   2.182 -1.7530 -1.7244  0.1129
   42MOL   H39416876   5.243   5.168   2.009 -2.5452  0.0935 -0.7965
   42MOL   H39516877   5.201   5.408   1.929 -0.7824  0.8664  0.3362
   42MOL   H39616878   5.047   5.436   1.857  2.7803  1.5369 -1.2228
   42MOL   H39716879   5.117   5.274   1.869 -0.7381  0.6552  0.0594
   42MOL   H39816880   5.027   5.402   2.283  0.4766  1.3892 -1.2410
   42MOL   H39916881   5.180   5.299   2.478 -0.5169 -0.3342  0.0129
   42MOL   H40016882   5.585   5.136   2.496  1.3790  0.5349 -1.4365
   42MOL   H40116883   5.538   5.256   2.385  0.1749  1.1534  2.1152
   42MOL   H40216884   5.558   5.092   2.331  1.4885  0.3040  0.4881
   43MOL     C116885   2.559   1.452   3.724 -0.1723  0.6275 -0.1404
   43MOL     C216886   2.489   1.391   3.600  0.3507  0.2333 -0.3320
   43MOL     C316887   2.548   1.398   3.472  0.3899 -0.1600 -0.6773
   43MOL     C416888   2.488   1.339   3.362  0.5864  0.3351  0.2258
   43MOL     C516889   2.357   1.276   3.371 -0.1021 -0.2640  0.1332
   43MOL     O616890   2.301   1.225   3.253  0.6835  0.2486  0.0736
   43MOL     C716891   2.191   1.143   3.263  0.4097  0.4400 -0.2489
   43MOL     C816892   2.293   1.272   3.500  0.6122 -0.7788  0.1106
   43MOL     C916893   2.363   1.328   3.612  0.4828  0.3885  0.1448
   43MOL    C1016894   2.528   1.384   3.854 -0.3652  0.6961  0.1296
   43MOL    H1116895   2.537   1.558   3.736  0.4273  0.5090  2.2004
   43MOL    H1216896   2.646   1.443   3.464  0.3801  0.1689  0.8446
   43MOL    H1316897   2.541   1.325   3.270  1.3824 -3.1936  1.1523
   43MOL    H1416898   2.099   1.197   3.284 -0.7028 -1.8680  1.0519
   43MOL    H1516899   2.187   1.092   3.167  3.2006 -0.7714  0.2296
   43MOL    H1616900   2.201   1.067   3.341  0.3874  0.8654  0.1701
   43MOL    H1716901   2.195   1.228   3.512 -1.5859  4.0485  0.9534
   43MOL    H1816902   2.311   1.329   3.707  1.8345  2.5797  0.9211
   43MOL    H1916903   2.424   1.394   3.884 -0.7756 -0.9254 -0.6900
   43MOL    H2016904   2.544   1.277   3.836 -0.8473  1.0521 -2.7747
   43MOL    H2116905   2.665   1.438   3.706 -0.0167  1.4551  0.1250
   43MOL    C2216906   2.621   1.436   3.965  0.4551  0.5271 -0.3332
   43MOL    C2316907   2.597   1.582   3.980 -0.2074  0.1341 -0.4596
   43MOL    C2416908   2.485   1.635   4.046 -0.2852  0.3388 -0.1335
   43MOL    C2516909   2.466   1.780   4.067  0.2389  0.0976  0.2953
   43MOL    C2616910   2.573   1.862   4.026 -0.4003 -0.0242  0.4192
   43MOL    O2716911   2.575   2.002   4.043  0.1186  0.1842 -0.0030
   43MOL    C2816912   2.468   2.060   4.110 -0.8402 -0.5547 -0.1161
   43MOL    C2916913   2.690   1.802   3.959 -0.5008 -0.1060  0.3401
   43MOL    C3016914   2.702   1.670   3.939  0.2531  0.4147 -0.5771
   43MOL    C3116915   2.603   1.354   4.095  0.7967  0.5503  0.0175
   43MOL    H3216916   2.725   1.431   3.932 -0.2608  0.3442 -2.5801
   43MOL    H3316917   2.405   1.568   4.072  0.6004 -1.3791 -1.7713
   43MOL    H3416918   2.372   1.812   4.109  0.9867  2.0492  0.5349
   43MOL    H3516919   2.374   2.053   4.057 -1.7683  1.0342  1.2320
   43MOL    H3616920   2.490   2.166   4.122  0.8929 -0.9473  0.2456
   43MOL    H3716921   2.448   2.037   4.215  0.3309  2.2879  0.7783
   43MOL    H3816922   2.763   1.873   3.923  0.6237 -1.0224  0.7581
   43MOL    H3916923   2.796   1.641   3.894  0.2104  0.0190 -0.4161
   43MOL    H4016924   2.674   1.395   4.167  2.3485 -0.0278 -1.1752
   43MOL    H4116925   2.508   1.371   4.146  0.8042 -1.2222  0.6703
   43MOL    C4216926   2.631   1.194   4.097 -1.0027 -0.5161 -0.2535
   43MOL    C4316927   2.620   1.137   4.233  0.4892  0.3422 -0.8575
   43MOL    C4416928   2.521   1.038   4.255  0.4802  0.4538  0.3670
   43MOL    C4516929   2.498   0.979   4.380 -0.0883  0.2859  0.2010
   43MOL    C4616930   2.574   1.028   4.486  0.0399 -0.2284 -0.2931
   43MOL    O4716931   2.542   0.985   4.616  0.0493  0.2037  0.3081
   43MOL    C4816932   2.596   1.045   4.732 -0.4681  0.4680  0.2307
   43MOL    C4916933   2.675   1.127   4.462  0.7407 -0.1552  0.5822
   43MOL    C5016934   2.696   1.183   4.339  0.0266 -0.4166  0.0348
   43MOL    C5116935   2.773   1.170   4.036  0.5150  0.3588 -0.0243
   43MOL    H5216936   2.553   1.157   4.029  0.2959 -1.0282 -1.4928
   43MOL    H5316937   2.459   1.009   4.172 -0.2629  1.6702  0.4943
   43MOL    H5416938   2.404   0.929   4.396 -1.4360  3.3390  2.2778
   43MOL    H5516939   2.561   0.990   4.819  0.3917 -1.1353 -0.4292
   43MOL    H5616940   2.705   1.048   4.733 -0.4389  0.0065 -0.9544
   43MOL    H5716941   2.558   1.145   4.751  0.4555  1.0944 -1.1072
   43MOL    H5816942   2.729   1.153   4.552  0.7327  0.3240  0.4495
   43MOL    H5916943   2.772   1.257   4.323 -0.0286 -0.1345  1.0352
   43MOL    H6016944   2.834   1.252   4.073 -0.5472  1.1501 -0.0032
   43MOL    H6116945   2.760   1.190   3.929  0.0346  0.8452  0.1216
   43MOL    C6216946   2.845   1.036   4.059  0.5294 -0.0838 -0.2231
   43MOL    C6316947   2.986   1.051   4.098  0.1105  1.3573  0.8434
   43MOL    C6416948   3.080   1.079   4.003 -0.5980 -0.1206  0.1082
   43MOL    C6516949   3.203   1.130   4.037  0.4848  0.2487  0.1058
   43MOL    C6616950   3.249   1.139   4.168 -0.3012 -0.3130 -0.3247
   43MOL    O6716951   3.375   1.184   4.190 -0.1756  0.2110  0.0297
   43MOL    C6816952   3.394   1.271   4.306 -0.4139 -0.3407 -0.3004
   43MOL    C6916953   3.154   1.108   4.268 -0.6152 -0.3563 -0.3574
   43MOL    C7016954   3.020   1.069   4.234  0.9718 -0.3772  0.4479
   43MOL    C7116955   2.813   0.920   3.961 -0.6178  0.8467 -0.2480
   43MOL    H7216956   2.802   1.002   4.153 -2.1964  0.0186 -1.3902
   43MOL    H7316957   3.060   1.083   3.897  0.1162 -1.1560 -0.0789
   43MOL    H7416958   3.280   1.160   3.967  0.5301  0.3137  0.1830
   43MOL    H7516959   3.469   1.349   4.291 -0.2780 -0.8032 -2.1400
   43MOL    H7616960   3.424   1.210   4.392  0.4419  2.8253  1.7047
   43MOL    H7716961   3.306   1.332   4.324  0.6959  0.9313  0.9033
   43MOL    H7816962   3.178   1.102   4.373 -0.4987 -1.3028 -0.4391
   43MOL    H7916963   2.942   1.056   4.307  1.6142 -0.5996  1.0993
   43MOL    H8016964   2.706   0.899   3.964 -0.4790  0.0471 -0.7095
   43MOL    H8116965   2.842   0.945   3.859 -0.2034  0.6092 -0.1911
   43MOL    C8216966   2.891   0.787   3.982  1.0001 -0.2099  0.2418
   43MOL    C8316967   2.893   0.749   4.132  0.3724 -0.2043  0.1814
   43MOL    C8416968   2.783   0.752   4.210 -0.3397  0.2778 -0.8934
   43MOL    C8516969   2.792   0.722   4.349 -0.8197  0.2816 -1.0307
   43MOL    C8616970   2.908   0.698   4.415  0.8108 -0.2978  0.3045
   43MOL    O8716971   2.919   0.674   4.550 -0.0333  0.2588  0.0025
   43MOL    C8816972   2.802   0.681   4.636  0.1778  0.0491  1.4507
   43MOL    C8916973   3.021   0.687   4.328 -0.3457  0.5197 -1.2987
   43MOL    C9016974   3.015   0.712   4.191  0.0452 -0.2373 -1.0176
   43MOL    C9116975   2.824   0.681   3.891  0.6409  0.0143 -0.3297
   43MOL    H9216976   2.994   0.810   3.956  0.7185  1.8705  0.8845
   43MOL    H9316977   2.691   0.784   4.164 -0.4177  0.1097 -0.8533
   43MOL    H9416978   2.704   0.727   4.411  0.0231 -1.2425  0.3176
   43MOL    H9516979   2.825   0.637   4.733  2.1309 -1.4743  0.3388
   43MOL    H9616980   2.715   0.628   4.597  0.2723 -0.3927  1.8469
   43MOL    H9716981   2.773   0.784   4.660  0.3425  1.1121 -2.5061
   43MOL    H9816982   3.109   0.648   4.378 -1.4668  0.1793  0.4786
   43MOL    H9916983   3.109   0.715   4.138  1.2645  3.2664  1.1775
   43MOL   H10016984   2.731   0.641   3.933 -0.0574  2.6609  0.7199
   43MOL   H10116985   2.793   0.741   3.805 -2.9478 -1.5021 -0.1878
   43MOL   C10216986   2.916   0.566   3.863  0.3034  0.2172  0.3262
   43MOL   C10316987   2.840   0.435   3.842  0.0867  0.6788 -0.5791
   43MOL   C10416988   2.774   0.420   3.721 -1.1164  0.0724 -0.4391
   43MOL   C10516989   2.689   0.308   3.691 -0.1727  0.6546 -0.1619
   43MOL   C10616990   2.670   0.206   3.788 -0.3697  0.6654  0.3248
   43MOL   O10716991   2.580   0.106   3.766  0.6404 -0.2566 -0.2317
   43MOL   C10816992   2.559   0.009   3.856 -0.5112 -0.5619  0.2577
   43MOL   C10916993   2.737   0.223   3.912  0.7196 -0.6783 -0.1426
   43MOL   C11016994   2.825   0.332   3.941 -0.7555  0.0853  0.2274
   43MOL   C11116995   3.021   0.609   3.752 -0.3274 -0.7478  0.0143
   43MOL   H11216996   2.972   0.545   3.955 -0.1255 -3.0739 -0.1044
   43MOL   H11316997   2.779   0.505   3.655  0.9852 -0.6616 -1.2464
   43MOL   H11416998   2.633   0.294   3.600 -2.5738  1.0142  1.2151
   43MOL   H11516999   2.638   7.977   3.879  0.6593  1.5639  3.1538
   43MOL   H11617000   2.526   0.060   3.947  1.1540  1.1631 -0.0800
   43MOL   H11717001   2.470   8.002   3.812 -0.0404 -0.6431 -0.6168
   43MOL   H11817002   2.730   0.149   3.991  1.5499 -0.2233  0.3720
   43MOL   H11917003   2.885   0.337   4.031 -0.1324 -1.0349 -0.1196
   43MOL   H12017004   2.972   0.618   3.655 -0.3021  0.2080  0.0917
   43MOL   H12117005   3.054   0.711   3.771  0.5003 -0.7869 -1.1700
   43MOL   C12217006   3.147   0.512   3.745  0.3581 -0.1207  0.5278
   43MOL   C12317007   3.207   0.490   3.884 -0.0267 -0.2041  0.2528
   43MOL   C12417008   3.279   0.587   3.954 -0.9341 -0.3908 -0.1047
   43MOL   C12517009   3.324   0.562   4.088  0.9061  0.1403  0.0457
   43MOL   C12617010   3.305   0.441   4.149 -0.3849 -0.1753  0.0084
   43MOL   O12717011   3.332   0.405   4.279 -0.3317 -0.2060  0.0595
   43MOL   C12817012   3.375   0.506   4.372  0.4504 -0.1031 -0.0984
   43MOL   C12917013   3.243   0.341   4.068 -0.4969  0.0513 -0.0932
   43MOL   C13017014   3.190   0.361   3.939  0.7862 -0.2813  0.2613
   43MOL   C13117015   3.245   0.563   3.642  0.0309 -0.4342 -0.0326
   43MOL   H13217016   3.110   0.415   3.714 -0.7607  0.8972 -1.4276
   43MOL   H13317017   3.302   0.682   3.909 -0.7918  0.0911  0.9533
   43MOL   H13417018   3.381   0.639   4.138  1.8886 -0.4240 -0.1733
   43MOL   H13517019   3.414   0.463   4.464  1.9334  0.6397 -0.3721
   43MOL   H13617020   3.452   0.575   4.338  0.3913  0.0626  0.1024
   43MOL   H13717021   3.289   0.572   4.388  0.2336  0.4012 -3.0437
   43MOL   H13817022   3.225   0.244   4.113 -2.4622  0.5545  0.2393
   43MOL   H13917023   3.148   0.280   3.881  0.9453 -0.3270  0.2109
   43MOL   H14017024   3.262   0.667   3.671 -1.4575 -0.4810  1.1235
   43MOL   H14117025   3.188   0.570   3.549 -3.3229 -0.8860  1.8937
   43MOL   C14217026   3.381   0.491   3.633 -0.1516 -0.0154  1.0158
   43MOL   C14317027   3.367   0.341   3.608  0.1303 -0.9332  0.0379
   43MOL   C14417028   3.272   0.291   3.516  0.9370 -0.4868  0.3301
   43MOL   C14517029   3.264   0.152   3.493  0.5279 -0.1590 -0.3021
   43MOL   C14617030   3.347   0.058   3.566 -0.1807  0.1222  0.5175
   43MOL   O14717031   3.331   7.962   3.547 -0.3723  0.6976  0.0016
   43MOL   C14817032   3.430   7.873   3.599 -0.2268 -0.0906  0.4826
   43MOL   C14917033   3.436   0.114   3.666 -0.2347  0.6328  0.1022
   43MOL   C15017034   3.453   0.253   3.681 -0.1492 -0.0940 -0.5754
   43MOL   C15117035   3.464   0.549   3.516  0.3798 -0.7188  0.0299
   43MOL   H15217036   3.439   0.485   3.725 -0.3302  0.0915  1.1340
   43MOL   H15317037   3.201   0.357   3.468  0.0465 -1.1245  0.7584
   43MOL   H15417038   3.193   0.127   3.416  0.8215  1.9695 -1.3105
   43MOL   H15517039   3.529   7.885   3.553 -0.2288  0.6297  0.6623
   43MOL   H15617040   3.450   7.893   3.704  1.9444  3.4764 -0.5229
   43MOL   H15717041   3.395   7.770   3.608  1.0657 -0.2871  4.4674
   43MOL   H15817042   3.504   0.057   3.728 -1.2899 -0.0806  0.6118
   43MOL   H15917043   3.523   0.286   3.756  1.3712 -2.0495 -1.1000
   43MOL   H16017044   3.411   0.543   3.421 -0.0470  2.5612  0.0053
   43MOL   H16117045   3.547   0.480   3.500  1.3804  0.8764 -2.0077
   43MOL   C16217046   3.512   0.699   3.529  0.0605 -0.0463 -0.0135
   43MOL   C16317047   3.592   0.740   3.409  0.2035  0.1290  0.0171
   43MOL   C16417048   3.734   0.739   3.417 -0.9996 -0.1173 -0.8461
   43MOL   C16517049   3.812   0.774   3.306 -0.2204 -0.1094 -0.1192
   43MOL   C16617050   3.746   0.803   3.182 -0.2872 -0.2546  0.9506
   43MOL   O16717051   3.825   0.835   3.067  0.3462 -0.2448 -0.3556
   43MOL   C16817052   3.783   0.953   2.996  0.0788  0.1369 -0.7832
   43MOL   C16917053   3.599   0.801   3.174 -0.0992 -0.7470 -0.1392
   43MOL   C17017054   3.530   0.776   3.289  0.7737 -0.0921  0.3114
   43MOL   C17117055   3.578   0.736   3.664  0.6569 -0.2951  0.1018
   43MOL   H17217056   3.424   0.762   3.515  0.4848  0.4948 -0.3257
   43MOL   H17317057   3.782   0.698   3.505 -1.4884 -0.8987 -0.9397
   43MOL   H17417058   3.919   0.784   3.312 -0.2827  0.4706  0.0898
   43MOL   H17517059   3.711   0.924   2.920  0.4561 -2.1853 -0.2754
   43MOL   H17617060   3.860   1.000   2.934 -1.4532  0.0241 -2.8462
   43MOL   H17717061   3.735   1.024   3.063 -1.4788 -0.8610 -0.8273
   43MOL   H17817062   3.555   0.833   3.080 -2.4228  0.3330  1.2672
   43MOL   H17917063   3.423   0.792   3.288  0.9514  1.1790 -1.4711
   43MOL   H18017064   3.668   0.680   3.685  1.1377 -0.0768 -1.3446
   43MOL   H18117065   3.508   0.711   3.744  1.2836  1.9373  1.3942
   43MOL   C18217066   3.606   0.886   3.690  0.0625 -0.2330  0.0310
   43MOL   C18317067   3.678   0.902   3.826  0.0579  0.0132  0.0460
   43MOL   C18417068   3.609   0.874   3.946  0.4208 -0.7064 -0.1826
   43MOL   C18517069   3.670   0.889   4.071  0.5718 -0.7270 -0.4460
   43MOL   C18617070   3.795   0.947   4.081 -0.0739  0.1611 -0.1662
   43MOL   O18717071   3.839   0.978   4.203 -0.6020  0.1763 -0.5581
   43MOL   C18817072   3.973   1.016   4.220 -0.3958 -0.4322 -0.4032
   43MOL   C18917073   3.872   0.971   3.967 -0.0153  0.1643 -0.2185
   43MOL   C19017074   3.811   0.947   3.835  0.4853  0.9455  0.2338
   43MOL   C19117075   3.489   0.984   3.669  0.5199 -0.3844 -0.1157
   43MOL   H19217076   3.676   0.921   3.613  1.5191  1.2005  1.9464
   43MOL   H19317077   3.504   0.853   3.956  0.3264 -0.2073 -0.1349
   43MOL   H19417078   3.619   0.866   4.163  0.0248 -0.7562 -0.7531
   43MOL   H19517079   4.007   1.101   4.161 -1.7150  1.0096  0.9178
   43MOL   H19617080   4.041   0.937   4.186  0.2019  0.2858 -0.8946
   43MOL   H19717081   4.007   1.025   4.323  1.7163  1.7906 -1.2512
   43MOL   H19817082   3.974   1.006   3.961  0.3269 -0.3261  2.2224
   43MOL   H19917083   3.868   0.950   3.743 -0.9299  0.5326 -0.6724
   43MOL   H20017084   3.417   0.933   3.604  2.4079 -1.1173 -1.6697
   43MOL   H20117085   3.434   0.994   3.763  0.1294 -0.0482 -0.3752
   43MOL   C20217086   3.516   1.125   3.612  0.0680 -0.5714 -0.0327
   43MOL   C20317087   3.400   1.215   3.660  0.1479 -0.2762 -0.4395
   43MOL   C20417088   3.422   1.311   3.766 -0.2247 -0.0899  0.0133
   43MOL   C20517089   3.321   1.396   3.810  0.8386 -0.6913  0.3488
   43MOL   C20617090   3.194   1.388   3.744 -0.2396  0.1593 -0.0904
   43MOL   O20717091   3.090   1.478   3.783  0.3441 -0.1791  0.1062
   43MOL   C20817092   3.062   1.486   3.926 -1.0622  0.6793  0.2570
   43MOL   C20917093   3.176   1.303   3.638 -0.1046  0.8664  0.4803
   43MOL   C21017094   3.274   1.210   3.597  0.4322 -0.2007  0.7648
   43MOL   C21117095   3.524   1.116   3.453 -0.5492  0.0683 -0.3886
   43MOL   H21217096   3.609   1.159   3.659 -0.7940 -1.0162  2.0412
   43MOL   H21317097   3.518   1.314   3.815 -0.0170 -0.7751 -0.3449
   43MOL   H21417098   3.329   1.474   3.885  0.6603 -2.7352  2.5550
   43MOL   H21517099   3.065   1.591   3.952 -1.6404  1.6869 -3.3914
   43MOL   H21617100   2.959   1.454   3.937 -0.2774 -2.5047 -0.9034
   43MOL   H21717101   3.123   1.422   3.991  2.4513  2.7319 -0.8618
   43MOL   H21817102   3.075   1.309   3.599 -0.7360  2.9434  2.3107
   43MOL   H21917103   3.255   1.133   3.523  2.5840  1.5100 -1.6645
   43MOL   H22017104   3.450   1.050   3.409  1.9373 -0.1311 -4.5118
   43MOL   H22117105   3.611   1.059   3.420  0.2893  0.3856  1.2194
   43MOL   C22217106   3.539   1.245   3.365 -0.1375 -0.8598 -0.3931
   43MOL   C22317107   3.653   1.324   3.423  0.1760 -0.8325  0.1615
   43MOL   C22417108   3.787   1.297   3.387 -0.3571 -0.0678  0.1774
   43MOL   C22517109   3.890   1.364   3.458  0.5515 -1.0278  0.0275
   43MOL   C22617110   3.856   1.469   3.548 -0.2012  0.2907  1.3670
   43MOL   O22717111   3.948   1.544   3.620  0.1498  0.3029  0.4082
   43MOL   C22817112   4.090   1.518   3.602 -0.7363 -0.5955 -0.0061
   43MOL   C22917113   3.722   1.491   3.579  0.2447  0.6156 -0.0827
   43MOL   C23017114   3.623   1.425   3.509 -0.3169  0.1695 -0.5088
   43MOL   C23117115   3.543   1.214   3.208 -0.3547 -0.8775 -0.0539
   43MOL   H23217116   3.450   1.299   3.396 -0.7842 -1.2026 -1.6262
   43MOL   H23317117   3.820   1.211   3.330 -0.6769  0.4371 -0.7933
   43MOL   H23417118   3.992   1.339   3.432  1.8745  0.6967  3.1519
   43MOL   H23517119   4.113   1.412   3.614 -0.3365 -0.2895  2.2121
   43MOL   H23617120   4.119   1.529   3.497 -0.2000 -1.4717  0.0373
   43MOL   H23717121   4.151   1.571   3.675  1.3198 -4.0890  0.9616
   43MOL   H23817122   3.685   1.562   3.653 -2.2604  0.8637 -1.5042
   43MOL   H23917123   3.522   1.448   3.540 -0.3913  0.9176 -1.2647
   43MOL   H24017124   3.641   1.167   3.193  0.9919  1.6969  0.3946
   43MOL   H24117125   3.465   1.140   3.192  0.1975 -1.2873 -0.8571
   43MOL   C24217126   3.522   1.342   3.121 -1.3790 -0.0836 -0.0851
   43MOL   C24317127   3.653   1.424   3.118  0.6871 -0.3666  0.2063
   43MOL   C24417128   3.768   1.388   3.049  0.4045 -0.0434  0.2855
   43MOL   C24517129   3.886   1.462   3.058 -0.6103 -0.3205 -0.5174
   43MOL   C24617130   3.894   1.577   3.137  0.0857  0.3987 -0.1859
   43MOL   O24717131   4.013   1.637   3.163  0.5383 -0.4426 -0.4135
   43MOL   C24817132   4.013   1.762   3.233 -0.1366  0.1789  0.5974
   43MOL   C24917133   3.769   1.625   3.191 -0.2046 -0.0448 -0.2058
   43MOL   C25017134   3.652   1.551   3.177  0.5036 -0.6103 -0.4381
   43MOL   C25117135   3.472   1.300   2.977 -0.0237  0.4046  0.5835
   43MOL   H25217136   3.454   1.415   3.166 -0.0167  1.4009 -0.3699
   43MOL   H25317137   3.777   1.289   3.008 -2.1414 -0.2941  0.2635
   43MOL   H25417138   3.979   1.430   3.014 -0.5202  0.4996 -0.9400
   43MOL   H25517139   3.961   1.755   3.328 -3.1820  0.0904 -0.9985
   43MOL   H25617140   4.116   1.787   3.256  0.3331 -1.2836  0.0905
   43MOL   H25717141   3.959   1.840   3.177 -1.0439 -0.5636  0.4230
   43MOL   H25817142   3.755   1.725   3.229  0.4974 -0.1820  0.4092
   43MOL   H25917143   3.563   1.588   3.225  1.2504  0.4257  0.1778
   43MOL   H26017144   3.517   1.203   2.955 -1.1119 -0.0304  0.2471
   43MOL   H26117145   3.526   1.370   2.912  2.0302 -0.6861  1.0817
   43MOL   C26217146   3.317   1.318   2.961  0.6466 -0.1099 -0.4375
   43MOL   C26317147   3.242   1.204   3.047  0.0121 -0.4853  0.1692
   43MOL   C26417148   3.236   1.068   3.000  0.4462 -0.0340 -0.2453
   43MOL   C26517149   3.190   0.963   3.084 -0.2994  0.7104  0.3473
   43MOL   C26617150   3.137   0.993   3.210 -0.2320  1.0925 -0.3954
   43MOL   O26717151   3.080   0.893   3.290 -0.0846 -0.1826 -0.7733
   43MOL   C26817152   3.061   0.762   3.250  0.0362  0.3434 -0.0690
   43MOL   C26917153   3.122   1.128   3.244 -0.5497  0.1523 -0.2960
   43MOL   C27017154   3.183   1.229   3.172  0.0896 -0.3352 -0.8012
   43MOL   C27117155   3.280   1.322   2.810 -0.1380 -0.2134  0.4146
   43MOL   H27217156   3.289   1.412   3.008  3.0128  1.0535 -1.3084
   43MOL   H27317157   3.278   1.045   2.903  0.3553 -0.1790 -0.2507
   43MOL   H27417158   3.198   0.857   3.062 -0.9274  0.7831 -0.2525
   43MOL   H27517159   3.156   0.710   3.241 -1.5770 -2.6667 -0.0956
   43MOL   H27617160   3.008   0.752   3.156 -1.9811  0.4354  1.0141
   43MOL   H27717161   3.009   0.710   3.331 -1.4003  1.8598  0.0221
   43MOL   H27817162   3.070   1.159   3.334  0.2116  2.7150 -0.6901
   43MOL   H27917163   3.172   1.333   3.201  2.6052  0.5456 -2.8049
   43MOL   H28017164   3.361   1.364   2.750 -0.3429 -0.2242  0.1349
   43MOL   H28117165   3.279   1.224   2.762  1.4110  0.7716 -1.6640
   43MOL   C28217166   3.159   1.405   2.775 -0.3578 -0.7444 -0.1814
   43MOL   C28317167   3.101   1.362   2.639  0.0861  0.1403 -0.0136
   43MOL   C28417168   3.158   1.410   2.520  0.4046 -0.0154  0.0219
   43MOL   C28517169   3.109   1.378   2.388  0.1289 -0.0865  0.3742
   43MOL   C28617170   2.991   1.303   2.387  0.3585 -0.6824 -0.1481
   43MOL   O28717171   2.940   1.279   2.263  0.3127 -0.1896 -0.0062
   43MOL   C28817172   2.806   1.244   2.267 -0.0215  0.8833 -0.1032
   43MOL   C28917173   2.930   1.259   2.504 -0.1522 -0.0470 -0.1822
   43MOL   C29017174   2.984   1.286   2.636  0.2974  0.4906 -0.1075
   43MOL   C29117175   3.168   1.561   2.799 -0.6414  0.0910  0.3882
   43MOL   H29217176   3.085   1.379   2.851 -0.2477  1.4846  0.7151
   43MOL   H29317177   3.245   1.472   2.529  1.5783 -1.9226  2.4932
   43MOL   H29417178   3.156   1.419   2.299 -3.4373  0.3509 -1.3950
   43MOL   H29517179   2.803   1.138   2.292 -0.9802 -0.1314 -4.2399
   43MOL   H29617180   2.743   1.296   2.339  0.0486 -1.4667  1.7162
   43MOL   H29717181   2.752   1.243   2.173  1.2300  0.0396 -0.8282
   43MOL   H29817182   2.836   1.207   2.505  0.3725 -0.9847  0.6324
   43MOL   H29917183   2.921   1.260   2.720  0.5275 -0.8593 -0.3439
   43MOL   H30017184   3.200   1.599   2.896 -0.2977 -1.6487  0.9857
   43MOL   H30117185   3.254   1.604   2.749 -0.2453  1.3382  2.1034
   43MOL   C30217186   3.040   1.632   2.765 -0.1257  0.1008 -0.1337
   43MOL   C30317187   2.915   1.605   2.861 -0.6616 -0.6266 -1.0803
   43MOL   C30417188   2.791   1.573   2.805  0.6585  0.3940  0.1917
   43MOL   C30517189   2.682   1.554   2.889 -1.0371  0.4487  0.5534
   43MOL   C30617190   2.691   1.578   3.030 -0.0384 -0.3429  0.1089
   43MOL   O30717191   2.577   1.578   3.103  0.1975  0.3951 -0.3452
   43MOL   C30817192   2.576   1.651   3.225  0.0073  0.1294  0.5850
   43MOL   C30917193   2.821   1.604   3.081  0.0555  0.2406 -0.3138
   43MOL   C31017194   2.929   1.625   2.998  0.0194  0.6088 -0.5977
   43MOL   C31117195   3.072   1.782   2.743  0.1559 -0.2346 -0.2467
   43MOL   H31217196   3.017   1.600   2.663 -0.8362  0.4269 -0.0789
   43MOL   H31317197   2.791   1.543   2.701 -1.5143  0.5185  0.1365
   43MOL   H31417198   2.586   1.530   2.845 -0.3039 -0.4403 -0.6037
   43MOL   H31517199   2.649   1.612   3.297  2.9948 -1.4040 -3.0442
   43MOL   H31617200   2.477   1.632   3.265 -1.2173  0.8353 -1.9882
   43MOL   H31717201   2.601   1.757   3.222  1.5924 -0.2237  0.4708
   43MOL   H31817202   2.842   1.616   3.186  0.2905 -0.8735 -0.2331
   43MOL   H31917203   3.026   1.641   3.043 -0.7063  0.7919  0.9359
   43MOL   H32017204   3.158   1.787   2.677 -0.4727  0.6990 -1.0167
   43MOL   H32117205   3.108   1.824   2.837 -3.9482  2.2603  0.3581
   43MOL   C32217206   2.958   1.867   2.679 -0.4451  0.4669 -0.0372
   43MOL   C32317207   2.918   1.818   2.538 -0.9581 -0.0443 -0.2603
   43MOL   C32417208   2.781   1.786   2.521 -0.9374  0.2108 -0.1089
   43MOL   C32517209   2.735   1.741   2.392 -0.2123  0.0426 -0.8514
   43MOL   C32617210   2.823   1.736   2.284  0.0268 -0.2532  0.3351
   43MOL   O32717211   2.772   1.700   2.159 -0.1572 -0.2160 -0.3839
   43MOL   C32817212   2.636   1.721   2.129  0.3565  0.4693 -0.6090
   43MOL   C32917213   2.960   1.772   2.304  0.3896  0.4487  0.0145
   43MOL   C33017214   3.005   1.818   2.429 -0.3427  0.1149  0.5199
   43MOL   C33117215   2.981   2.019   2.683  0.3203 -0.3070 -0.0952
   43MOL   H33217216   2.879   1.847   2.752  0.8681  0.9817  1.5466
   43MOL   H33317217   2.709   1.783   2.601 -0.5211 -0.0810  0.2556
   43MOL   H33417218   2.631   1.714   2.379 -0.4447  1.9369 -3.1417
   43MOL   H33517219   2.576   1.642   2.175 -0.4450  0.9139 -0.8704
   43MOL   H33617220   2.625   1.723   2.020 -0.8210  3.7994 -0.4865
   43MOL   H33717221   2.609   1.821   2.161  1.2472  0.6614 -0.4606
   43MOL   H33817222   3.027   1.764   2.219 -0.1244 -1.0691 -0.2677
   43MOL   H33917223   3.109   1.847   2.440 -0.4690  0.6498  0.3470
   43MOL   H34017224   3.077   2.049   2.642 -0.9775  1.7829 -1.7621
   43MOL   H34117225   2.906   2.053   2.611  0.3101 -1.4714 -0.6475
   43MOL   C34217226   2.974   2.091   2.819  0.1644 -0.0879 -0.5321
   43MOL   C34317227   2.829   2.099   2.870  0.6038  0.2078  0.6985
   43MOL   C34417228   2.745   2.177   2.794 -0.8574  0.4465  0.0506
   43MOL   C34517229   2.606   2.182   2.830  0.5440 -0.6957  0.1741
   43MOL   C34617230   2.557   2.106   2.936 -0.2428 -0.0763 -0.9449
   43MOL   O34717231   2.421   2.098   2.952  0.4369  0.4850 -0.0645
   43MOL   C34817232   2.375   2.018   3.056  0.6139 -0.3362 -0.5820
   43MOL   C34917233   2.651   2.024   3.006  0.4055  0.2393 -0.3742
   43MOL   C35017234   2.784   2.022   2.973  0.5227  0.0844  0.1366
   43MOL   C35117235   3.048   2.234   2.824 -0.2455 -0.0284 -0.3426
   43MOL   H35217236   3.028   2.030   2.891 -2.5848 -0.7682  1.0394
   43MOL   H35317237   2.780   2.230   2.707  1.2012  0.1936  0.7053
   43MOL   H35417238   2.545   2.249   2.771  1.6767 -2.2495 -2.9114
   43MOL   H35517239   2.402   1.912   3.050  1.4360 -0.2315  0.9310
   43MOL   H35617240   2.412   2.047   3.154  0.2485 -0.1553 -0.4993
   43MOL   H35717241   2.267   2.030   3.068  0.4636 -0.1664 -2.0481
   43MOL   H35817242   2.614   1.953   3.079 -2.8220  1.7199 -0.4479
   43MOL   H35917243   2.856   1.960   3.025 -0.7773  1.2260  3.4249
   43MOL   H36017244   3.003   2.303   2.752 -1.6563 -0.2734  0.2829
   43MOL   H36117245   3.030   2.269   2.926  0.1754 -1.2635  0.1644
   43MOL   C36217246   3.204   2.245   2.807 -0.3521 -0.4429 -0.5577
   43MOL   C36317247   3.269   2.122   2.877 -0.1164  0.0375  0.9789
   43MOL   C36417248   3.251   2.102   3.014 -0.4947  0.0524  0.2665
   43MOL   C36517249   3.283   1.977   3.069 -0.5550 -0.1531 -0.6706
   43MOL   C36617250   3.346   1.880   2.985 -0.2974  0.1437  0.7101
   43MOL   O36717251   3.374   1.748   3.020 -0.6724 -0.0409  0.0106
   43MOL   C36817252   3.329   1.719   3.156  0.2833  0.1385 -0.0332
   43MOL   C36917253   3.369   1.904   2.849  0.0534  0.1785 -0.0273
   43MOL   C37017254   3.326   2.025   2.793 -0.4471 -0.3094 -0.1708
   43MOL   C37117255   3.250   2.383   2.870 -0.4736  0.8258  0.6052
   43MOL   H37217256   3.225   2.241   2.700 -1.5142  1.8990 -0.8999
   43MOL   H37317257   3.211   2.182   3.074 -1.9190 -1.0099  0.7712
   43MOL   H37417258   3.259   1.950   3.171  0.0420 -0.1269 -0.5206
   43MOL   H37517259   3.222   1.733   3.167 -0.0467  1.2502 -3.9950
   43MOL   H37617260   3.359   1.616   3.179 -0.9035 -0.9208 -3.0706
   43MOL   H37717261   3.380   1.784   3.227 -0.2502  2.9701 -2.1913
   43MOL   H37817262   3.420   1.824   2.798 -0.9888 -0.2503 -0.4244
   43MOL   H37917263   3.325   2.029   2.685 -2.5615 -0.8233 -0.1939
   43MOL   H38017264   3.205   2.400   2.967  1.2285 -2.8066  2.1266
   43MOL   H38117265   3.358   2.370   2.880 -0.6363  0.5959  2.0937
   43MOL   C38217266   3.225   2.507   2.781  0.2651 -0.5830 -0.6538
   43MOL   C38317267   3.300   2.515   2.648 -0.1294  0.0155  0.0146
   43MOL   C38417268   3.231   2.556   2.534 -0.2073  0.0111  0.3304
   43MOL   C38517269   3.290   2.545   2.404 -0.2961 -0.1915 -0.1790
   43MOL   C38617270   3.417   2.492   2.390  0.1574 -1.1907 -0.0614
   43MOL   O38717271   3.491   2.476   2.276 -0.1204  0.0628  0.0622
   43MOL   C38817272   3.429   2.513   2.157  0.0150  0.3138  0.5001
   43MOL   C38917273   3.491   2.466   2.506 -0.3291 -0.0857 -0.3091
   43MOL   C39017274   3.435   2.471   2.632 -0.0664 -0.0397 -0.4343
   43MOL   C39117275   3.220   2.631   2.863  0.0522 -0.1751  0.0332
   43MOL   H39217276   3.124   2.487   2.745  0.4639 -3.2209  0.1618
   43MOL   H39317277   3.126   2.580   2.547 -0.5021 -0.2281 -1.4732
   43MOL   H39417278   3.212   2.578   2.337 -2.0079 -1.4146  1.1509
   43MOL   H39517279   3.367   2.602   2.165 -1.2744 -0.4439 -0.8342
   43MOL   H39617280   3.375   2.428   2.115 -2.8254  1.5684  1.4910
   43MOL   H39717281   3.504   2.537   2.082  0.2493 -3.1085 -0.4328
   43MOL   H39817282   3.589   2.422   2.496  0.7308  2.1821 -0.2215
   43MOL   H39917283   3.491   2.434   2.717 -2.9262  0.7407  1.8608
   43MOL   H40017284   3.316   2.645   2.912 -0.1724 -1.2887  0.8187
   43MOL   H40117285   3.138   2.624   2.935 -1.0126 -0.9984 -1.2219
   43MOL   H40217286   3.211   2.715   2.795 -2.8459  1.8128  2.6939
   44MOL     C117287   7.918   4.957   1.496 -0.4727 -0.2265  0.6581
   44MOL     C217288   7.859   4.983   1.638 -0.1294  0.5626  0.3754
   44MOL     C317289   7.731   4.942   1.672  0.1619  0.1318  0.5566
   44MOL     C417290   7.672   4.987   1.795  0.0756 -0.4017 -0.5078
   44MOL     C517291   7.751   5.045   1.895 -0.4335  0.3195  0.6472
   44MOL     O617292   7.708   5.068   2.020  0.1861 -0.1472 -0.0882
   44MOL     C717293   7.573   5.039   2.053  0.1174  0.4210  0.2214
   44MOL     C817294   7.887   5.074   1.855  0.0425 -0.5501 -0.2334
   44MOL     C917295   7.937   5.051   1.727  0.7391  0.2596 -0.1190
   44MOL    C1017296   7.880   5.073   1.401 -0.0247  0.3849  0.1271
   44MOL    H1117297   7.881   4.863   1.454 -1.3982 -0.9332  2.9836
   44MOL    H1217298   7.658   4.893   1.610 -0.9183  0.5728  1.4640
   44MOL    H1317299   7.572   4.949   1.809  0.2699 -0.0839  1.9140
   44MOL    H1417300   7.491   5.082   1.995  0.5806 -1.0314 -1.5540
   44MOL    H1517301   7.564   4.930   2.052  1.4569  0.2865  2.0133
   44MOL    H1617302   7.556   5.070   2.156 -1.9749  0.5754 -0.1332
   44MOL    H1717303   7.950   5.123   1.927  0.0998 -0.8304 -0.0932
   44MOL    H1817304   8.037   5.081   1.698  0.8352 -0.9648 -1.1049
   44MOL    H1917305   7.771   5.082   1.408  0.1212  0.7340  2.1289
   44MOL    H2017306   7.922   5.167   1.434  1.3085  0.1468 -0.8399
   44MOL    H2117307   8.024   4.937   1.511 -0.0371  1.4289 -0.1543
   44MOL    C2217308   7.920   5.057   1.248  0.0391 -0.4825 -0.3003
   44MOL    C2317309   7.936   4.918   1.188 -0.0677  0.1900 -0.5558
   44MOL    C2417310   0.020   4.869   1.145 -0.1037 -0.1210  0.6964
   44MOL    C2517311   0.028   4.738   1.090 -0.0378 -0.4883 -0.2716
   44MOL    C2617312   7.951   4.658   1.073 -0.1528 -0.4739 -0.1647
   44MOL    O2717313   7.964   4.535   1.018  0.0246 -0.2410 -0.3890
   44MOL    C2817314   7.849   4.489   0.949  0.2661 -0.6173 -0.6912
   44MOL    C2917315   7.831   4.708   1.125 -0.2927 -0.2026  0.1241
   44MOL    C3017316   7.826   4.835   1.182  0.1727  0.1170 -0.4848
   44MOL    C3117317   7.819   5.141   1.162  0.6398 -0.1328 -0.2243
   44MOL    H3217318   8.022   5.097   1.240 -0.3441  0.2382 -1.7990
   44MOL    H3317319   0.111   4.928   1.147  1.7364 -2.7568 -1.1584
   44MOL    H3417320   0.129   4.720   1.054  0.5616  0.6667  0.8126
   44MOL    H3517321   7.812   4.557   0.873 -0.4242  0.4625  0.5929
   44MOL    H3617322   7.765   4.468   1.015  0.6495 -0.6748 -0.2210
   44MOL    H3717323   7.866   4.388   0.910 -0.7447 -0.7566 -0.7803
   44MOL    H3817324   7.741   4.651   1.135  0.7762 -1.5608  2.5894
   44MOL    H3917325   7.739   4.880   1.228  0.5247  0.3495 -0.0351
   44MOL    H4017326   7.722   5.097   1.188  0.3748  2.2063  3.1509
   44MOL    H4117327   7.798   5.243   1.193  0.7110  0.0503 -0.7913
   44MOL    C4217328   7.844   5.138   1.006  0.9483 -0.1274 -0.5405
   44MOL    C4317329   7.958   5.219   0.963  0.0314 -0.1791  0.1386
   44MOL    C4417330   0.018   5.170   0.888  0.2061 -0.1151 -0.5400
   44MOL    C4517331   0.114   5.259   0.825 -0.5563  0.8418 -1.3126
   44MOL    C4617332   0.119   5.397   0.852  1.0873 -0.3373 -0.3174
   44MOL    O4717333   0.219   5.482   0.798  1.1215  0.4763 -0.3064
   44MOL    C4817334   0.330   5.427   0.719  0.0802 -0.1253  0.2355
   44MOL    C4917335   0.015   5.450   0.933  0.2905  0.3204 -1.0427
   44MOL    C5017336   7.961   5.358   0.992  0.2257  0.6923  0.0955
   44MOL    C5117337   7.720   5.165   0.927  0.1117  0.4231 -0.0370
   44MOL    H5217338   7.863   5.031   0.992  0.3332 -0.3877  0.5284
   44MOL    H5317339   0.019   5.064   0.871 -1.0696 -0.4975  1.6900
   44MOL    H5417340   0.181   5.210   0.756 -0.2332  0.7714 -0.9543
   44MOL    H5517341   0.401   5.506   0.694  0.8381 -0.2708  1.8131
   44MOL    H5617342   0.385   5.350   0.774 -0.4878  0.9302  2.3473
   44MOL    H5717343   0.294   5.388   0.624 -2.0506 -1.0398  1.3864
   44MOL    H5817344   0.010   5.556   0.954  0.1653 -0.0041  0.6448
   44MOL    H5917345   7.874   5.398   1.043  0.2452  0.2381  0.4905
   44MOL    H6017346   7.748   5.185   0.824  0.0747  0.4762 -0.0372
   44MOL    H6117347   7.676   5.257   0.966  0.6056  0.9010 -0.5944
   44MOL    C6217348   7.619   5.050   0.937  0.1855 -0.4768 -0.0182
   44MOL    C6317349   7.604   4.966   0.814 -0.0889 -0.0947 -0.5810
   44MOL    C6417350   7.670   4.839   0.801 -0.5145 -0.5027  0.3580
   44MOL    C6517351   7.653   4.755   0.689 -0.5213 -0.2981  0.1578
   44MOL    C6617352   7.578   4.799   0.582 -0.4497 -0.2988 -0.1529
   44MOL    O6717353   7.564   4.716   0.470 -0.4034  0.0128 -0.6526
   44MOL    C6817354   7.486   4.753   0.358 -0.0988 -0.3874 -0.3165
   44MOL    C6917355   7.523   4.928   0.587  0.3482  0.5887  0.9257
   44MOL    C7017356   7.538   5.017   0.697 -0.2148 -0.4628  0.0113
   44MOL    C7117357   7.487   5.103   0.989 -0.1651 -0.0404 -0.7544
   44MOL    H7217358   7.650   4.979   1.013  1.7872  0.2287  0.0059
   44MOL    H7317359   7.728   4.800   0.884 -0.0174 -1.4832 -0.4371
   44MOL    H7417360   7.682   4.651   0.689 -0.6647 -0.3368  0.2025
   44MOL    H7517361   7.382   4.750   0.392  0.9774 -0.8678  3.1073
   44MOL    H7617362   7.476   4.667   0.292  0.1192  1.2700 -2.5836
   44MOL    H7717363   7.504   4.845   0.303 -0.1640  0.6652  1.3926
   44MOL    H7817364   7.475   4.971   0.500 -2.4142 -1.2729  1.4747
   44MOL    H7917365   7.484   5.111   0.694  0.2632 -0.1597  0.7023
   44MOL    H8017366   7.501   5.162   1.079  0.8905  0.7831 -1.4469
   44MOL    H8117367   7.450   5.171   0.912 -1.9296  0.7304  0.7317
   44MOL    C8217368   7.379   5.000   1.020 -0.6262  0.9230 -0.6807
   44MOL    C8317369   7.423   4.896   1.126  0.4155 -0.2413  0.8834
   44MOL    C8417370   7.433   4.932   1.262  0.3746  0.0402  0.1047
   44MOL    C8517371   7.465   4.838   1.360 -0.4133 -0.0724 -0.1226
   44MOL    C8617372   7.494   4.705   1.323  0.7461 -0.0689 -0.1427
   44MOL    O8717373   7.538   4.612   1.420  0.0933 -0.8687 -0.3913
   44MOL    C8817374   7.497   4.477   1.397 -0.4844  0.0272 -0.6698
   44MOL    C8917375   7.482   4.669   1.185  0.3985 -0.2926  0.4738
   44MOL    C9017376   7.451   4.763   1.084  0.0766  0.5949 -0.1462
   44MOL    C9117377   7.248   5.062   1.060 -0.6442 -0.1264 -0.0381
   44MOL    H9217378   7.353   4.946   0.929  0.4959 -2.9124  1.1337
   44MOL    H9317379   7.414   5.037   1.281 -4.1072 -0.6885  0.0258
   44MOL    H9417380   7.463   4.863   1.465  1.5462 -0.3509 -0.0055
   44MOL    H9517381   7.400   4.464   1.347 -1.0840 -2.1925  0.9682
   44MOL    H9617382   7.512   4.427   1.493  1.7724  1.4045 -0.2782
   44MOL    H9717383   7.583   4.433   1.346 -1.1172 -1.1134 -0.7740
   44MOL    H9817384   7.496   4.567   1.151 -1.6383 -0.2152 -0.7153
   44MOL    H9917385   7.447   4.731   0.981 -2.3084  0.9103 -0.1802
   44MOL   H10017386   7.272   5.104   1.157  0.0722 -1.6477  0.4621
   44MOL   H10117387   7.219   5.144   0.994 -0.9498  0.8308  1.2617
   44MOL   C10217388   7.130   4.975   1.094  0.6940  0.4952  0.8978
   44MOL   C10317389   7.036   5.053   1.186  0.8152 -0.1007  0.0299
   44MOL   C10417390   6.957   5.160   1.137  0.6809  0.0968  0.4374
   44MOL   C10517391   6.871   5.232   1.221  0.0428  0.2814  0.2117
   44MOL   C10617392   6.868   5.198   1.362  0.4950 -0.7542 -0.0340
   44MOL   O10717393   6.792   5.275   1.452 -0.1432  0.0020  0.1298
   44MOL   C10817394   6.767   5.410   1.428  0.1989 -0.8700  0.1262
   44MOL   C10917395   6.943   5.088   1.408  0.0204  0.3854  0.3531
   44MOL   C11017396   7.025   5.012   1.318  0.3304 -0.0832 -0.7297
   44MOL   C11117397   7.048   4.941   0.956 -0.1103 -0.1743  0.0882
   44MOL   H11217398   7.157   4.879   1.139 -0.1692 -0.9887 -1.6422
   44MOL   H11317399   6.956   5.176   1.030 -2.8978  2.0985  0.6841
   44MOL   H11417400   6.803   5.305   1.179  1.2374  0.5439 -1.2896
   44MOL   H11517401   6.855   5.468   1.399 -0.9211  1.2830  0.8922
   44MOL   H11617402   6.682   5.422   1.361 -0.7610  0.2774  1.5176
   44MOL   H11717403   6.746   5.448   1.528  0.5270 -1.6706  0.5012
   44MOL   H11817404   6.933   5.070   1.514  0.8518 -3.6163 -0.1768
   44MOL   H11917405   7.100   4.940   1.349 -0.4582  0.1082  1.6829
   44MOL   H12017406   6.945   4.924   0.988  0.9114 -1.9117  2.6423
   44MOL   H12117407   7.049   5.027   0.889  0.3862 -0.5172 -0.3482
   44MOL   C12217408   7.095   4.821   0.869 -0.0482  0.0306  0.2187
   44MOL   C12317409   7.057   4.844   0.725  0.4026  0.1630 -0.0906
   44MOL   C12417410   6.923   4.811   0.680 -0.2647 -0.3915  0.2495
   44MOL   C12517411   6.890   4.824   0.546 -0.2560 -0.8847  0.3565
   44MOL   C12617412   6.985   4.884   0.460  0.2631  0.0358  0.0683
   44MOL   O12717413   6.935   4.906   0.334  0.4647  0.1726 -0.3323
   44MOL   C12817414   7.025   4.935   0.225  0.4170  0.0912  0.1116
   44MOL   C12917415   7.112   4.923   0.501 -0.0395  0.2753  0.1126
   44MOL   C13017416   7.149   4.902   0.638 -0.1656  0.0062 -0.4625
   44MOL   C13117417   7.052   4.681   0.925 -0.4199 -0.8010  0.4650
   44MOL   H13217418   7.204   4.816   0.869  0.0186  1.3499 -0.8897
   44MOL   H13317419   6.843   4.787   0.749 -1.3310  3.3670  0.4737
   44MOL   H13417420   6.791   4.798   0.509 -0.5292 -1.8969  1.7635
   44MOL   H13517421   6.976   4.920   0.129  0.4657  1.8934 -0.2209
   44MOL   H13617422   7.032   5.044   0.224  0.1739  0.0965 -1.3386
   44MOL   H13717423   7.123   4.888   0.226  0.7029  0.6532  2.5361
   44MOL   H13817424   7.180   4.976   0.436  0.1169 -0.9092 -0.7102
   44MOL   H13917425   7.243   4.941   0.672  0.2415  0.4890 -2.1462
   44MOL   H14017426   6.944   4.690   0.940 -0.4095 -1.5646  1.0339
   44MOL   H14117427   7.096   4.666   1.024  2.4678 -0.5795 -0.7460
   44MOL   C14217428   7.073   4.556   0.831 -0.0412  0.2172 -0.1499
   44MOL   C14317429   7.216   4.513   0.836 -0.6213  0.7508  1.1874
   44MOL   C14417430   7.284   4.511   0.713 -0.8694 -0.3113  0.5199
   44MOL   C14517431   7.414   4.458   0.705  0.1192 -1.2898  0.1340
   44MOL   C14617432   7.470   4.401   0.827  0.9068 -0.0363 -0.3673
   44MOL   O14717433   7.603   4.351   0.835  0.2804  0.2563 -0.1226
   44MOL   C14817434   7.666   4.336   0.711 -0.0531 -0.4303 -0.4499
   44MOL   C14917435   7.400   4.406   0.947 -0.2212  0.0626  0.2370
   44MOL   C15017436   7.271   4.459   0.946  0.5082  0.0120  0.4123
   44MOL   C15117437   6.974   4.439   0.868  0.3783  1.1814  0.4510
   44MOL   H15217438   7.046   4.583   0.728 -0.7228  1.3973  0.3214
   44MOL   H15317439   7.242   4.560   0.626  1.9745 -1.0640 -1.3551
   44MOL   H15417440   7.464   4.461   0.609  1.1847 -0.7574  0.6911
   44MOL   H15517441   7.667   4.428   0.653  1.4511  0.5097  1.0417
   44MOL   H15617442   7.763   4.289   0.724 -0.3825 -0.9670  0.0964
   44MOL   H15717443   7.617   4.263   0.646  1.4158  0.2263 -2.3515
   44MOL   H15817444   7.439   4.360   1.036 -1.6299 -0.2347  0.7152
   44MOL   H15917445   7.217   4.441   1.038 -0.0766  0.9740  0.2685
   44MOL   H16017446   6.881   4.477   0.911  0.4980 -0.1998  1.9976
   44MOL   H16117447   7.017   4.396   0.959  0.9565 -0.1721 -0.4554
   44MOL   C16217448   6.939   4.336   0.759  0.6095 -0.6338 -0.6101
   44MOL   C16317449   6.859   4.401   0.641  1.4323 -0.4206 -0.0036
   44MOL   C16417450   6.935   4.446   0.531 -0.4931 -0.9523 -0.6560
   44MOL   C16517451   6.871   4.502   0.420  0.6408 -0.1019 -0.2676
   44MOL   C16617452   6.732   4.514   0.413 -0.0847  0.4244  0.4030
   44MOL   O16717453   6.655   4.551   0.305 -0.5444  0.4097  0.1847
   44MOL   C16817454   6.729   4.601   0.188  0.7522 -0.2081  0.9307
   44MOL   C16917455   6.661   4.461   0.520  0.6633  1.2226  0.0866
   44MOL   C17017456   6.721   4.410   0.642  0.5117 -1.1036 -0.4611
   44MOL   C17117457   6.860   4.227   0.831  0.2433  0.5007  0.1687
   44MOL   H17217458   7.025   4.285   0.716  0.1325 -1.8949 -0.0687
   44MOL   H17317459   7.043   4.442   0.539 -0.4969  1.9664  1.6791
   44MOL   H17417460   6.933   4.539   0.340  0.5572  2.1634  0.6931
   44MOL   H17517461   6.793   4.533   0.133 -1.7525  0.5143 -3.1230
   44MOL   H17617462   6.780   4.694   0.213  0.0478  0.2698  0.6256
   44MOL   H17717463   6.653   4.623   0.112 -0.5058 -1.0450  1.9427
   44MOL   H17817464   6.555   4.442   0.514  0.8958 -0.1581 -0.0095
   44MOL   H17917465   6.656   4.381   0.724  1.2641 -0.5279  0.3495
   44MOL   H18017466   6.824   4.163   0.751 -2.3428  3.0755 -0.8392
   44MOL   H18117467   6.788   4.264   0.904  0.5474  0.7588  0.3398
   44MOL   C18217468   6.944   4.128   0.919 -0.5310  0.1280  0.3693
   44MOL   C18317469   7.066   4.069   0.850 -0.7327 -0.1613  0.2134
   44MOL   C18417470   7.194   4.117   0.884  0.2524  0.1103  0.6821
   44MOL   C18517471   7.307   4.062   0.821 -0.8117 -0.3477 -0.1578
   44MOL   C18617472   7.297   3.961   0.722  0.0413  0.2166  0.0362
   44MOL   O18717473   7.403   3.899   0.665 -0.5262  0.7049 -0.4249
   44MOL   C18817474   7.536   3.931   0.717 -0.8957  0.3505 -0.1476
   44MOL   C18917475   7.171   3.918   0.683  0.0651 -0.6805  0.1472
   44MOL   C19017476   7.054   3.968   0.750  0.3336 -0.5664  0.2963
   44MOL   C19117477   6.855   4.016   0.977 -0.5069 -0.0183 -0.4648
   44MOL   H19217478   6.984   4.184   1.003  1.1008 -0.5088  0.0424
   44MOL   H19317479   7.213   4.192   0.959  3.3279  0.3654 -0.2886
   44MOL   H19417480   7.405   4.104   0.841 -0.5498 -1.3834  0.8027
   44MOL   H19517481   7.571   4.034   0.722  1.2957 -0.2923 -1.4266
   44MOL   H19617482   7.595   3.889   0.636 -3.1763 -1.8543 -0.7271
   44MOL   H19717483   7.564   3.867   0.801  2.9082  0.9648 -0.8589
   44MOL   H19817484   7.157   3.843   0.607 -0.0472  0.0759 -0.5896
   44MOL   H19917485   6.955   3.930   0.726  0.2853 -1.3108  1.6105
   44MOL   H20017486   6.769   4.060   1.027 -0.8286 -1.9914  0.8072
   44MOL   H20117487   6.815   3.961   0.892 -0.6450  0.3125 -0.6099
   44MOL   C20217488   6.928   3.910   1.064  0.2259 -0.8597  0.8659
   44MOL   C20317489   6.858   3.775   1.070 -0.2825 -0.1267 -0.8503
   44MOL   C20417490   6.870   3.668   0.979  0.2289 -0.4511 -0.0164
   44MOL   C20517491   6.824   3.535   1.000 -0.5565 -0.5068  0.0030
   44MOL   C20617492   6.736   3.516   1.109 -0.2904 -0.5253  0.3503
   44MOL   O20717493   6.678   3.391   1.132  0.3092 -0.2839 -0.0465
   44MOL   C20817494   6.599   3.367   1.250  0.0798 -0.2335 -0.5342
   44MOL   C20917495   6.720   3.625   1.203 -0.0374  0.0140  0.1136
   44MOL   C21017496   6.781   3.747   1.179  0.1437  0.5742 -0.1892
   44MOL   C21117497   6.980   3.961   1.198  0.3722  0.1614  0.6061
   44MOL   H21217498   7.021   3.883   1.014  0.8623  2.9608 -0.1260
   44MOL   H21317499   6.925   3.685   0.888 -2.1662  0.8059 -1.2516
   44MOL   H21417500   6.841   3.464   0.920 -2.1243 -1.1262  0.1937
   44MOL   H21517501   6.511   3.428   1.230  0.9062  0.9509 -0.6851
   44MOL   H21617502   6.581   3.261   1.260  2.3671 -0.6189 -0.0799
   44MOL   H21717503   6.640   3.398   1.347 -0.0699 -1.3933 -0.1029
   44MOL   H21817504   6.664   3.614   1.295  1.1455 -0.1513  0.8330
   44MOL   H21917505   6.761   3.821   1.254  0.1854 -2.2119  2.6753
   44MOL   H22017506   6.886   3.975   1.252  0.0324  0.1861  0.0199
   44MOL   H22117507   7.015   4.062   1.180  1.7790 -0.1579  1.5416
   44MOL   C22217508   7.082   3.880   1.272  0.2410 -0.5172 -0.2278
   44MOL   C22317509   7.219   3.932   1.241  0.0140  0.6695  0.5519
   44MOL   C22417510   7.270   4.050   1.300  0.0794 -0.1030  0.8128
   44MOL   C22517511   7.394   4.101   1.268 -0.0764 -0.1644 -0.4346
   44MOL   C22617512   7.474   4.045   1.164 -0.3893  0.5454 -0.7390
   44MOL   O22717513   7.587   4.114   1.134 -0.3751 -0.0723 -0.3991
   44MOL   C22817514   7.663   4.060   1.022 -0.6527 -0.1428  0.2036
   44MOL   C22917515   7.423   3.935   1.096  0.7861  0.1651  0.3066
   44MOL   C23017516   7.300   3.879   1.138 -0.2068  0.1096  0.5543
   44MOL   C23117517   7.047   3.858   1.421  0.1950  0.3675  0.1841
   44MOL   H23217518   7.066   3.777   1.238 -1.3182  0.5753 -3.0826
   44MOL   H23317519   7.204   4.103   1.367  1.1119  1.1987  0.8172
   44MOL   H23417520   7.438   4.188   1.315  0.8100  0.1866 -1.8547
   44MOL   H23517521   7.752   4.121   1.005  0.3684 -2.0492 -1.5320
   44MOL   H23617522   7.685   3.956   1.047 -0.6062  0.0640  1.0398
   44MOL   H23717523   7.598   4.076   0.936 -2.3983  1.1748  1.7215
   44MOL   H23817524   7.466   3.890   1.008  0.4112  0.4795 -0.0401
   44MOL   H23917525   7.268   3.785   1.094 -0.8467 -0.4793  2.2409
   44MOL   H24017526   6.997   3.944   1.464  0.1327 -1.0029  2.9296
   44MOL   H24117527   6.980   3.772   1.423 -0.8846  1.0545 -2.8291
   44MOL   C24217528   7.172   3.830   1.508  0.3144  0.3667  0.2757
   44MOL   C24317529   7.141   3.859   1.650 -0.0124  0.4321 -0.2013
   44MOL   C24417530   7.209   3.959   1.720  0.4554 -0.0494 -0.1321
   44MOL   C24517531   7.175   3.988   1.850  0.5862 -0.6781  0.1875
   44MOL   C24617532   7.069   3.926   1.920  0.0020  0.4654 -0.0128
   44MOL   O24717533   7.050   3.959   2.055 -0.5910 -0.5860  0.1159
   44MOL   C24817534   6.985   3.870   2.137 -0.5880 -0.3926  0.1665
   44MOL   C24917535   6.998   3.831   1.855 -0.4938  0.1976 -0.1002
   44MOL   C25017536   7.039   3.794   1.717 -0.0668  0.0365 -0.6978
   44MOL   C25117537   7.215   3.686   1.481 -0.5979 -0.1786  0.0937
   44MOL   H25217538   7.260   3.889   1.482  2.3532 -2.5685  0.3028
   44MOL   H25317539   7.294   4.013   1.680  0.4621 -1.3364 -1.8753
   44MOL   H25417540   7.230   4.059   1.910  1.6549 -0.9759 -0.4273
   44MOL   H25517541   7.040   3.866   2.231 -0.6144 -0.8728  0.1644
   44MOL   H25617542   6.882   3.901   2.157 -0.6123 -1.3462  1.5864
   44MOL   H25717543   6.977   3.767   2.103 -1.7599  0.7250 -3.1645
   44MOL   H25817544   6.911   3.784   1.898 -2.5959  2.5776 -1.5732
   44MOL   H25917545   6.973   3.721   1.675  0.0496  0.6069 -1.8881
   44MOL   H26017546   7.217   3.664   1.375 -2.3359 -2.9647  0.6007
   44MOL   H26117547   7.140   3.618   1.522 -0.8750 -0.8312 -1.4966
   44MOL   C26217548   7.357   3.667   1.556  0.3989  0.5921 -0.0104
   44MOL   C26317549   7.469   3.737   1.482 -0.2563  0.4406 -0.0849
   44MOL   C26417550   7.534   3.851   1.537  0.2113  0.3441 -0.8158
   44MOL   C26517551   7.644   3.902   1.467 -0.4124  0.2656 -0.0043
   44MOL   C26617552   7.700   3.844   1.349 -1.1297 -0.6901 -0.4480
   44MOL   O26717553   7.820   3.886   1.281  0.3865 -0.5564  0.1074
   44MOL   C26817554   7.887   4.003   1.336  0.0489  0.1254  0.2753
   44MOL   C26917555   7.625   3.736   1.296  0.1966  0.1755 -0.1669
   44MOL   C27017556   7.515   3.681   1.360 -0.0118 -0.2813 -0.1834
   44MOL   C27117557   7.381   3.512   1.573  0.0236  0.5732  0.0898
   44MOL   H27217558   7.343   3.710   1.656 -1.2448  0.6687 -0.2605
   44MOL   H27317559   7.504   3.893   1.631  0.7172 -0.1760 -0.4212
   44MOL   H27417560   7.694   3.975   1.529 -0.5656  1.2689 -1.0470
   44MOL   H27517561   7.918   4.004   1.441 -0.2222 -0.1681  0.3577
   44MOL   H27617562   7.834   4.092   1.303 -1.0943  0.0221  1.7687
   44MOL   H27717563   7.985   4.013   1.291 -0.4352 -0.1530 -0.8514
   44MOL   H27817564   7.663   3.683   1.211  1.7319 -0.4616  0.9056
   44MOL   H27917565   7.477   3.585   1.329 -2.2993  0.3962  0.4332
   44MOL   H28017566   7.350   3.459   1.483  2.5676  2.7574 -2.1832
   44MOL   H28117567   7.488   3.494   1.575  0.1701  1.1871 -1.4257
   44MOL   C28217568   7.333   3.445   1.694 -0.3084  0.1682 -0.3725
   44MOL   C28317569   7.367   3.524   1.826 -0.6392  0.2105  0.0018
   44MOL   C28417570   7.263   3.579   1.907  0.1171 -0.2974 -0.1813
   44MOL   C28517571   7.294   3.635   2.033 -0.0608  0.0274 -0.4634
   44MOL   C28617572   7.423   3.630   2.087 -0.7451 -0.5449  0.0585
   44MOL   O28717573   7.445   3.684   2.210  0.2551  0.9662 -0.1154
   44MOL   C28817574   7.573   3.689   2.271 -0.5499  0.4330  0.4699
   44MOL   C28917575   7.529   3.577   2.009 -0.2708  0.5822  0.0836
   44MOL   C29017576   7.495   3.536   1.880  0.4109  0.1181  0.1591
   44MOL   C29117577   7.384   3.300   1.717  0.3169 -0.3678  0.0959
   44MOL   H29217578   7.224   3.448   1.691 -0.2596 -0.1300 -3.1520
   44MOL   H29317579   7.160   3.585   1.875  0.0264  1.4458  0.3852
   44MOL   H29417580   7.220   3.683   2.096 -0.7546 -2.5474  0.7235
   44MOL   H29517581   7.622   3.592   2.274  0.4872  0.9467  0.5157
   44MOL   H29617582   7.635   3.761   2.217 -1.9178 -0.6978 -2.7071
   44MOL   H29717583   7.590   3.715   2.376 -1.0093  3.5098 -0.1870
   44MOL   H29817584   7.625   3.567   2.056 -0.0407  3.0676  0.2353
   44MOL   H29917585   7.576   3.490   1.826  0.4019  0.2274  0.0510
   44MOL   H30017586   7.413   3.266   1.618  0.0544  2.4771 -0.9746
   44MOL   H30117587   7.472   3.292   1.780  0.4409 -1.0773 -0.1542
   44MOL   C30217588   7.271   3.201   1.764 -0.6893  0.4957  0.4813
   44MOL   C30317589   7.305   3.060   1.711  0.1533  0.2279  0.5653
   44MOL   C30417590   7.430   2.996   1.724 -0.5399  0.0666 -0.2972
   44MOL   C30517591   7.459   2.866   1.688 -0.1840 -0.3112  0.0647
   44MOL   C30617592   7.351   2.792   1.627  0.5189 -0.2115 -0.1520
   44MOL   O30717593   7.363   2.665   1.582 -0.4064 -0.1916 -0.3970
   44MOL   C30817594   7.487   2.600   1.597 -0.0570  0.0608  0.5116
   44MOL   C30917595   7.228   2.852   1.612 -0.0859 -0.1021  0.3798
   44MOL   C31017596   7.202   2.984   1.651 -0.0957  0.4254 -0.2228
   44MOL   C31117597   7.262   3.210   1.917 -0.2754 -0.4730  0.0445
   44MOL   H31217598   7.182   3.236   1.712  0.0112  1.4299 -0.1111
   44MOL   H31317599   7.503   3.052   1.780  0.0464 -0.2033 -0.7864
   44MOL   H31417600   7.558   2.827   1.705  0.0683  0.2311 -0.1469
   44MOL   H31517601   7.560   2.636   1.523 -1.0746 -2.0886 -1.6226
   44MOL   H31617602   7.480   2.494   1.570 -0.9533  0.2260  0.1006
   44MOL   H31717603   7.522   2.617   1.699  0.3541  1.7706  0.1045
   44MOL   H31817604   7.151   2.798   1.559 -0.2856  0.5046  0.0566
   44MOL   H31917605   7.102   3.023   1.640 -0.0955 -0.0795 -2.3213
   44MOL   H32017606   7.256   3.315   1.946 -0.7598 -0.0934 -1.4062
   44MOL   H32117607   7.353   3.165   1.957 -0.4763 -1.3106 -0.4405
   44MOL   C32217608   7.135   3.143   1.977 -0.3787 -0.0263 -0.2024
   44MOL   C32317609   7.008   3.214   1.914 -0.4727  0.1363 -0.4479
   44MOL   C32417610   6.981   3.349   1.949  0.3129 -0.3405 -0.4676
   44MOL   C32517611   6.875   3.412   1.887 -0.5545  0.3106  0.1219
   44MOL   C32617612   6.791   3.348   1.795 -0.5499  0.2818  0.0452
   44MOL   O32717613   6.679   3.407   1.744  0.5793 -0.4916 -0.5083
   44MOL   C32817614   6.649   3.538   1.783  0.3258  0.2279  0.5974
   44MOL   C32917615   6.823   3.216   1.760  0.1235  0.2891  0.0810
   44MOL   C33017616   6.929   3.149   1.821 -0.1247 -0.1711 -0.2165
   44MOL   C33117617   7.131   3.146   2.135  0.4944 -0.4397  0.3052
   44MOL   H33217618   7.126   3.040   1.942  1.1201  0.6815 -2.8465
   44MOL   H33317619   7.035   3.415   2.016 -0.4925 -0.5536  0.4110
   44MOL   H33417620   6.854   3.513   1.922 -3.5392 -0.5427  0.9672
   44MOL   H33517621   6.715   3.624   1.769  0.6489 -0.1743 -0.4347
   44MOL   H33617622   6.640   3.547   1.891 -0.5566  2.2538  0.3674
   44MOL   H33717623   6.554   3.575   1.746  0.2836  0.1378  0.6161
   44MOL   H33817624   6.750   3.163   1.701 -1.1964  1.0227  1.0198
   44MOL   H33917625   6.946   3.048   1.785  1.2848 -0.0536  0.1051
   44MOL   H34017626   7.116   3.245   2.176 -3.8160 -1.2068  0.7599
   44MOL   H34117627   7.038   3.099   2.167 -1.9934  2.2208 -2.6792
   44MOL   C34217628   7.251   3.079   2.211  0.3886  0.0893  0.1134
   44MOL   C34317629   7.277   2.940   2.159 -0.2154  0.0670 -0.8447
   44MOL   C34417630   7.183   2.831   2.174  0.2750 -0.2901 -0.4529
   44MOL   C34517631   7.211   2.701   2.119 -0.1231  0.3595 -0.1763
   44MOL   C34617632   7.330   2.676   2.059 -0.6948  0.9773 -0.2628
   44MOL   O34717633   7.386   2.555   2.021  0.1665 -0.5525 -0.1431
   44MOL   C34817634   7.298   2.444   2.018  0.3756 -0.2179  0.1418
   44MOL   C34917635   7.415   2.787   2.037  0.3149 -0.2120 -0.1972
   44MOL   C35017636   7.396   2.914   2.077  0.1793  0.5901 -0.6163
   44MOL   C35117637   7.230   3.063   2.363  0.8166 -0.2332  0.1639
   44MOL   H35217638   7.337   3.143   2.196  1.3959 -1.3755 -0.4237
   44MOL   H35317639   7.086   2.838   2.221  0.7499  2.5620  0.1741
   44MOL   H35417640   7.147   2.619   2.151  1.4870 -0.6246  0.6025
   44MOL   H35517641   7.333   2.349   1.979 -0.8190  0.5561 -2.9521
   44MOL   H35617642   7.252   2.430   2.116 -0.7940 -1.5153 -0.5789
   44MOL   H35717643   7.211   2.464   1.955  1.2084 -1.0573 -1.2837
   44MOL   H35817644   7.509   2.765   1.989  0.9448  0.7711  0.5708
   44MOL   H35917645   7.465   2.995   2.057 -0.5225  0.9802 -1.5523
   44MOL   H36017646   7.124   3.082   2.382  1.2204  0.0511  2.2620
   44MOL   H36117647   7.249   2.960   2.391  0.3636 -0.7149 -1.2724
   44MOL   C36217648   7.307   3.152   2.460  0.0765  0.3337 -1.0541
   44MOL   C36317649   7.250   3.293   2.455  0.3614  0.5872  0.6943
   44MOL   C36417650   7.325   3.405   2.416  0.1494  0.3497  1.2997
   44MOL   C36517651   7.278   3.532   2.443 -0.6313 -1.0262  0.4159
   44MOL   C36617652   7.145   3.553   2.490 -0.1277 -0.2757  0.0697
   44MOL   O36717653   7.081   3.677   2.503  0.7532  0.6703  0.1684
   44MOL   C36817654   7.165   3.789   2.479 -0.1547 -0.1086  0.1319
   44MOL   C36917655   7.072   3.443   2.532  0.5712 -0.3690  0.2120
   44MOL   C37017656   7.123   3.314   2.509  0.4564  0.6300 -0.3597
   44MOL   C37117657   7.461   3.131   2.439 -0.2354 -1.0406  0.5999
   44MOL   H37217658   7.291   3.122   2.563 -0.5094  0.6387 -1.0499
   44MOL   H37317659   7.422   3.402   2.367 -0.0417 -0.8318  0.9652
   44MOL   H37417660   7.342   3.612   2.406 -2.6489 -0.3879 -1.8092
   44MOL   H37517661   7.108   3.879   2.504  0.2660 -0.3623  2.0117
   44MOL   H37617662   7.249   3.791   2.548  0.3268  1.8739 -0.4792
   44MOL   H37717663   7.206   3.794   2.378 -0.3861  1.3208  0.0915
   44MOL   H37817664   6.978   3.451   2.586 -0.0251 -3.2078 -0.3500
   44MOL   H37917665   7.068   3.229   2.547  1.9846  0.9611  2.7668
   44MOL   H38017666   7.476   3.024   2.422 -1.1068 -1.2951  1.3948
   44MOL   H38117667   7.485   3.179   2.345 -0.0626 -1.4699  0.4222
   44MOL   C38217668   7.546   3.179   2.562  0.2584 -0.0161 -0.0240
   44MOL   C38317669   7.606   3.323   2.566  0.7208  0.3606  0.7612
   44MOL   C38417670   7.704   3.371   2.474 -0.3926  0.2340  0.1386
   44MOL   C38517671   7.764   3.497   2.484  0.0290 -0.2497  0.8598
   44MOL   C38617672   7.729   3.584   2.584 -0.5171  0.5617 -0.0118
   44MOL   O38717673   7.783   3.706   2.585 -0.0514 -0.2776  0.4649
   44MOL   C38817674   7.706   3.820   2.626 -0.1148 -0.7561  1.2729
   44MOL   C38917675   7.633   3.545   2.679  0.4079  0.8015  0.2262
   44MOL   C39017676   7.575   3.413   2.674  0.1125 -0.2833  0.4446
   44MOL   C39117677   7.663   3.085   2.580 -0.0946 -0.1816  0.5920
   44MOL   H39217678   7.478   3.175   2.646 -0.0149 -0.0312 -0.2458
   44MOL   H39317679   7.743   3.314   2.391 -0.3762  0.1163  0.2263
   44MOL   H39417680   7.825   3.530   2.402  0.1806 -0.9072  0.7069
   44MOL   H39517681   7.600   3.820   2.600  0.4237  1.0795 -1.1052
   44MOL   H39617682   7.757   3.910   2.591 -0.9210 -1.0913 -0.8303
   44MOL   H39717683   7.706   3.820   2.735  3.2977 -2.9328  1.3269
   44MOL   H39817684   7.595   3.595   2.767 -0.2560 -0.2285  0.5321
   44MOL   H39917685   7.507   3.372   2.747  1.4514  1.2973  2.6264
   44MOL   H40017686   7.729   3.117   2.660  0.0989 -0.0298  0.3719
   44MOL   H40117687   7.720   3.085   2.487  0.8826  0.7865  1.1733
   44MOL   H40217688   7.632   2.982   2.595 -0.0382 -0.4099 -0.7667
   45MOL     C117689   1.636   2.134   3.333 -0.3771  0.1292  0.4019
   45MOL     C217690   1.652   2.005   3.423 -0.4122 -0.4720 -0.4420
   45MOL     C317691   1.714   1.893   3.371  0.5224 -0.5803  0.0136
   45MOL     C417692   1.734   1.778   3.449 -0.2304  0.1998  0.7274
   45MOL     C517693   1.674   1.770   3.578  0.2955  0.2293 -0.5694
   45MOL     O617694   1.687   1.659   3.665 -0.1495 -0.0475 -0.6165
   45MOL     C717695   1.771   1.549   3.622 -0.3878  0.9393 -0.0156
   45MOL     C817696   1.598   1.879   3.623  0.4639 -0.7389  0.9149
   45MOL     C917697   1.593   1.996   3.550 -0.2620 -0.0556 -0.3622
   45MOL    C1017698   1.540   2.100   3.213 -0.3957 -0.2591  0.6343
   45MOL    H1117699   1.737   2.163   3.304 -0.2288  0.3425  1.1258
   45MOL    H1217700   1.754   1.911   3.272  2.0044  3.0138  1.1827
   45MOL    H1317701   1.782   1.691   3.406 -0.0206  1.0468 -0.8119
   45MOL    H1417702   1.720   1.506   3.535 -0.3938  1.5095 -0.3003
   45MOL    H1517703   1.860   1.592   3.577  0.1034  0.0653  0.1141
   45MOL    H1617704   1.796   1.481   3.703 -1.5096 -0.7579 -1.0516
   45MOL    H1717705   1.571   1.864   3.727 -0.4461  1.6467  1.0450
   45MOL    H1817706   1.550   2.082   3.598 -1.2764 -0.2256 -0.9482
   45MOL    H1917707   1.595   2.017   3.168 -2.4551 -0.8029 -0.9703
   45MOL    H2017708   1.446   2.063   3.253 -1.2958  0.4915 -0.7277
   45MOL    H2117709   1.587   2.204   3.400  0.2837  0.6516  0.3399
   45MOL    C2217710   1.520   2.213   3.110  0.1990 -0.2094  0.1439
   45MOL    C2317711   1.655   2.268   3.071  0.0224 -0.3456 -0.4777
   45MOL    C2417712   1.731   2.206   2.969 -0.4001  0.0598 -0.3192
   45MOL    C2517713   1.862   2.251   2.943  0.3038  0.1436  0.3497
   45MOL    C2617714   1.921   2.363   3.003 -0.2803  0.2339  0.9875
   45MOL    O2717715   2.053   2.400   2.979 -0.0927 -0.8095 -0.0437
   45MOL    C2817716   2.134   2.291   2.922  0.1590  0.1655 -0.1340
   45MOL    C2917717   1.839   2.425   3.098  0.2390  0.1953  0.9582
   45MOL    C3017718   1.710   2.383   3.135  0.2784  0.2346 -0.3510
   45MOL    C3117719   1.443   2.154   2.989  0.3733 -0.7282  0.3509
   45MOL    H3217720   1.457   2.294   3.147 -1.0611 -1.2404  0.3283
   45MOL    H3317721   1.699   2.110   2.930 -0.5749 -0.3301  0.7759
   45MOL    H3417722   1.914   2.192   2.870 -0.8336 -2.1441  1.3464
   45MOL    H3517723   2.120   2.207   2.990 -1.0738 -1.3304 -2.1921
   45MOL    H3617724   2.240   2.313   2.928  0.3187 -0.1654 -1.7201
   45MOL    H3717725   2.110   2.268   2.818  0.1220  0.6229 -0.2275
   45MOL    H3817726   1.881   2.513   3.145  1.5632  1.2236 -2.0049
   45MOL    H3917727   1.654   2.434   3.211  1.2257  0.9922 -0.1529
   45MOL    H4017728   1.487   2.060   2.956 -0.6082 -1.2205  0.4264
   45MOL    H4117729   1.340   2.131   3.017 -0.0611  0.5457 -0.1906
   45MOL    C4217730   1.425   2.245   2.862 -0.5162 -0.5543 -0.1397
   45MOL    C4317731   1.379   2.385   2.898 -0.1978  0.1048 -0.3827
   45MOL    C4417732   1.453   2.498   2.866  0.3524  0.2650  0.0691
   45MOL    C4517733   1.405   2.624   2.903 -0.0824 -1.0481  0.4639
   45MOL    C4617734   1.277   2.642   2.954 -0.4319  0.8352 -0.5020
   45MOL    O4717735   1.226   2.766   2.973  0.2982 -0.5517  0.1204
   45MOL    C4817736   1.316   2.876   2.985  0.3313  0.4175  0.0813
   45MOL    C4917737   1.195   2.531   2.981  0.0435  0.5062  0.7014
   45MOL    C5017738   1.244   2.402   2.949 -0.0670  0.2655  0.3364
   45MOL    C5117739   1.340   2.174   2.761  0.9751  0.7616  0.1182
   45MOL    H5217740   1.524   2.260   2.817 -0.3398  1.4519  0.8548
   45MOL    H5317741   1.553   2.485   2.827  0.4062  0.0751  0.2681
   45MOL    H5417742   1.460   2.713   2.874 -1.8208 -0.2052 -0.3198
   45MOL    H5517743   1.258   2.963   3.014  0.3792  0.4662  0.0306
   45MOL    H5617744   1.403   2.852   3.048  0.8413  1.6015 -0.1558
   45MOL    H5717745   1.359   2.891   2.886  1.1648 -2.3503 -0.0334
   45MOL    H5817746   1.099   2.549   3.026 -0.5624  0.9009 -0.7160
   45MOL    H5917747   1.192   2.311   2.971  1.6770 -0.5361  1.2833
   45MOL    H6017748   1.288   2.246   2.698 -0.8479 -0.1505  0.5272
   45MOL    H6117749   1.266   2.120   2.821  0.2364 -0.3716 -1.7574
   45MOL    C6217750   1.413   2.069   2.681  0.2756 -0.0653  0.3104
   45MOL    C6317751   1.523   2.131   2.596 -0.2459 -0.3800 -0.5191
   45MOL    C6417752   1.656   2.071   2.596 -0.0903 -0.0045 -0.7661
   45MOL    C6517753   1.742   2.124   2.499 -0.1685 -0.1443  0.4072
   45MOL    C6617754   1.699   2.221   2.403 -0.8485  0.1689 -0.2439
   45MOL    O6717755   1.798   2.248   2.314  0.0201  0.4825  1.0455
   45MOL    C6817756   1.758   2.340   2.215 -0.1732 -0.6930  0.3282
   45MOL    C6917757   1.569   2.277   2.406  0.7935  0.2657 -0.1026
   45MOL    C7017758   1.484   2.235   2.511  0.7167 -0.5963 -0.4521
   45MOL    C7117759   1.307   1.993   2.590  0.0492  0.6623  0.2689
   45MOL    H7217760   1.455   1.996   2.750  2.7311  1.4672  0.4979
   45MOL    H7317761   1.682   1.999   2.672 -0.1270 -0.1239 -0.8681
   45MOL    H7417762   1.835   2.072   2.483  0.1972  0.4720  0.5020
   45MOL    H7517763   1.687   2.308   2.140  0.4091  0.7609 -0.8642
   45MOL    H7617764   1.847   2.353   2.153 -1.5861 -0.9992 -1.7973
   45MOL    H7717765   1.742   2.435   2.266 -3.8111  0.4782 -2.7733
   45MOL    H7817766   1.525   2.347   2.337  0.3415  1.7530  1.6428
   45MOL    H7917767   1.382   2.268   2.513  1.1000  0.5512  1.2268
   45MOL    H8017768   1.242   2.068   2.546  0.8363  2.0127  1.3998
   45MOL    H8117769   1.364   1.949   2.508 -0.6970  1.4608 -0.6904
   45MOL    C8217770   1.222   1.876   2.653  0.3419 -0.1448  0.5947
   45MOL    C8317771   1.103   1.846   2.561 -0.2382  0.0326  0.4139
   45MOL    C8417772   0.972   1.852   2.613  0.0191  0.0736  0.2506
   45MOL    C8517773   0.864   1.825   2.535  0.1340 -0.5525  0.6087
   45MOL    C8617774   0.878   1.800   2.401  0.0893 -0.7138  0.0093
   45MOL    O8717775   0.763   1.778   2.331 -0.1004 -0.0574  0.5046
   45MOL    C8817776   0.774   1.742   2.194  0.1204  0.1735  0.8109
   45MOL    C8917777   1.007   1.802   2.339 -0.2064  0.0273 -0.2090
   45MOL    C9017778   1.123   1.802   2.429  0.1690 -0.0776  0.2405
   45MOL    C9117779   1.305   1.748   2.673 -0.2917  0.3730  0.6879
   45MOL    H9217780   1.190   1.914   2.750 -0.4823  2.7240 -0.7591
   45MOL    H9317781   0.951   1.873   2.717  1.8994  1.8099  0.3232
   45MOL    H9417782   0.767   1.812   2.582  0.5354  0.0073  1.6204
   45MOL    H9517783   0.853   1.671   2.168  0.2229  0.4873  0.2483
   45MOL    H9617784   0.776   1.830   2.130  0.3170  1.4017  2.4944
   45MOL    H9717785   0.684   1.688   2.162  0.3497  1.0335 -1.4228
   45MOL    H9817786   1.023   1.790   2.232  0.6703 -0.4529 -0.0291
   45MOL    H9917787   1.227   1.794   2.399  0.8970  1.6028  2.1350
   45MOL   H10017788   1.370   1.729   2.588  1.4662 -1.1757  2.3018
   45MOL   H10117789   1.375   1.776   2.752  0.5761 -0.7683  0.3408
   45MOL   C10217790   1.230   1.614   2.713  1.1150  0.8055  0.0360
   45MOL   C10317791   1.314   1.486   2.703 -0.2689  0.3718 -0.4521
   45MOL   C10417792   1.292   1.379   2.615  0.3939 -0.1809 -0.0395
   45MOL   C10517793   1.377   1.272   2.611  0.5854 -0.4004  0.1328
   45MOL   C10617794   1.485   1.259   2.702  0.5715  0.1375 -0.5398
   45MOL   O10717795   1.561   1.145   2.725 -0.0258  0.1842  0.0321
   45MOL   C10817796   1.524   1.029   2.644  0.2253 -0.8033 -1.0927
   45MOL   C10917797   1.510   1.369   2.793 -0.0261 -0.0075  0.2369
   45MOL   C11017798   1.425   1.474   2.796 -0.1777  0.0231  0.2912
   45MOL   C11117799   1.161   1.622   2.859  0.2302 -0.0509 -0.6909
   45MOL   H11217800   1.153   1.601   2.637  2.5602  1.7241 -1.6116
   45MOL   H11317801   1.195   1.375   2.568  0.5344  2.2130 -0.5879
   45MOL   H11417802   1.348   1.194   2.543  1.1040 -1.0456  0.6446
   45MOL   H11517803   1.575   0.937   2.673  0.6152 -0.5474 -0.9619
   45MOL   H11617804   1.419   1.008   2.666  0.1007  1.5283  0.7751
   45MOL   H11717805   1.543   1.053   2.540  0.9511 -0.1900 -0.8241
   45MOL   H11817806   1.587   1.345   2.864  0.0320 -4.2925 -1.1422
   45MOL   H11917807   1.445   1.550   2.870 -1.2517 -0.3775  1.0082
   45MOL   H12017808   1.224   1.586   2.941  0.0768 -0.1643 -0.6211
   45MOL   H12117809   1.148   1.730   2.864 -0.6847 -0.2201  1.6339
   45MOL   C12217810   1.015   1.559   2.867 -0.5006 -0.8328  0.0417
   45MOL   C12317811   0.921   1.640   2.958  0.4809  0.2902 -0.6978
   45MOL   C12417812   0.967   1.677   3.088  0.2591 -0.1624 -0.2692
   45MOL   C12517813   0.879   1.747   3.178 -1.0016  0.1807 -0.5783
   45MOL   C12617814   0.757   1.799   3.131  0.3156 -0.1507  0.2261
   45MOL   O12717815   0.675   1.871   3.222  0.0723  0.3184  0.6129
   45MOL   C12817816   0.586   1.964   3.167  1.2066  0.0780 -1.0426
   45MOL   C12917817   0.712   1.759   3.004 -0.5833  0.1119  0.1461
   45MOL   C13017818   0.792   1.675   2.922 -0.2332  0.0816 -0.0449
   45MOL   C13117819   1.014   1.410   2.910  0.4791  0.0287 -0.3016
   45MOL   H13217820   0.965   1.561   2.770 -0.5404  0.4825  0.0820
   45MOL   H13317821   1.064   1.654   3.129 -0.0439  1.1598  1.2523
   45MOL   H13417822   0.920   1.769   3.275  1.9355  0.1976 -1.7441
   45MOL   H13517823   0.501   1.988   3.231  1.3795  1.2897 -1.2656
   45MOL   H13617824   0.628   2.064   3.159 -1.0813  0.9966 -2.1238
   45MOL   H13717825   0.531   1.935   3.078 -2.0294 -0.7471  1.0988
   45MOL   H13817826   0.614   1.782   2.964 -0.8227 -1.7312 -0.3343
   45MOL   H13917827   0.751   1.645   2.827  1.0013 -2.6762  0.2201
   45MOL   H14017828   1.050   1.415   3.012  0.4899 -0.1537 -0.2957
   45MOL   H14117829   1.099   1.359   2.865  0.2195 -1.0918  0.4627
   45MOL   C14217830   0.878   1.337   2.897  0.7434 -0.1648  0.0267
   45MOL   C14317831   0.863   1.312   2.745  0.7652 -0.4711  0.0798
   45MOL   C14417832   0.757   1.383   2.681  1.5126  0.5514 -0.3555
   45MOL   C14517833   0.742   1.365   2.542 -0.2660  0.0693  0.1280
   45MOL   C14617834   0.842   1.300   2.463 -0.8383  0.3300 -0.7379
   45MOL   O14717835   0.833   1.297   2.325 -0.0598  0.2219 -0.1146
   45MOL   C14817836   0.736   1.376   2.265 -0.6409  0.2866  0.1586
   45MOL   C14917837   0.949   1.240   2.532  0.5624 -0.1370 -0.2141
   45MOL   C15017838   0.960   1.245   2.667  1.3551  0.0034 -0.3924
   45MOL   C15117839   0.861   1.212   2.993 -0.0426 -0.2047  0.5981
   45MOL   H15217840   0.798   1.406   2.924  0.6557 -0.8238  1.5085
   45MOL   H15317841   0.688   1.437   2.745 -0.7393 -1.3261 -1.1337
   45MOL   H15417842   0.654   1.403   2.491 -0.5598 -1.5456 -0.6050
   45MOL   H15517843   0.761   1.390   2.160  1.2650  1.8799  0.8048
   45MOL   H15617844   0.640   1.325   2.277 -0.8145  0.7433  0.7264
   45MOL   H15717845   0.731   1.476   2.307 -0.2268 -0.3665  1.8065
   45MOL   H15817846   1.025   1.183   2.481  0.3814 -1.4230  0.9277
   45MOL   H15917847   1.033   1.192   2.726  3.2862 -0.0854 -2.7913
   45MOL   H16017848   0.944   1.142   2.982  0.3064  0.2474  0.3242
   45MOL   H16117849   0.767   1.165   2.967 -2.4830  4.8864 -0.4793
   45MOL   C16217850   0.850   1.243   3.145  0.5127 -0.5695  0.4774
   45MOL   C16317851   0.942   1.150   3.225  0.1511  0.4862 -0.3424
   45MOL   C16417852   1.019   1.203   3.328 -0.4880 -1.0648  0.5274
   45MOL   C16517853   1.093   1.122   3.416 -0.3191  0.5121  0.3462
   45MOL   C16617854   1.079   0.983   3.409  0.4462 -0.6973 -0.1342
   45MOL   O16717855   1.147   0.897   3.489  0.2683  0.4145  0.1475
   45MOL   C16817856   1.123   0.924   3.620  0.0491 -0.3891  0.2615
   45MOL   C16917857   1.005   0.926   3.310 -0.0844  0.2731  0.0043
   45MOL   C17017858   0.942   1.013   3.216  0.5224 -0.3880 -0.0583
   45MOL   C17117859   0.702   1.232   3.194 -0.6665  0.2064 -0.0970
   45MOL   H17217860   0.877   1.345   3.170 -0.7144 -0.2671  0.6221
   45MOL   H17317861   1.022   1.310   3.341 -2.3020 -1.0536  0.9549
   45MOL   H17417862   1.161   1.164   3.488 -0.2697  2.3307 -0.7103
   45MOL   H17517863   1.016   0.923   3.640 -0.1827 -1.5810 -0.9766
   45MOL   H17617864   1.167   1.018   3.654 -1.9576 -0.2813  2.7125
   45MOL   H17717865   1.163   0.843   3.681 -0.5946  0.1604  1.4302
   45MOL   H17817866   1.001   0.818   3.307 -1.6401  0.2631  1.9669
   45MOL   H17917867   0.899   0.953   3.137  1.8802 -0.8920 -0.4331
   45MOL   H18017868   0.672   1.129   3.174 -4.0684  1.2685 -0.9103
   45MOL   H18117869   0.640   1.292   3.127 -1.8211 -0.5177  0.3186
   45MOL   C18217870   0.673   1.277   3.341  0.5802  0.3468 -0.5782
   45MOL   C18317871   0.595   1.163   3.418 -0.2020 -0.3056  0.3635
   45MOL   C18417872   0.463   1.113   3.382 -0.1492 -0.5760 -0.0062
   45MOL   C18517873   0.393   1.025   3.463  0.0823  0.4617  0.2388
   45MOL   C18617874   0.458   0.950   3.561 -0.6471  0.3373  0.2482
   45MOL   O18717875   0.391   0.848   3.616  0.0503  0.0952 -0.4297
   45MOL   C18817876   0.423   0.799   3.741 -0.6813 -0.0478  0.2029
   45MOL   C18917877   0.592   0.992   3.585  0.4761  0.2802 -0.2684
   45MOL   C19017878   0.655   1.105   3.526  0.0803  0.5943 -0.4316
   45MOL   C19117879   0.602   1.413   3.336  0.2036  0.1593  0.1074
   45MOL   H19217880   0.769   1.290   3.390  0.2755  0.7997 -0.0981
   45MOL   H19317881   0.406   1.147   3.297  0.6020 -1.9115 -1.0716
   45MOL   H19417882   0.296   0.999   3.423 -0.7081  1.0120  1.7778
   45MOL   H19517883   0.396   0.871   3.818 -1.8676  0.6318 -0.8513
   45MOL   H19617884   0.532   0.799   3.739 -0.6948  1.0297 -0.7979
   45MOL   H19717885   0.373   0.704   3.761 -0.6072 -0.1599 -0.1424
   45MOL   H19817886   0.657   0.947   3.659  0.3149  0.6893  0.1190
   45MOL   H19917887   0.759   1.127   3.547 -0.3716  2.9994 -0.5524
   45MOL   H20017888   0.654   1.478   3.266  1.0262 -2.1567 -1.4961
   45MOL   H20117889   0.500   1.404   3.300  0.3411 -3.5433  0.3976
   45MOL   C20217890   0.603   1.479   3.475  0.1075 -0.1244 -0.2446
   45MOL   C20317891   0.474   1.565   3.508 -0.2976  0.3381  0.2513
   45MOL   C20417892   0.414   1.576   3.632  0.6845 -0.9037  0.3686
   45MOL   C20517893   0.311   1.666   3.657  0.2367 -0.3597 -0.3994
   45MOL   C20617894   0.259   1.749   3.561  0.5483  0.5543 -0.0410
   45MOL   O20717895   0.154   1.834   3.595 -0.4154 -0.1612  0.4512
   45MOL   C20817896   0.098   1.919   3.496 -0.2504  0.6007  0.8612
   45MOL   C20917897   0.312   1.731   3.426  0.2034 -0.0868 -0.6000
   45MOL   C21017898   0.425   1.646   3.403 -0.3090 -0.6253  0.1328
   45MOL   C21117899   0.728   1.575   3.483 -0.1803 -0.2137 -0.4268
   45MOL   H21217900   0.594   1.404   3.553  1.0720  1.0771  1.0426
   45MOL   H21317901   0.433   1.503   3.709  2.8830  0.1404  0.8464
   45MOL   H21417902   0.257   1.672   3.751  0.4544  0.4831 -0.3239
   45MOL   H21517903   0.007   1.973   3.524 -2.8834 -2.5639 -1.1664
   45MOL   H21617904   0.175   1.991   3.467 -0.3233 -0.4122 -2.0832
   45MOL   H21717905   0.064   1.865   3.407 -1.3010  1.7157  0.5813
   45MOL   H21817906   0.265   1.782   3.343  2.1806  1.2482 -0.9348
   45MOL   H21917907   0.458   1.640   3.300 -0.9111 -0.3368 -0.0791
   45MOL   H22017908   0.718   1.670   3.430  1.4174  1.8089  2.7353
   45MOL   H22117909   0.811   1.519   3.439 -0.2955  0.3235 -1.3423
   45MOL   C22217910   0.766   1.614   3.628  0.1210  1.0079 -0.1662
   45MOL   C22317911   0.775   1.487   3.719  0.6043  0.2148 -0.2502
   45MOL   C22417912   0.852   1.376   3.678  1.1010  0.9948 -0.1232
   45MOL   C22517913   0.854   1.254   3.761  0.1219 -0.4349 -0.0888
   45MOL   C22617914   0.768   1.237   3.873 -0.2999  0.0145 -0.1654
   45MOL   O22717915   0.753   1.118   3.945 -0.6775 -0.0694  0.1003
   45MOL   C22817916   0.855   1.024   3.936 -0.5421  0.0208  0.1431
   45MOL   C22917917   0.689   1.350   3.903  0.4681  0.1756  0.8216
   45MOL   C23017918   0.704   1.477   3.838  0.5742  0.6129  0.0067
   45MOL   C23117919   0.895   1.701   3.627  0.0359  0.7896 -0.0453
   45MOL   H23217920   0.688   1.678   3.668 -1.1375  0.1039 -1.1089
   45MOL   H23317921   0.903   1.383   3.583  0.2765  0.4252 -0.6268
   45MOL   H23417922   0.921   1.176   3.726  0.0470 -1.6773  2.3855
   45MOL   H23517923   0.845   0.955   4.021 -0.3050  1.2415  1.1814
   45MOL   H23617924   0.836   0.962   3.849 -0.9515 -0.5644  0.6367
   45MOL   H23717925   0.957   1.062   3.937  0.4115 -2.4183 -0.1605
   45MOL   H23817926   0.632   1.336   3.993 -0.3830  1.7061  0.5387
   45MOL   H23917927   0.651   1.566   3.871 -2.0534 -0.3316 -1.5087
   45MOL   H24017928   0.942   1.707   3.725  0.0820  0.5839 -0.0556
   45MOL   H24117929   0.972   1.650   3.569 -0.5488  1.8055 -1.7498
   45MOL   C24217930   0.878   1.843   3.569  0.2783  0.1912  0.2889
   45MOL   C24317931   0.766   1.918   3.635 -0.4800  0.1317  0.3840
   45MOL   C24417932   0.777   1.946   3.768  0.0525 -0.8220 -0.4862
   45MOL   C24517933   0.674   2.006   3.841  0.1026 -0.0445 -0.3941
   45MOL   C24617934   0.547   2.018   3.781 -0.6421 -0.1718  0.5979
   45MOL   O24717935   0.443   2.064   3.856  0.4062  0.1582 -0.0118
   45MOL   C24817936   0.308   2.019   3.822  0.5707 -0.8219 -0.3054
   45MOL   C24917937   0.534   1.993   3.643  0.0484  0.4325  0.3294
   45MOL   C25017938   0.645   1.950   3.569  1.0189  0.2065  0.3541
   45MOL   C25117939   1.005   1.922   3.553  0.0544 -0.2716  0.8354
   45MOL   H25217940   0.851   1.832   3.464  1.6812  0.6077 -0.1212
   45MOL   H25317941   0.867   1.920   3.822 -0.8266 -0.5652  1.1327
   45MOL   H25417942   0.694   2.027   3.945  0.6341  0.3349 -0.5671
   45MOL   H25517943   0.241   2.073   3.888  1.0962  1.0997 -1.3056
   45MOL   H25617944   0.269   2.054   3.726 -1.2285  0.2233  0.7814
   45MOL   H25717945   0.294   1.911   3.833  0.2203 -1.0795 -2.8244
   45MOL   H25817946   0.436   2.003   3.599  0.7499  1.2745 -1.0854
   45MOL   H25917947   0.632   1.947   3.462  1.6413  1.3897  0.2399
   45MOL   H26017948   1.086   1.865   3.508  0.6477 -0.5778  2.2501
   45MOL   H26117949   1.057   1.941   3.647 -0.0530  0.3143  0.7769
   45MOL   C26217950   0.996   2.057   3.481  0.2924 -0.1313  0.0822
   45MOL   C26317951   1.008   2.049   3.330 -0.0421 -0.0650  0.1883
   45MOL   C26417952   0.902   2.103   3.255  0.0204 -0.4576 -0.0733
   45MOL   C26517953   0.907   2.120   3.112 -0.5517 -0.0712 -0.1230
   45MOL   C26617954   1.020   2.064   3.046  0.1000  0.3357  0.7324
   45MOL   O26717955   1.047   2.080   2.908  0.1009 -0.1774  0.2558
   45MOL   C26817956   0.947   2.135   2.821  0.2539  0.5146 -0.0832
   45MOL   C26917957   1.125   2.007   3.119 -0.0095  0.6753  0.0652
   45MOL   C27017958   1.123   2.009   3.257  1.1489 -1.1056 -0.3893
   45MOL   C27117959   1.094   2.165   3.545  0.2946 -0.4598 -0.3924
   45MOL   H27217960   0.895   2.095   3.497  0.6234 -0.4162  3.0801
   45MOL   H27317961   0.819   2.148   3.306  0.9135 -2.1724  3.0201
   45MOL   H27417962   0.839   2.184   3.058 -1.9336 -1.8355 -0.5350
   45MOL   H27517963   0.929   2.240   2.840 -0.0087  0.4640 -0.0586
   45MOL   H27617964   0.851   2.084   2.820  0.6439 -0.2349 -0.6569
   45MOL   H27717965   0.990   2.136   2.721 -0.8060  2.2579 -0.5373
   45MOL   H27817966   1.216   1.976   3.071 -0.0444  0.2462  0.2732
   45MOL   H27917967   1.207   1.975   3.317  1.4517 -1.6549 -1.1203
   45MOL   H28017968   1.091   2.177   3.653 -1.4322  1.4286 -0.6147
   45MOL   H28117969   1.194   2.138   3.510  0.3943  0.3644 -0.7584
   45MOL   C28217970   1.073   2.305   3.485 -0.1300 -0.0720  0.4011
   45MOL   C28317971   1.208   2.375   3.461 -0.0702  0.3360 -0.3683
   45MOL   C28417972   1.305   2.394   3.566 -0.5921  0.3361  0.3634
   45MOL   C28517973   1.423   2.469   3.547 -0.2199 -0.7516  0.3646
   45MOL   C28617974   1.455   2.523   3.419  0.9001  0.2264 -0.5589
   45MOL   O28717975   1.568   2.601   3.401  0.1285 -0.1549  0.1598
   45MOL   C28817976   1.547   2.730   3.345  0.0397  0.4072 -0.2211
   45MOL   C28917977   1.356   2.496   3.317 -0.3281 -0.1970 -0.0738
   45MOL   C29017978   1.236   2.427   3.334  0.5216 -0.2548 -0.5708
   45MOL   C29117979   0.987   2.393   3.573  0.8912 -0.1129 -0.0632
   45MOL   H29217980   1.014   2.303   3.393  1.4501 -0.8563 -0.6288
   45MOL   H29317981   1.279   2.367   3.668 -0.5614 -0.8172  0.0740
   45MOL   H29417982   1.487   2.479   3.634  0.6893 -3.8404  0.1345
   45MOL   H29517983   1.610   2.800   3.400  0.0295  1.1268 -1.1112
   45MOL   H29617984   1.566   2.735   3.238 -1.7329 -0.5287 -0.5986
   45MOL   H29717985   1.450   2.775   3.364  0.4858  1.2108  0.1846
   45MOL   H29817986   1.371   2.544   3.222  1.0988  1.1004  0.7922
   45MOL   H29917987   1.164   2.412   3.255  0.1734 -0.0637 -0.2895
   45MOL   H30017988   0.904   2.335   3.614 -1.9467  2.2398 -2.2659
   45MOL   H30117989   1.043   2.431   3.659 -0.4273 -1.2822  1.3421
   45MOL   C30217990   0.915   2.515   3.511 -0.1639 -0.8515  0.3987
   45MOL   C30317991   0.824   2.478   3.389 -0.2870 -0.5454 -0.3815
   45MOL   C30417992   0.711   2.394   3.409 -0.0087  0.1948  0.5731
   45MOL   C30517993   0.641   2.355   3.296  0.8905  0.8276  0.3248
   45MOL   C30617994   0.676   2.400   3.166 -0.5208 -1.4605  0.2015
   45MOL   O30717995   0.594   2.349   3.070 -0.5447 -0.4122 -0.3440
   45MOL   C30817996   0.615   2.353   2.930  0.4838  0.6605 -0.3227
   45MOL   C30917997   0.782   2.491   3.143 -0.4659 -0.7821 -0.0483
   45MOL   C31017998   0.852   2.529   3.258 -0.2011 -0.1268  0.1299
   45MOL   C31117999   0.842   2.616   3.609 -0.1670 -0.2831 -0.9325
   45MOL   H31218000   0.996   2.564   3.456 -0.4537 -0.7779  0.0285
   45MOL   H31318001   0.706   2.344   3.505 -1.5992 -0.4861  0.1659
   45MOL   H31418002   0.571   2.275   3.313  1.3442  0.8272  2.3200
   45MOL   H31518003   0.672   2.436   2.889  1.1576  0.8362  0.9445
   45MOL   H31618004   0.517   2.349   2.882 -0.0535 -0.0221  0.8195
   45MOL   H31718005   0.641   2.257   2.885 -0.7238  0.4868 -0.6778
   45MOL   H31818006   0.818   2.514   3.044 -0.4006 -2.5354 -0.4393
   45MOL   H31918007   0.943   2.588   3.250 -0.5721  0.4674  0.2776
   45MOL   H32018008   0.863   2.583   3.711  0.8507  1.5133 -0.5380
   45MOL   H32118009   0.736   2.616   3.583 -0.3725  0.0535 -0.1247
   45MOL   C32218010   0.889   2.765   3.611  0.1911 -0.1939  0.0715
   45MOL   C32318011   1.033   2.784   3.665 -0.6212  0.4428 -0.2531
   45MOL   C32418012   1.053   2.820   3.802  0.9562  0.3929 -0.6553
   45MOL   C32518013   1.184   2.846   3.848  0.1192 -0.0483 -1.0167
   45MOL   C32618014   1.293   2.822   3.766  0.0398  0.2470  0.7769
   45MOL   O32718015   1.412   2.813   3.830  0.4986 -0.6413 -0.1372
   45MOL   C32818016   1.535   2.819   3.764 -0.2632 -0.4448 -0.4894
   45MOL   C32918017   1.279   2.781   3.631 -0.7065 -0.3630 -0.4984
   45MOL   C33018018   1.146   2.768   3.586 -0.3818 -0.0226 -0.8793
   45MOL   C33118019   0.770   2.853   3.668  0.9768  0.0783 -0.2800
   45MOL   H33218020   0.900   2.793   3.507  2.6423  1.2587  0.6863
   45MOL   H33318021   0.972   2.828   3.872  0.3906 -1.1645 -1.1132
   45MOL   H33418022   1.201   2.877   3.950  1.6930 -1.1803 -0.9039
   45MOL   H33518023   1.612   2.831   3.841 -2.6493  0.1478  1.9119
   45MOL   H33618024   1.520   2.901   3.693 -1.7368 -1.4980 -1.4135
   45MOL   H33718025   1.567   2.729   3.713  0.6120  0.0081 -0.7615
   45MOL   H33818026   1.365   2.753   3.572  0.3071 -0.8249  1.1598
   45MOL   H33918027   1.140   2.740   3.481  2.0415  3.1402 -1.9623
   45MOL   H34018028   0.680   2.848   3.606  0.2520 -0.6873  0.8140
   45MOL   H34118029   0.740   2.813   3.765 -0.5706  1.9239  0.0238
   45MOL   C34218030   0.798   3.010   3.689 -0.3232 -0.7124 -0.7706
   45MOL   C34318031   0.682   3.066   3.769 -0.7639 -0.4730  0.6197
   45MOL   C34418032   0.553   3.077   3.711 -0.1332 -0.5782 -0.1164
   45MOL   C34518033   0.444   3.123   3.790  0.0709 -0.1026  0.2196
   45MOL   C34618034   0.457   3.163   3.926  0.4339 -0.6485 -0.2875
   45MOL   O34718035   0.357   3.189   4.016  0.1240 -0.3918  0.3609
   45MOL   C34818036   0.231   3.136   3.984  0.1223 -0.6358  0.0429
   45MOL   C34918037   0.590   3.167   3.976 -0.6932 -0.2503 -0.6823
   45MOL   C35018038   0.698   3.111   3.903 -0.1973 -0.5119 -0.6485
   45MOL   C35118039   0.822   3.088   3.556 -0.1417  0.8068 -0.4583
   45MOL   H35218040   0.886   3.026   3.751  0.1449  1.1740 -1.8801
   45MOL   H35318041   0.542   3.050   3.607  1.7620  1.4770 -0.8839
   45MOL   H35418042   0.351   3.127   3.734  0.3955 -1.4585 -0.4390
   45MOL   H35518043   0.194   3.184   3.893 -0.3126 -2.4767 -0.7810
   45MOL   H35618044   0.233   3.031   3.955 -0.0367 -0.4166 -0.7887
   45MOL   H35718045   0.164   3.145   4.070  0.7391  1.0170  0.3601
   45MOL   H35818046   0.605   3.205   4.076 -1.1429  0.0953 -0.7475
   45MOL   H35918047   0.792   3.083   3.948 -0.4469  0.2825  0.3839
   45MOL   H36018048   0.770   3.040   3.473 -0.5704 -0.3800  0.4793
   45MOL   H36118049   0.777   3.187   3.566 -0.5804  0.4337  1.4417
   45MOL   C36218050   0.970   3.110   3.514 -0.0994 -0.1349 -0.6258
   45MOL   C36318051   1.046   3.199   3.608 -0.1408  0.5210 -0.0400
   45MOL   C36418052   1.013   3.329   3.640  0.1399 -0.4511 -0.1322
   45MOL   C36518053   1.091   3.414   3.718  0.1194 -0.2001  0.3968
   45MOL   C36618054   1.216   3.373   3.762  0.7041  0.3568  0.6065
   45MOL   O36718055   1.303   3.463   3.820 -0.1827  0.2835 -0.2885
   45MOL   C36818056   1.432   3.415   3.849 -0.5530 -0.3234  0.1233
   45MOL   C36918057   1.253   3.235   3.741  0.1825 -0.0003 -0.3303
   45MOL   C37018058   1.170   3.151   3.665  0.2171  0.3919  0.1090
   45MOL   C37118059   0.981   3.159   3.365 -0.4568 -0.5934 -0.0383
   45MOL   H37218060   1.010   3.009   3.514 -1.3831 -0.6415 -0.3963
   45MOL   H37318061   0.920   3.365   3.597 -0.3560 -0.6726  0.7428
   45MOL   H37418062   1.063   3.514   3.748 -0.4160 -0.1039 -0.4079
   45MOL   H37518063   1.487   3.502   3.886 -1.5505 -0.0150  0.9056
   45MOL   H37618064   1.446   3.338   3.924  0.2906 -0.4470 -0.1581
   45MOL   H37718065   1.480   3.389   3.755 -0.6755 -3.3410  0.8483
   45MOL   H37818066   1.349   3.202   3.779  0.6149 -0.1605 -1.5474
   45MOL   H37918067   1.199   3.048   3.650  0.3338  0.6596 -1.6290
   45MOL   H38018068   0.908   3.103   3.308  0.1556 -0.3868 -1.0334
   45MOL   H38118069   0.949   3.264   3.364 -1.7743 -0.9230  2.5100
   45MOL   C38218070   1.120   3.132   3.303  0.2673 -0.0819  0.4485
   45MOL   C38318071   1.119   3.181   3.160  0.6645 -0.2438  0.6890
   45MOL   C38418072   1.028   3.136   3.055  0.5721  0.4190 -0.3102
   45MOL   C38518073   1.047   3.176   2.921  0.0972  0.4081 -0.5230
   45MOL   C38618074   1.146   3.267   2.892 -0.2226  0.0484  1.0364
   45MOL   O38718075   1.155   3.322   2.759 -0.4455 -0.3276 -0.1990
   45MOL   C38818076   1.077   3.267   2.661  0.2129 -0.0449 -0.3312
   45MOL   C38918077   1.237   3.314   2.991 -0.8754 -0.5429  0.3654
   45MOL   C39018078   1.222   3.269   3.121 -0.1688  0.3554  0.8488
   45MOL   C39118079   1.167   2.982   3.303  0.5813 -0.3686  0.7013
   45MOL   H39218080   1.199   3.193   3.349  1.0391 -1.7225  1.3409
   45MOL   H39318081   0.956   3.058   3.068 -0.9479  1.9080  0.4209
   45MOL   H39418082   0.971   3.138   2.854 -0.7585 -0.3667  0.8582
   45MOL   H39518083   1.086   3.160   2.650  1.3456 -0.5040  4.0746
   45MOL   H39618084   1.089   3.316   2.564  0.1800  1.2959  0.3175
   45MOL   H39718085   0.972   3.275   2.692  0.5436  0.6074  0.6588
   45MOL   H39818086   1.316   3.384   2.967  0.9879 -1.7150  2.8596
   45MOL   H39918087   1.302   3.299   3.187  1.0445  3.1391 -1.7434
   45MOL   H40018088   1.262   2.963   3.253  1.1269  2.4439  0.6203
   45MOL   H40118089   1.089   2.909   3.279 -0.6526  1.3391 -0.6014
   45MOL   H40218090   1.202   2.954   3.402  0.3403 -0.2396  0.8229
   46MOL     C118091   7.870   4.001   4.821 -0.3132  0.3203  0.1636
   46MOL     C218092   7.998   4.078   4.784 -0.2368  0.3226  0.4435
   46MOL     C318093   0.079   4.051   4.846 -0.1760  0.9134  0.2118
   46MOL     C418094   0.191   4.131   4.823 -0.1077  0.6845 -0.0456
   46MOL     C518095   0.185   4.246   4.738  0.4592 -0.7347  1.0399
   46MOL     O618096   0.292   4.333   4.722  0.2468  0.0689  0.1534
   46MOL     C718097   0.412   4.314   4.809  0.0701 -0.0737  0.9318
   46MOL     C818098   0.059   4.270   4.669  0.3123 -0.2043 -0.0250
   46MOL     C918099   7.997   4.180   4.692  0.1609  0.1788  0.3293
   46MOL    C1018100   7.769   4.092   4.899  0.5375 -0.1248 -0.3543
   46MOL    H1118101   7.901   3.913   4.876  1.5411  1.4866  1.0262
   46MOL    H1218102   0.094   3.974   4.921  1.7222  1.8864  0.8497
   46MOL    H1318103   0.271   4.100   4.889  0.4556  1.2840 -0.4417
   46MOL    H1418104   0.488   4.383   4.773 -0.1170 -0.8170 -0.9452
   46MOL    H1518105   0.393   4.337   4.914 -1.9704 -1.6776  0.9609
   46MOL    H1618106   0.468   4.221   4.799 -0.0922  0.0584 -1.5316
   46MOL    H1718107   0.058   4.352   4.599  0.2602 -1.3846 -1.4468
   46MOL    H1818108   7.912   4.200   4.628 -0.5532 -1.0778  0.8753
   46MOL    H1918109   7.702   4.023   4.951  2.0957 -0.7238  0.9196
   46MOL    H2018110   7.832   4.142   4.972  0.5789 -0.0472 -0.4433
   46MOL    H2118111   7.816   3.968   4.732  2.3054  0.0181 -1.3633
   46MOL    C2218112   7.691   4.194   4.815 -0.4926  0.9817 -0.0398
   46MOL    C2318113   7.560   4.146   4.762  0.4389 -0.7879 -0.1360
   46MOL    C2418114   7.449   4.157   4.842  0.3417  0.2446 -0.3225
   46MOL    C2518115   7.324   4.106   4.795  0.0666 -0.2233  0.0462
   46MOL    C2618116   7.309   4.041   4.669 -0.1708 -0.2139  0.4597
   46MOL    O2718117   7.198   3.979   4.615 -0.5084 -0.3790 -0.0643
   46MOL    C2818118   7.071   4.001   4.680 -0.4332  0.0060 -0.2560
   46MOL    C2918119   7.428   4.021   4.597 -0.0281 -0.0115 -0.1327
   46MOL    C3018120   7.548   4.074   4.643  0.2562 -0.0179  0.2509
   46MOL    C3118121   7.683   4.340   4.874  0.9990 -0.5048  0.4829
   46MOL    H3218122   7.746   4.223   4.725 -0.8011  2.5133  0.2468
   46MOL    H3318123   7.457   4.216   4.933  2.8897 -1.1851  0.4224
   46MOL    H3418124   7.230   4.107   4.850 -1.0827 -2.4147 -1.7925
   46MOL    H3518125   7.005   3.947   4.613 -1.6726 -0.8291  1.5915
   46MOL    H3618126   7.040   4.105   4.691  1.5480  0.8433 -2.2878
   46MOL    H3718127   7.084   3.942   4.771 -0.1414 -1.7699 -1.4387
   46MOL    H3818128   7.433   3.957   4.510 -0.9998 -0.5987  0.2439
   46MOL    H3918129   7.639   4.059   4.587  1.6159  0.8550  2.2027
   46MOL    H4018130   7.624   4.330   4.965  1.1631  2.0439  0.8910
   46MOL    H4118131   7.788   4.366   4.878  0.9074  0.5958 -2.8705
   46MOL    C4218132   7.616   4.446   4.787 -0.3190 -0.1107 -0.0185
   46MOL    C4318133   7.698   4.455   4.657  0.1723  0.2771  0.1704
   46MOL    C4418134   7.646   4.403   4.530  0.3161  0.0218 -0.3051
   46MOL    C4518135   7.716   4.414   4.411  0.8533  0.0322  0.3425
   46MOL    C4618136   7.840   4.482   4.400 -0.8838 -0.3791 -0.2041
   46MOL    O4718137   7.912   4.502   4.284 -0.4363  0.7658 -0.0280
   46MOL    C4818138   7.844   4.485   4.153 -0.3555  0.1509 -0.3643
   46MOL    C4918139   7.895   4.532   4.524  0.2921 -0.1418 -0.8707
   46MOL    C5018140   7.822   4.520   4.647 -0.5816  0.1102 -0.8912
   46MOL    C5118141   7.596   4.583   4.859 -0.7733  0.7334 -0.1284
   46MOL    H5218142   7.513   4.419   4.763 -0.3922 -1.6758  1.8841
   46MOL    H5318143   7.554   4.349   4.545  0.1168  0.6329  0.7891
   46MOL    H5418144   7.674   4.370   4.322 -1.0304  0.6745  0.9020
   46MOL    H5518145   7.748   4.535   4.144 -0.3953  0.5121  1.8988
   46MOL    H5618146   7.910   4.513   4.071 -1.1701  1.2539 -0.6471
   46MOL    H5718147   7.826   4.379   4.135 -0.9985  0.3060 -0.6347
   46MOL    H5818148   7.980   4.597   4.510 -0.4482  0.5963 -1.9987
   46MOL    H5918149   7.858   4.561   4.740 -0.5810 -2.1711  0.1479
   46MOL    H6018150   7.685   4.645   4.860 -0.7314  0.6689  0.0647
   46MOL    H6118151   7.570   4.548   4.959 -1.9081  1.3324 -0.2062
   46MOL    C6218152   7.473   4.665   4.812 -0.4143 -0.4201 -0.6879
   46MOL    C6318153   7.479   4.806   4.877  0.0700 -0.0848  0.6618
   46MOL    C6418154   7.459   4.833   5.014 -0.3271 -0.3398 -0.1903
   46MOL    C6518155   7.488   4.958   5.062 -1.5208 -1.1044 -0.2089
   46MOL    C6618156   7.517   5.065   4.972  0.3668 -0.5577 -0.4041
   46MOL    O6718157   7.531   5.184   5.038  0.6371 -0.0056  0.6473
   46MOL    C6818158   7.501   5.301   4.975 -0.6199 -0.6876 -0.0750
   46MOL    C6918159   7.540   5.041   4.833 -0.4033 -0.4247  0.2128
   46MOL    C7018160   7.518   4.912   4.790  0.7785 -0.6836  0.2154
   46MOL    C7118161   7.340   4.595   4.840  0.1672 -0.3959 -0.1901
   46MOL    H7218162   7.486   4.679   4.704  3.5082  0.4091 -0.1804
   46MOL    H7318163   7.421   4.759   5.083  0.5118 -0.3492  0.2718
   46MOL    H7418164   7.472   4.984   5.166 -4.7826  0.3086 -0.9901
   46MOL    H7518165   7.392   5.300   4.969 -0.6644  1.0268  0.1749
   46MOL    H7618166   7.553   5.324   4.882 -1.2725 -1.7029 -0.6966
   46MOL    H7718167   7.502   5.381   5.049  0.3498 -2.9915  2.4683
   46MOL    H7818168   7.572   5.120   4.766  1.3028 -0.4882  0.9064
   46MOL    H7918169   7.524   4.893   4.684  0.0354 -1.1374  0.2561
   46MOL    H8018170   7.354   4.488   4.851 -1.5731 -0.3576  2.7425
   46MOL    H8118171   7.319   4.626   4.942  0.1589 -0.9520 -0.0268
   46MOL    C8218172   7.233   4.629   4.745  0.5082  0.3011  0.4150
   46MOL    C8318173   7.273   4.598   4.597 -0.1749  0.0280  0.1902
   46MOL    C8418174   7.287   4.710   4.509 -0.8358 -0.4059 -0.0502
   46MOL    C8518175   7.345   4.697   4.383  0.1549 -0.9109  0.4670
   46MOL    C8618176   7.369   4.570   4.334  0.2974  0.2389 -0.2586
   46MOL    O8718177   7.421   4.558   4.209 -0.3116  0.8105 -0.1613
   46MOL    C8818178   7.423   4.431   4.142  0.0659 -0.0578 -0.7236
   46MOL    C8918179   7.339   4.454   4.417  0.2300 -0.5798 -0.1479
   46MOL    C9018180   7.293   4.467   4.548 -0.4228  0.2847 -0.2541
   46MOL    C9118181   7.105   4.554   4.786  0.5797 -0.1731  0.4356
   46MOL    H9218182   7.215   4.735   4.765 -0.5001  0.9438 -3.5179
   46MOL    H9318183   7.261   4.810   4.542  2.8316  0.5744  0.0806
   46MOL    H9418184   7.374   4.783   4.324  3.4641 -2.1479  0.1889
   46MOL    H9518185   7.475   4.350   4.192 -2.2688 -1.8235 -1.0604
   46MOL    H9618186   7.465   4.431   4.042  1.8215  0.4431 -0.0017
   46MOL    H9718187   7.321   4.397   4.121 -0.0729  0.7250 -1.3515
   46MOL    H9818188   7.360   4.353   4.384 -0.9340 -1.2039  0.9757
   46MOL    H9918189   7.293   4.375   4.605  3.6571 -1.1860 -2.4085
   46MOL   H10018190   7.115   4.449   4.759  1.3761 -0.5835  2.2903
   46MOL   H10118191   7.098   4.559   4.894 -0.7791 -4.6834  0.6624
   46MOL   C10218192   6.976   4.606   4.720  0.4849 -0.0173 -0.0280
   46MOL   C10318193   6.876   4.490   4.720  0.4041  0.8857  0.3077
   46MOL   C10418194   6.816   4.444   4.840 -0.3505  0.4330 -0.6575
   46MOL   C10518195   6.718   4.341   4.844 -0.8160  0.0493 -0.5088
   46MOL   C10618196   6.684   4.275   4.723  0.2682  0.2534  0.7861
   46MOL   O10718197   6.592   4.176   4.739 -0.4116  0.1534  0.4871
   46MOL   C10818198   6.601   4.057   4.658 -0.1093  0.3117  0.3990
   46MOL   C10918199   6.739   4.314   4.601  0.3316 -0.3867  0.3885
   46MOL   C11018200   6.832   4.425   4.598  0.4602  0.0541 -0.0054
   46MOL   C11118201   6.912   4.739   4.770  0.2640  0.1218  0.2843
   46MOL   H11218202   7.006   4.621   4.616 -1.5695 -2.0767 -0.9515
   46MOL   H11318203   6.836   4.487   4.937 -1.8040 -1.8618  0.7227
   46MOL   H11418204   6.682   4.294   4.934 -0.9368 -0.2897 -0.7321
   46MOL   H11518205   6.704   4.023   4.652 -1.0862 -2.7247 -0.4982
   46MOL   H11618206   6.541   3.977   4.701 -0.4129  0.7195  0.7394
   46MOL   H11718207   6.573   4.071   4.553  0.6665  1.6983  0.3627
   46MOL   H11818208   6.718   4.268   4.505 -4.2039 -1.2231  1.6572
   46MOL   H11918209   6.856   4.458   4.497 -0.3027  2.4583  0.5552
   46MOL   H12018210   6.893   4.721   4.876  0.7345 -1.6617  0.0819
   46MOL   H12118211   6.987   4.817   4.762 -0.5641  0.8400 -0.7692
   46MOL   C12218212   6.792   4.778   4.692  0.4662  0.3974  0.6451
   46MOL   C12318213   6.836   4.856   4.568  0.0794 -0.6487  0.0234
   46MOL   C12418214   6.822   4.808   4.437  0.9137  0.2636  0.8611
   46MOL   C12518215   6.873   4.884   4.331 -0.4104  0.1356 -0.5586
   46MOL   C12618216   6.944   5.005   4.354  0.0744 -0.1404  0.1489
   46MOL   O12718217   7.016   5.076   4.260 -0.3624  0.1669  0.7994
   46MOL   C12818218   7.067   5.007   4.150 -0.2078  0.8913 -0.8853
   46MOL   C12918219   6.950   5.057   4.483  0.3124 -0.1121 -0.5460
   46MOL   C13018220   6.892   4.985   4.584 -0.0303 -0.4167 -0.3459
   46MOL   C13118221   6.689   4.853   4.773  0.1999  0.6511 -0.1346
   46MOL   H13218222   6.738   4.690   4.659  0.1303 -0.1639  2.6618
   46MOL   H13318223   6.774   4.713   4.415  1.3044  0.6610 -1.9460
   46MOL   H13418224   6.862   4.844   4.232  1.0082  0.6935 -0.9538
   46MOL   H13518225   7.005   5.019   4.061 -0.8429  2.6087 -0.2187
   46MOL   H13618226   7.169   5.041   4.129 -0.2571  0.7574 -1.3330
   46MOL   H13718227   7.081   4.902   4.176 -1.0201  1.3246  1.3836
   46MOL   H13818228   7.004   5.149   4.496  1.5219 -0.8422 -0.3210
   46MOL   H13918229   6.898   5.027   4.684 -1.1179  1.4780 -1.0528
   46MOL   H14018230   6.730   4.949   4.807  1.2511 -0.1795  1.0287
   46MOL   H14118231   6.677   4.802   4.869 -0.9254 -1.1429 -1.2092
   46MOL   C14218232   6.549   4.885   4.719 -0.7183 -0.1782  0.1893
   46MOL   C14318233   6.484   4.762   4.655  0.3740  0.0651 -0.1338
   46MOL   C14418234   6.486   4.749   4.511  0.3838  0.5224  0.0339
   46MOL   C14518235   6.448   4.636   4.449  0.3885 -0.3218  0.8179
   46MOL   C14618236   6.401   4.528   4.523  0.0723 -0.1063 -0.0995
   46MOL   O14718237   6.352   4.423   4.450  0.1274  0.4435 -0.1513
   46MOL   C14818238   6.329   4.295   4.514 -0.1398 -0.6530 -0.4815
   46MOL   C14918239   6.398   4.535   4.667 -0.3187  0.6564 -0.0654
   46MOL   C15018240   6.442   4.653   4.731 -0.2402 -1.2300 -0.1631
   46MOL   C15118241   6.467   4.947   4.835  0.2658  0.3532 -0.1607
   46MOL   H15218242   6.567   4.955   4.637  0.7109 -1.0831 -0.2816
   46MOL   H15318243   6.525   4.832   4.454 -1.6668  1.3889 -0.1671
   46MOL   H15418244   6.456   4.630   4.341  1.1990 -1.4003  0.9252
   46MOL   H15518245   6.249   4.304   4.588  0.7659  1.7566  0.2703
   46MOL   H15618246   6.292   4.235   4.431  0.7191  0.3309 -1.5856
   46MOL   H15718247   6.419   4.251   4.558  0.1429 -0.2331 -0.6385
   46MOL   H15818248   6.365   4.456   4.733  1.4070  0.6503  0.8240
   46MOL   H15918249   6.430   4.673   4.837 -1.6205  3.2471 -1.0752
   46MOL   H16018250   6.536   5.006   4.895  0.0776  0.6570 -0.2354
   46MOL   H16118251   6.449   4.864   4.904 -0.1132 -0.4797 -1.2537
   46MOL   C16218252   6.337   5.029   4.789 -0.0884  0.2721  0.2298
   46MOL   C16318253   6.324   5.170   4.860  0.8401 -0.1539 -0.1973
   46MOL   C16418254   6.313   5.297   4.788 -0.2378  0.2014  0.2342
   46MOL   C16518255   6.299   5.414   4.862 -0.0298  0.1710  0.2314
   46MOL   C16618256   6.280   5.414   5.001 -0.0608  0.8858  0.6913
   46MOL   O16718257   6.253   5.531   5.065  0.3034 -0.3732 -0.0165
   46MOL   C16818258   6.159   5.621   4.991 -0.4340  0.0636 -1.0190
   46MOL   C16918259   6.306   5.292   5.068 -0.4842 -0.4139  0.4882
   46MOL   C17018260   6.330   5.179   5.001 -0.0937  0.3500  0.1063
   46MOL   C17118261   6.205   4.952   4.795  0.2476 -0.4875  0.6901
   46MOL   H17218262   6.351   5.060   4.685 -1.6440  2.8634  0.7466
   46MOL   H17318263   6.315   5.300   4.680 -0.1849 -0.8263  0.2005
   46MOL   H17418264   6.294   5.499   4.795 -0.3956 -0.1550 -0.1609
   46MOL   H17518265   6.084   5.580   4.925 -0.4797  0.1735 -1.0350
   46MOL   H17618266   6.204   5.698   4.928 -0.7052 -2.3713 -4.2421
   46MOL   H17718267   6.110   5.675   5.073  0.6402 -2.2281  1.2241
   46MOL   H17818268   6.311   5.288   5.176  0.0302 -0.4290  0.4670
   46MOL   H17918269   6.372   5.098   5.058 -0.1806 -0.5191 -1.0373
   46MOL   H18018270   6.132   5.022   4.837 -0.7181 -0.2837 -1.2338
   46MOL   H18118271   6.189   4.867   4.861  0.2655 -1.9975 -1.2182
   46MOL   C18218272   6.133   4.904   4.662  0.6909 -0.3938  0.1390
   46MOL   C18318273   6.137   5.019   4.560 -0.0395  0.0045 -0.0251
   46MOL   C18418274   6.081   5.143   4.590  0.1249 -1.0307  0.4098
   46MOL   C18518275   6.078   5.250   4.496 -0.1023  0.5445  0.0329
   46MOL   C18618276   6.131   5.238   4.367  0.5269  0.0648 -0.1569
   46MOL   O18718277   6.167   5.335   4.284  0.3932  0.5165  0.5387
   46MOL   C18818278   6.154   5.463   4.341 -0.3821 -0.5446  0.2009
   46MOL   C18918279   6.179   5.107   4.328 -0.2447  0.1644  0.1411
   46MOL   C19018280   6.191   5.007   4.430 -0.4600 -0.2375 -0.2569
   46MOL   C19118281   5.988   4.850   4.690 -0.0287 -0.9222  0.2176
   46MOL   H19218282   6.189   4.820   4.621 -1.6780 -2.5711  1.1669
   46MOL   H19318283   6.038   5.156   4.688 -1.1624 -2.4142  0.0397
   46MOL   H19418284   6.038   5.343   4.533 -1.6438 -0.1197  0.0628
   46MOL   H19518285   6.190   5.542   4.275  0.5834 -0.6818  0.5584
   46MOL   H19618286   6.204   5.476   4.437  2.2181  0.0042 -1.1662
   46MOL   H19718287   6.049   5.488   4.350 -0.7327 -1.4302 -1.1083
   46MOL   H19818288   6.215   5.100   4.227  1.1167 -3.4407  0.7793
   46MOL   H19918289   6.218   4.909   4.395 -1.8912 -0.2378 -1.4333
   46MOL   H20018290   5.995   4.793   4.783  3.0398 -1.0187 -0.0167
   46MOL   H20118291   5.940   4.943   4.721  0.4580 -1.0945  1.5431
   46MOL   C20218292   5.929   4.769   4.580  0.9413  0.5880 -0.4193
   46MOL   C20318293   5.779   4.751   4.600  0.1579  0.2095 -0.1661
   46MOL   C20418294   5.726   4.689   4.719  0.0125 -0.1632  0.7244
   46MOL   C20518295   5.589   4.659   4.742 -0.1406  0.5076  0.2845
   46MOL   C20618296   5.496   4.688   4.639 -0.7067 -0.7183  0.0353
   46MOL   O20718297   5.362   4.677   4.659 -0.1173  0.0591  0.4749
   46MOL   C20818298   5.317   4.607   4.769  0.1295 -0.8672 -0.0517
   46MOL   C20918299   5.543   4.762   4.527 -0.0567  0.7485  0.5446
   46MOL   C21018300   5.680   4.790   4.504  0.2640 -0.5524 -0.2497
   46MOL   C21118301   5.995   4.630   4.570 -0.5849 -0.1298 -0.5514
   46MOL   H21218302   5.940   4.814   4.481  0.1987 -0.0582 -0.8028
   46MOL   H21318303   5.797   4.662   4.796 -0.7929 -1.3205  1.0762
   46MOL   H21418304   5.557   4.610   4.832 -4.1607  1.4520 -0.5458
   46MOL   H21518305   5.339   4.671   4.854  2.1049 -0.4740 -0.8375
   46MOL   H21618306   5.208   4.603   4.768  0.0965  0.0528 -0.6108
   46MOL   H21718307   5.347   4.504   4.789 -0.1957 -0.2279  4.1835
   46MOL   H21818308   5.470   4.807   4.460 -0.0390 -0.0923 -0.0393
   46MOL   H21918309   5.712   4.829   4.409  1.2790 -1.8652 -0.4609
   46MOL   H22018310   5.976   4.583   4.666 -0.9860 -0.5412 -0.8281
   46MOL   H22118311   6.104   4.636   4.563 -0.5566 -1.9151 -2.4452
   46MOL   C22218312   5.948   4.541   4.450  0.4822  0.4815 -0.2447
   46MOL   C22318313   5.984   4.592   4.307  0.3775 -0.3614 -0.5465
   46MOL   C22418314   6.099   4.669   4.293  0.1042  0.0775  0.3350
   46MOL   C22518315   6.140   4.702   4.167  0.2237  0.3344  0.0582
   46MOL   C22618316   6.075   4.658   4.052 -0.3631  0.5151  0.0320
   46MOL   O22718317   6.131   4.702   3.936  0.4916 -0.6801  0.5650
   46MOL   C22818318   6.106   4.617   3.827  0.5456 -0.6063 -0.4644
   46MOL   C22918319   5.964   4.574   4.062  0.5712  0.0255 -0.0053
   46MOL   C23018320   5.912   4.547   4.193  0.0468  0.2655  0.7293
   46MOL   C23118321   5.972   4.383   4.458 -0.5666 -0.1429  0.0175
   46MOL   H23218322   5.844   4.573   4.444  0.6790  1.2447  0.3418
   46MOL   H23318323   6.163   4.706   4.372 -0.3016 -0.2761  0.8282
   46MOL   H23418324   6.233   4.756   4.154 -1.0165  2.8465  1.3167
   46MOL   H23518325   6.000   4.620   3.803  0.7675  0.2648 -1.3398
   46MOL   H23618326   6.165   4.639   3.738  0.0784 -1.8177 -1.0925
   46MOL   H23718327   6.146   4.517   3.844 -1.4716 -1.5786 -1.3048
   46MOL   H23818328   5.913   4.539   3.973  1.2070  1.6576 -1.0363
   46MOL   H23918329   5.815   4.501   4.201  0.0779 -0.1325 -0.8532
   46MOL   H24018330   6.000   4.335   4.364  0.8128 -0.8437  0.7512
   46MOL   H24118331   6.063   4.371   4.517 -0.6186  0.4132  0.2106
   46MOL   C24218332   5.864   4.303   4.530 -0.8455  0.6435  0.0482
   46MOL   C24318333   5.754   4.256   4.440 -0.3460  0.3558 -0.0669
   46MOL   C24418334   5.641   4.341   4.411  0.4682 -0.4042  0.2651
   46MOL   C24518335   5.537   4.290   4.337  0.6375 -0.5548 -0.1518
   46MOL   C24618336   5.533   4.159   4.291  0.0268 -0.0979 -0.0591
   46MOL   O24718337   5.418   4.121   4.231 -0.5043  0.1169  0.0247
   46MOL   C24818338   5.389   3.984   4.222  0.0935  0.1101 -0.0276
   46MOL   C24918339   5.643   4.075   4.309  0.4639  0.4078  0.5844
   46MOL   C25018340   5.749   4.126   4.386 -0.3614 -0.2145  0.9898
   46MOL   C25118341   5.928   4.187   4.615 -0.1459 -0.0685 -0.0318
   46MOL   H25218342   5.816   4.379   4.592  0.8710  2.0929 -0.3718
   46MOL   H25318343   5.623   4.440   4.452 -0.0707 -0.2347 -0.3553
   46MOL   H25418344   5.456   4.356   4.309  2.0049  0.7777 -1.0365
   46MOL   H25518345   5.282   3.965   4.231 -0.1146  1.2487 -0.0875
   46MOL   H25618346   5.424   3.951   4.124  0.7043 -0.0233  0.2318
   46MOL   H25718347   5.442   3.922   4.295 -0.2937 -0.4410 -0.2128
   46MOL   H25818348   5.653   3.975   4.270 -2.3515 -0.4740  2.0098
   46MOL   H25918349   5.829   4.056   4.407 -0.1569 -0.1255  0.5003
   46MOL   H26018350   5.996   4.119   4.564  0.6532  0.0452  0.8730
   46MOL   H26118351   5.844   4.123   4.644  3.2393 -4.8607 -0.1791
   46MOL   C26218352   5.988   4.230   4.752 -0.6758 -0.1646 -0.5504
   46MOL   C26318353   6.091   4.123   4.787 -0.0645 -0.1032 -0.4872
   46MOL   C26418354   6.226   4.156   4.822  0.0537  0.2292 -0.4723
   46MOL   C26518355   6.303   4.053   4.871 -0.0935 -0.6891  0.2342
   46MOL   C26618356   6.265   3.923   4.867  0.1006  0.9623 -0.1649
   46MOL   O26718357   6.368   3.835   4.901 -0.1874  0.2626 -0.5009
   46MOL   C26818358   6.365   3.713   4.828 -0.2131 -0.7451  0.4630
   46MOL   C26918359   6.134   3.886   4.824 -0.6724 -0.0600 -0.2298
   46MOL   C27018360   6.048   3.990   4.792 -0.8245  0.0088  0.4813
   46MOL   C27118361   5.893   4.254   4.870  0.5400  0.1584  0.4849
   46MOL   H27218362   6.051   4.319   4.740  0.8398 -1.1815 -0.2903
   46MOL   H27318363   6.255   4.260   4.827 -2.1497  0.7874  1.1082
   46MOL   H27418364   6.406   4.078   4.888 -0.2518  0.4544 -0.3619
   46MOL   H27518365   6.447   3.643   4.846  1.3966  0.9007 -0.3966
   46MOL   H27618366   6.359   3.725   4.720 -1.3201  1.9488  0.7993
   46MOL   H27718367   6.280   3.654   4.862  1.2071 -2.2804  1.4859
   46MOL   H27818368   6.097   3.785   4.819 -2.4354  0.5897 -0.6364
   46MOL   H27918369   5.949   3.958   4.762  0.4154 -0.4446 -3.4506
   46MOL   H28018370   5.807   4.316   4.843  1.3056 -0.3849 -3.6253
   46MOL   H28118371   5.845   4.161   4.901  1.6956  0.4452  3.2336
   46MOL   C28218372   5.962   4.316   4.998 -0.3242 -0.1911 -0.3064
   46MOL   C28318373   5.888   4.270   5.123 -0.7704 -0.3224  0.4312
   46MOL   C28418374   5.761   4.324   5.158  0.2758  0.2195 -0.2928
   46MOL   C28518375   5.686   4.275   5.273  0.0644 -0.3186  0.1924
   46MOL   C28618376   5.741   4.163   5.341  0.5454 -0.5122  0.0858
   46MOL   O28718377   5.665   4.117   5.436 -0.4369 -0.2020 -0.3765
   46MOL   C28818378   5.688   4.000   5.503  0.1597  0.1699 -0.5433
   46MOL   C28918379   5.867   4.109   5.310  0.7235  0.3272 -0.1355
   46MOL   C29018380   5.937   4.162   5.200  0.4478 -0.4348  0.2000
   46MOL   C29118381   5.989   4.472   4.984 -0.1734 -0.0084 -0.6604
   46MOL   H29218382   6.060   4.269   4.999 -0.8582 -1.3418 -0.5492
   46MOL   H29318383   5.711   4.404   5.105 -0.4855  0.5078  0.8494
   46MOL   H29418384   5.587   4.314   5.293 -0.4793 -1.8920  0.6701
   46MOL   H29518385   5.709   3.911   5.442  0.7633 -0.5468  0.6879
   46MOL   H29618386   5.778   4.005   5.564 -0.1334  0.4904 -0.1391
   46MOL   H29718387   5.596   3.972   5.554  0.4076  2.5882  1.3164
   46MOL   H29818388   5.902   4.021   5.362  1.4334  1.9736  2.2513
   46MOL   H29918389   6.030   4.114   5.175  1.7252  0.9834  2.0357
   46MOL   H30018390   6.045   4.487   4.892 -1.9103  1.8181 -1.4616
   46MOL   H30118391   5.897   4.528   4.965 -0.4675  0.0680  0.8836
   46MOL   C30218392   6.058   4.536   5.108 -0.0300 -0.5634  0.4734
   46MOL   C30318393   6.193   4.468   5.128  0.3201 -0.3108 -0.4516
   46MOL   C30418394   6.221   4.416   5.258  0.4819  0.2610  0.0520
   46MOL   C30518395   6.337   4.336   5.279 -0.1749 -0.1434 -0.8769
   46MOL   C30618396   6.438   4.330   5.181  0.7244 -0.3579 -0.4771
   46MOL   O30718397   6.553   4.259   5.199 -0.2439 -0.3270  0.3478
   46MOL   C30818398   6.626   4.283   5.319  0.3943 -0.5984  0.1513
   46MOL   C30918399   6.407   4.388   5.058  1.0939 -0.5399 -0.1709
   46MOL   C31018400   6.293   4.463   5.030  0.4989  0.3134  0.4114
   46MOL   C31118401   6.074   4.690   5.111 -0.6664  0.0279  0.1752
   46MOL   H31218402   5.997   4.502   5.192  0.0515  0.7623  1.0768
   46MOL   H31318403   6.146   4.419   5.336  0.2390 -0.9757 -0.1277
   46MOL   H31418404   6.356   4.289   5.375 -0.9994  0.8783 -0.2006
   46MOL   H31518405   6.608   4.386   5.349 -0.4680 -0.7636  0.2319
   46MOL   H31618406   6.727   4.261   5.285  0.8087  3.2044 -1.3421
   46MOL   H31718407   6.604   4.209   5.397  0.3759 -0.4704  0.2677
   46MOL   H31818408   6.484   4.375   4.983  1.5016  2.4066 -0.3027
   46MOL   H31918409   6.269   4.513   4.938  0.8406 -0.4951 -0.1181
   46MOL   H32018410   6.050   4.738   5.016 -0.3316  0.0194  0.0872
   46MOL   H32118411   6.174   4.714   5.147 -0.3416 -0.1424 -0.6117
   46MOL   C32218412   5.988   4.752   5.224  0.2034 -0.3575 -0.2606
   46MOL   C32318413   5.843   4.723   5.208 -0.2638  0.2038 -0.6067
   46MOL   C32418414   5.775   4.645   5.296 -0.2485  0.5821  0.0379
   46MOL   C32518415   5.640   4.601   5.279 -0.0581 -0.2115 -0.5204
   46MOL   C32618416   5.566   4.649   5.167 -0.6517 -0.6440 -0.2157
   46MOL   O32718417   5.428   4.625   5.150 -0.0843  0.0097 -0.1416
   46MOL   C32818418   5.372   4.530   5.226  0.5155 -0.5973 -0.3398
   46MOL   C32918419   5.634   4.743   5.078  0.6487 -0.4751  0.7338
   46MOL   C33018420   5.772   4.774   5.095 -0.2396  0.0852 -0.0147
   46MOL   C33118421   6.023   4.894   5.242 -0.0107  0.6695  0.2404
   46MOL   H33218422   6.010   4.690   5.311 -2.1281 -0.0870  0.5643
   46MOL   H33318423   5.834   4.600   5.374  1.5732  0.5340 -1.3116
   46MOL   H33418424   5.593   4.540   5.354  1.6104  0.7932  1.3714
   46MOL   H33518425   5.265   4.520   5.207  0.1395  0.3272  1.2590
   46MOL   H33618426   5.379   4.550   5.333 -0.0018  2.4610 -0.8398
   46MOL   H33718427   5.426   4.438   5.203  0.9962 -0.0677 -1.3628
   46MOL   H33818428   5.574   4.774   4.993  0.9009  1.6186  1.2999
   46MOL   H33918429   5.838   4.828   5.029  1.3681 -0.5758  1.0029
   46MOL   H34018430   6.131   4.902   5.230  0.1186 -1.3813  0.0201
   46MOL   H34118431   5.979   4.955   5.163  1.6871  1.0021 -0.4854
   46MOL   C34218432   5.981   4.958   5.373  0.1302  0.7286  0.1066
   46MOL   C34318433   5.947   5.104   5.348  0.6001 -0.0742 -0.6679
   46MOL   C34418434   5.817   5.154   5.345  0.1192  0.1949  0.2332
   46MOL   C34518435   5.799   5.289   5.304  0.0933  0.4841  0.6329
   46MOL   C34618436   5.906   5.377   5.279 -0.4069  0.5927  0.4752
   46MOL   O34718437   5.893   5.510   5.240  0.7198 -0.0049  0.7717
   46MOL   C34818438   5.764   5.574   5.245  0.3820  0.0081  0.3698
   46MOL   C34918439   6.035   5.331   5.287  0.3861  0.4001  0.4468
   46MOL   C35018440   6.057   5.191   5.320 -0.5617  0.1674  0.4973
   46MOL   C35118441   6.073   4.946   5.496  0.5842  0.3403  0.4738
   46MOL   H35218442   5.882   4.919   5.397 -0.1335  0.7827 -0.8748
   46MOL   H35318443   5.733   5.087   5.350 -0.6954  1.3245  3.3730
   46MOL   H35418444   5.698   5.323   5.290 -0.1395 -0.1995  0.6250
   46MOL   H35518445   5.772   5.678   5.213 -0.4088 -0.4830 -1.4878
   46MOL   H35618446   5.692   5.522   5.182 -1.2450  2.6521 -0.0167
   46MOL   H35718447   5.722   5.575   5.345 -1.1609  0.4395 -0.2799
   46MOL   H35818448   6.112   5.402   5.261 -1.9760  3.1496  0.7955
   46MOL   H35918449   6.155   5.148   5.309 -0.8545 -1.6071  4.0137
   46MOL   H36018450   6.166   4.993   5.465  0.2563 -0.0553 -1.1536
   46MOL   H36118451   6.043   5.010   5.579 -2.0736  0.1652 -0.3260
   46MOL   C36218452   6.122   4.808   5.551 -0.0543 -0.1416  0.0692
   46MOL   C36318453   6.013   4.715   5.610 -0.1056 -0.2888 -0.2595
   46MOL   C36418454   5.999   4.585   5.571 -0.4986 -0.0261  0.4753
   46MOL   C36518455   5.888   4.509   5.608  0.1540  0.3169 -0.9888
   46MOL   C36618456   5.806   4.553   5.715  0.9559 -0.0888 -0.4908
   46MOL   O36718457   5.700   4.484   5.771 -0.6555  0.0523 -0.3803
   46MOL   C36818458   5.645   4.365   5.714 -0.5908 -0.2165 -0.2209
   46MOL   C36918459   5.837   4.678   5.767  0.4879 -0.4800  0.2730
   46MOL   C37018460   5.931   4.766   5.710  0.3958 -0.2375 -0.2905
   46MOL   C37118461   6.247   4.829   5.647 -0.1853 -0.1354  0.0510
   46MOL   H37218462   6.167   4.764   5.462  0.0512  0.0723  0.0152
   46MOL   H37318463   6.062   4.551   5.489  0.0266  0.7880  0.5328
   46MOL   H37418464   5.872   4.420   5.549  0.3239 -0.0004 -0.5679
   46MOL   H37518465   5.540   4.362   5.742  0.0613  0.5886  2.4166
   46MOL   H37618466   5.657   4.361   5.605  3.0826  0.3178  0.1010
   46MOL   H37718467   5.689   4.274   5.754 -0.3791 -0.1606 -0.3245
   46MOL   H37818468   5.790   4.716   5.856  0.9865  0.1501  0.2715
   46MOL   H37918469   5.948   4.869   5.738  2.8728 -0.4361 -0.9206
   46MOL   H38018470   6.316   4.900   5.601  0.6352  0.0251  1.4999
   46MOL   H38118471   6.210   4.874   5.739 -1.2197  2.1922 -1.4424
   46MOL   C38218472   6.313   4.690   5.675  0.0972  0.6162  0.4285
   46MOL   C38318473   6.423   4.694   5.780  0.2271  0.0944  0.2964
   46MOL   C38418474   6.448   4.583   5.858  0.5723  0.5887 -0.3335
   46MOL   C38518475   6.547   4.590   5.954 -0.6710 -0.1796  0.0308
   46MOL   C38618476   6.620   4.710   5.979  0.4026  0.0488  0.2991
   46MOL   O38718477   6.711   4.729   6.079  0.1147 -0.0829  0.3454
   46MOL   C38818478   6.685   4.648   6.194 -0.1701  0.3092  0.4119
   46MOL   C38918479   6.602   4.814   5.890  0.9633 -0.1254 -0.2743
   46MOL   C39018480   6.502   4.812   5.799  0.0300  0.1099 -0.0924
   46MOL   C39118481   6.366   4.617   5.552 -0.7604 -0.0783  0.4754
   46MOL   H39218482   6.237   4.625   5.719  0.5311 -2.3122 -2.9056
   46MOL   H39318483   6.383   4.499   5.840  0.6289  0.5496 -0.3585
   46MOL   H39418484   6.562   4.504   6.017 -1.8506  0.2854  0.9678
   46MOL   H39518485   6.743   4.690   6.277  0.4534 -2.9407  1.6961
   46MOL   H39618486   6.724   4.546   6.188 -0.8414  0.0635  0.2376
   46MOL   H39718487   6.578   4.643   6.211  0.0744  1.6282  2.5429
   46MOL   H39818488   6.666   4.900   5.905  0.6092  0.1937 -0.5969
   46MOL   H39918489   6.497   4.903   5.741 -2.5392  0.3297  0.4044
   46MOL   H40018490   6.445   4.670   5.498 -0.9544 -0.9816 -0.7107
   46MOL   H40118491   6.284   4.594   5.484  0.0449 -0.2687 -0.4520
   46MOL   H40218492   6.411   4.519   5.571  0.0061  0.3190  0.7179
   47MOL     C118493   7.672   3.037   3.372 -0.3504  0.3665 -0.3681
   47MOL     C218494   7.689   3.185   3.412 -0.1173 -0.0639  0.3522
   47MOL     C318495   7.576   3.260   3.452 -0.5408  0.1443  0.7789
   47MOL     C418496   7.594   3.403   3.477  0.6623  0.8596  0.9079
   47MOL     C518497   7.721   3.466   3.472 -0.1819  0.8342 -0.5552
   47MOL     O618498   7.718   3.600   3.498 -0.4496 -0.1479 -0.5988
   47MOL     C718499   7.845   3.659   3.514 -0.7370 -0.2654 -0.1814
   47MOL     C818500   7.836   3.382   3.456  0.0306  0.4785 -0.2753
   47MOL     C918501   7.819   3.250   3.408 -0.5604 -0.6318  0.3155
   47MOL    C1018502   7.803   2.952   3.398  0.4521 -0.4862  0.2469
   47MOL    H1118503   7.638   3.039   3.268  0.2787 -1.4259 -0.6255
   47MOL    H1218504   7.484   3.204   3.452  1.0279 -2.5516 -0.3889
   47MOL    H1318505   7.511   3.466   3.503  0.5823  0.2813  2.0635
   47MOL    H1418506   7.899   3.637   3.423  1.1135  2.4071  0.1879
   47MOL    H1518507   7.838   3.766   3.536 -1.8637 -0.7311  1.9455
   47MOL    H1618508   7.911   3.612   3.587 -0.6807  0.6851  0.3988
   47MOL    H1718509   7.936   3.421   3.461 -0.8464  2.5671  2.7425
   47MOL    H1818510   7.913   3.202   3.385  0.2360  0.9950  0.0695
   47MOL    H1918511   7.867   2.967   3.311 -0.1581 -1.4178 -0.3608
   47MOL    H2018512   7.848   3.001   3.485 -1.3940  1.4170  0.1553
   47MOL    H2118513   7.589   2.996   3.429 -0.6981  0.4806 -0.7865
   47MOL    C2218514   7.778   2.814   3.440 -0.1114  1.0334 -0.3007
   47MOL    C2318515   7.699   2.750   3.334  0.0536  0.9181  1.3444
   47MOL    C2418516   7.567   2.723   3.353 -0.0332 -0.0326  0.3998
   47MOL    C2518517   7.488   2.643   3.265  0.5363 -0.6810 -0.6798
   47MOL    C2618518   7.546   2.619   3.140 -0.8562  0.0609  0.0074
   47MOL    O2718519   7.477   2.565   3.034  0.1665 -0.1629 -0.4860
   47MOL    C2818520   7.334   2.534   3.050 -0.1491  0.2161 -0.6504
   47MOL    C2918521   7.681   2.656   3.113 -0.0607  0.8622 -0.0455
   47MOL    C3018522   7.758   2.708   3.214 -0.4842  0.0903  0.1616
   47MOL    C3118523   7.908   2.730   3.467  0.0625 -0.4981 -0.3456
   47MOL    H3218524   7.722   2.811   3.533  0.2282 -2.2495 -0.1310
   47MOL    H3318525   7.522   2.754   3.447  0.8086  1.1748  0.4005
   47MOL    H3418526   7.381   2.636   3.280 -0.1189 -0.5420 -4.5739
   47MOL    H3518527   7.274   2.625   3.048  0.3758  0.6167  0.9204
   47MOL    H3618528   7.322   2.469   3.137 -2.5376 -0.2972 -1.3067
   47MOL    H3718529   7.300   2.482   2.961  1.7333  0.7892 -1.7228
   47MOL    H3818530   7.732   2.634   3.020  1.0459 -0.5577  0.8753
   47MOL    H3918531   7.857   2.747   3.193 -0.6448  0.9901  1.0535
   47MOL    H4018532   7.889   2.625   3.447  1.1078 -0.4427 -1.6434
   47MOL    H4118533   7.994   2.755   3.406  0.4431  0.5867  0.5953
   47MOL    C4218534   7.976   2.739   3.605 -0.0843 -0.9248  0.4905
   47MOL    C4318535   8.019   2.883   3.629 -0.1770  0.4411  0.0679
   47MOL    C4418536   7.970   2.962   3.731  0.0119  0.2486  0.8754
   47MOL    C4518537   7.988   3.102   3.737  0.5778 -0.1893 -0.5776
   47MOL    C4618538   0.044   3.165   3.648  0.7493 -0.1621 -0.8736
   47MOL    O4718539   0.071   3.300   3.638 -0.0927  0.1063  0.1434
   47MOL    C4818540   0.005   3.391   3.727  0.1728  0.7516  0.2787
   47MOL    C4918541   0.109   3.080   3.553  0.3564 -0.1489  0.4538
   47MOL    C5018542   0.081   2.940   3.545  0.5960  0.0445 -0.8749
   47MOL    C5118543   0.052   2.638   3.621 -0.6862 -0.3700 -0.4581
   47MOL    H5218544   7.904   2.710   3.682 -0.7440  1.4731  0.8107
   47MOL    H5318545   7.899   2.920   3.801 -0.8709 -1.2231 -0.8316
   47MOL    H5418546   7.934   3.158   3.811 -1.3873 -0.0229 -2.0826
   47MOL    H5518547   0.048   3.490   3.712 -1.3858  1.2301 -1.1361
   47MOL    H5618548   7.938   3.397   3.709  0.1666 -1.0427 -0.3526
   47MOL    H5718549   0.024   3.365   3.831 -2.0056  0.7274  0.6923
   47MOL    H5818550   0.177   3.127   3.483 -0.3803 -0.5318 -0.5352
   47MOL    H5918551   0.126   2.878   3.469  0.1844 -0.3873 -0.7704
   47MOL    H6018552   0.139   2.689   3.580 -0.7054 -0.2524 -0.3544
   47MOL    H6118553   0.031   2.543   3.572 -1.6135  0.2668 -1.3440
   47MOL    C6218554   0.105   2.610   3.761  0.2647 -0.4858 -0.0978
   47MOL    C6318555   0.257   2.581   3.759 -0.4263  0.9026  0.2639
   47MOL    C6418556   0.350   2.673   3.821  0.1620  0.5318 -0.0472
   47MOL    C6518557   0.487   2.655   3.826 -0.6169 -0.5085 -0.7578
   47MOL    C6618558   0.532   2.527   3.789 -0.3443  0.0128  0.0017
   47MOL    O6718559   0.666   2.501   3.815  0.5744 -0.3122 -0.6795
   47MOL    C6818560   0.712   2.368   3.807  0.7328 -0.4633  0.1989
   47MOL    C6918561   0.444   2.431   3.730 -0.7512  0.3342 -0.8870
   47MOL    C7018562   0.308   2.456   3.716  0.3786  0.2207 -0.1765
   47MOL    C7118563   0.018   2.511   3.844  0.3567 -0.0769 -0.2444
   47MOL    H7218564   0.103   2.705   3.816  2.7709  0.2016 -1.1486
   47MOL    H7318565   0.309   2.768   3.854  1.1487  2.0224 -2.9078
   47MOL    H7418566   0.547   2.733   3.872 -2.4037  0.5552 -0.2025
   47MOL    H7518567   0.820   2.377   3.824  0.8354  0.6969 -1.0044
   47MOL    H7618568   0.702   2.312   3.714  0.3757  1.2294 -0.8008
   47MOL    H7718569   0.674   2.306   3.888  1.3522 -1.2674 -0.1163
   47MOL    H7818570   0.472   2.333   3.696  0.8783  0.5567 -0.2340
   47MOL    H7918571   0.241   2.386   3.668  1.2496 -0.6743 -0.0937
   47MOL    H8018572   7.954   2.542   3.845 -0.1557 -1.6716 -1.0540
   47MOL    H8118573   0.005   2.421   3.784  0.6521 -1.0138  1.0847
   47MOL    C8218574   0.058   2.490   3.997 -0.2509 -0.4561 -0.3797
   47MOL    C8318575   0.075   2.622   4.075 -0.1854  0.6590  0.0837
   47MOL    C8418576   8.011   2.720   4.077 -0.7048 -0.6649  0.6095
   47MOL    C8518577   8.032   2.841   4.147  1.0367  0.0617 -0.4583
   47MOL    C8618578   0.116   2.873   4.211 -0.7583  0.0807  0.3321
   47MOL    O8718579   0.132   2.994   4.278  0.1868 -0.1151  0.0399
   47MOL    C8818580   0.252   3.030   4.343 -0.0340  0.6567 -0.2785
   47MOL    C8918581   0.217   2.774   4.197  0.1250 -0.0650 -0.4151
   47MOL    C9018582   0.200   2.649   4.138  0.2647  0.4127  0.3457
   47MOL    C9118583   8.004   2.400   4.084  0.0780  0.1141  0.4080
   47MOL    H9218584   0.158   2.446   3.991  0.6915  1.6429 -0.4361
   47MOL    H9318585   7.921   2.703   4.019 -0.1143 -1.6260 -0.0275
   47MOL    H9418586   7.956   2.918   4.143  2.1058  1.0404 -3.5353
   47MOL    H9518587   0.257   3.127   4.394  0.2934  0.2819  0.4045
   47MOL    H9618588   0.336   3.011   4.276  1.2071  1.6819  0.9562
   47MOL    H9718589   0.276   2.964   4.427 -0.0118  1.3632  0.2791
   47MOL    H9818590   0.312   2.796   4.244 -2.4726  1.3292  4.4930
   47MOL    H9918591   0.280   2.577   4.140 -1.3118 -1.3490  2.7479
   47MOL   H10018592   7.907   2.449   4.092 -0.7934 -1.5013 -0.0326
   47MOL   H10118593   7.977   2.316   4.020 -1.2711  0.1529  0.9212
   47MOL   C10218594   0.029   2.352   4.211 -0.2646 -0.3774  0.3686
   47MOL   C10318595   7.969   2.318   4.313  0.0630 -0.1373  0.3024
   47MOL   C10418596   7.970   2.379   4.436  0.1850  0.0797  0.3547
   47MOL   C10518597   7.877   2.346   4.537 -0.3193  0.2354  0.0778
   47MOL   C10618598   7.775   2.255   4.510 -0.8329  0.1002  0.6193
   47MOL   O10718599   7.700   2.210   4.610  0.5199  0.8731 -0.4225
   47MOL   C10818600   7.755   2.192   4.735  0.4158 -1.0505 -0.2630
   47MOL   C10918601   7.766   2.192   4.384  0.3659  0.1202  0.1712
   47MOL   C11018602   7.867   2.220   4.285 -0.1555 -0.4874 -0.3162
   47MOL   C11118603   0.112   2.222   4.175  0.8220 -0.0089  0.3081
   47MOL   H11218604   0.099   2.419   4.260  0.8163 -1.6703  0.5959
   47MOL   H11318605   0.006   2.454   4.453 -0.9766  1.8907 -2.2032
   47MOL   H11418606   7.881   2.405   4.627  0.4259  0.1278  0.1227
   47MOL   H11518607   7.841   2.128   4.755  0.9052 -0.2143  0.3448
   47MOL   H11618608   7.787   2.287   4.777  2.2309 -1.4909 -0.6174
   47MOL   H11718609   7.678   2.153   4.801  0.6927 -1.3537 -0.1187
   47MOL   H11818610   7.702   2.108   4.363  0.5068  0.0705 -0.0610
   47MOL   H11918611   7.860   2.171   4.189 -1.0360 -0.4612 -0.2741
   47MOL   H12018612   0.039   2.149   4.139  1.4917  0.2962 -1.7164
   47MOL   H12118613   0.163   2.225   4.079 -2.2237 -1.2258 -1.4427
   47MOL   C12218614   0.222   2.173   4.274  0.1156  0.4049  0.0368
   47MOL   C12318615   0.334   2.278   4.292 -1.2087  0.4227  0.6483
   47MOL   C12418616   0.337   2.364   4.406 -0.1577 -0.0323  0.0709
   47MOL   C12518617   0.447   2.450   4.426  0.4171 -0.4819  0.3063
   47MOL   C12618618   0.550   2.455   4.329  1.4453  0.3016 -0.4553
   47MOL   O12718619   0.662   2.538   4.347 -0.0049 -0.0683 -0.2824
   47MOL   C12818620   0.668   2.636   4.455  0.4455  0.0686 -0.0109
   47MOL   C12918621   0.543   2.377   4.215 -0.4889 -0.5450  0.1081
   47MOL   C13018622   0.432   2.293   4.196  0.3480 -0.9121  0.1068
   47MOL   C13118623   0.288   2.033   4.255 -0.2443  0.4770  0.6121
   47MOL   H13218624   0.177   2.178   4.374 -0.0899  1.4996 -0.0999
   47MOL   H13318625   0.267   2.357   4.487 -1.5832  0.1154 -1.1383
   47MOL   H13418626   0.449   2.510   4.516 -0.7104  1.8102 -1.1257
   47MOL   H13518627   0.620   2.731   4.431  0.7458  0.5007  1.0726
   47MOL   H13618628   0.629   2.607   4.552 -2.0521  1.1494 -0.6597
   47MOL   H13718629   0.775   2.657   4.464  0.1235  2.8609 -2.1233
   47MOL   H13818630   0.627   2.379   4.147 -0.2300  0.6618  0.4573
   47MOL   H13918631   0.425   2.241   4.102 -2.1252  0.6404 -0.6024
   47MOL   H14018632   0.376   2.043   4.318 -2.0616 -1.0703  3.4857
   47MOL   H14118633   0.323   2.033   4.152  1.1142 -2.0429  1.0493
   47MOL   C14218634   0.216   1.907   4.296  0.2878 -0.5054 -1.1336
   47MOL   C14318635   0.117   1.869   4.187  0.5013 -0.2678  0.2163
   47MOL   C14418636   0.154   1.815   4.064  0.0058 -0.1358 -0.6096
   47MOL   C14518637   0.057   1.778   3.963  0.2025  0.6806  0.1434
   47MOL   C14618638   7.960   1.802   3.990 -0.0754  0.1565  0.3061
   47MOL   O14718639   7.859   1.766   3.898 -0.2150  0.0273 -0.3256
   47MOL   C14818640   7.873   1.635   3.838 -0.5354 -0.8697 -0.1678
   47MOL   C14918641   7.923   1.864   4.110  0.3230  0.1362 -0.0117
   47MOL   C15018642   8.021   1.890   4.210 -0.4203 -0.8231 -0.1080
   47MOL   C15118643   0.328   1.798   4.323 -0.4998  0.3182 -0.1474
   47MOL   H15218644   0.171   1.926   4.394  1.0708 -1.2180 -0.6370
   47MOL   H15318645   0.261   1.804   4.050  0.4396  0.0930  2.1830
   47MOL   H15418646   0.087   1.737   3.868 -0.5707  0.3525  0.0344
   47MOL   H15518647   7.770   1.600   3.831 -0.0635 -1.9628 -2.0141
   47MOL   H15618648   7.923   1.657   3.744 -0.9511  3.3336  0.5021
   47MOL   H15718649   7.938   1.582   3.908  1.1542  0.2648 -0.8318
   47MOL   H15818650   7.822   1.885   4.142 -0.4536 -2.2308 -0.7637
   47MOL   H15918651   7.989   1.941   4.299  0.1256  0.5156 -0.6765
   47MOL   H16018652   0.385   1.822   4.413 -0.3118  0.8486 -0.4103
   47MOL   H16118653   0.398   1.788   4.241  0.0667 -3.8219  0.7113
   47MOL   C16218654   0.271   1.653   4.344 -0.0543  0.4895 -0.0312
   47MOL   C16318655   0.213   1.650   4.492 -1.1475 -0.3509 -0.7488
   47MOL   C16418656   0.286   1.625   4.611 -0.1414 -0.4139  0.6891
   47MOL   C16518657   0.226   1.643   4.738  0.1289 -0.2880 -0.1371
   47MOL   C16618658   0.084   1.656   4.753  1.4505 -0.4009  0.2847
   47MOL   O16718659   0.012   1.674   4.874 -0.4860  0.7257  0.5225
   47MOL   C16818660   0.082   1.735   4.976 -0.5880 -0.0852  0.0171
   47MOL   C16918661   0.009   1.669   4.631 -0.2137  0.9862 -0.7410
   47MOL   C17018662   0.077   1.661   4.505  0.5356  0.4215  0.0414
   47MOL   C17118663   0.386   1.542   4.330 -0.3352 -0.0889 -0.3684
   47MOL   H17218664   0.187   1.628   4.278  0.5249  0.7546 -0.8848
   47MOL   H17318665   0.390   1.596   4.609 -0.8113 -2.8461 -1.6084
   47MOL   H17418666   0.289   1.629   4.825  1.1432 -2.2985 -1.1486
   47MOL   H17518667   0.008   1.773   5.046 -0.1903  0.2650  0.2521
   47MOL   H17618668   0.135   1.824   4.941  0.8953 -1.0959 -0.3307
   47MOL   H17718669   0.149   1.667   5.027 -1.0672 -0.0466  0.7033
   47MOL   H17818670   7.943   1.692   4.631 -0.3149  0.6380  1.9762
   47MOL   H17918671   0.022   1.671   4.413  1.7124 -0.3306 -0.7655
   47MOL   H18018672   0.472   1.568   4.392  0.7628  1.7094 -2.5641
   47MOL   H18118673   0.434   1.547   4.232  1.2352 -0.7525  0.3455
   47MOL   C18218674   0.343   1.394   4.359  0.5918 -0.4476 -0.0356
   47MOL   C18318675   0.455   1.296   4.375 -0.2907  0.2961 -0.3202
   47MOL   C18418676   0.489   1.233   4.499  0.8471 -0.7563 -0.5567
   47MOL   C18518677   0.609   1.157   4.512 -0.0372 -0.3127  0.3030
   47MOL   C18618678   0.701   1.139   4.410 -0.3433 -0.2563  0.8943
   47MOL   O18718679   0.804   1.058   4.438  0.0310 -0.5476 -0.7334
   47MOL   C18818680   0.895   1.018   4.338  0.3907  0.7807  0.7973
   47MOL   C18918681   0.669   1.202   4.286  0.5579 -0.3272 -0.0126
   47MOL   C19018682   0.549   1.275   4.268  0.3531  0.1158  0.0714
   47MOL   C19118683   0.237   1.337   4.267  0.2150 -0.3185 -0.3954
   47MOL   H19218684   0.301   1.387   4.459  0.2167  0.6687 -0.1051
   47MOL   H19318685   0.423   1.244   4.584  1.5407 -1.1993  0.0465
   47MOL   H19418686   0.626   1.105   4.605  0.3646 -0.4998  0.1246
   47MOL   H19518687   0.961   0.941   4.377  0.2209 -1.0824 -2.4508
   47MOL   H19618688   0.953   1.102   4.300 -1.6822  0.9191 -2.1789
   47MOL   H19718689   0.835   0.979   4.256  0.9237  0.4141  0.5788
   47MOL   H19818690   0.736   1.188   4.203  0.2066 -1.0808 -0.1804
   47MOL   H19918691   0.526   1.308   4.168 -0.9123  0.3504  0.4379
   47MOL   H20018692   0.241   1.390   4.172 -0.7449  0.3765 -0.0511
   47MOL   H20118693   0.255   1.231   4.248  0.7967 -0.7811  2.6234
   47MOL   C20218694   0.092   1.351   4.319  0.1281 -0.3510 -0.0189
   47MOL   C20318695   0.061   1.233   4.405  0.9487  0.0670  0.3953
   47MOL   C20418696   0.073   1.100   4.353  0.8573 -0.3533  0.4103
   47MOL   C20518697   0.046   0.993   4.439 -0.2030  0.4816  0.2143
   47MOL   C20618698   0.016   1.009   4.577 -0.1449  1.0499  0.4789
   47MOL   O20718699   0.003   0.905   4.662 -0.5292  0.8410 -0.1628
   47MOL   C20818700   0.027   0.772   4.610  0.9793  0.3875 -0.3715
   47MOL   C20918701   8.031   1.134   4.624  0.1294  0.6936 -0.8464
   47MOL   C21018702   0.017   1.250   4.540  0.0755  0.6032  0.3883
   47MOL   C21118703   8.028   1.362   4.204 -0.6596 -0.2659 -0.1502
   47MOL   H21218704   0.085   1.445   4.373  0.3321  0.7880 -1.9527
   47MOL   H21318705   0.106   1.080   4.252 -2.0007  0.7282 -0.7963
   47MOL   H21418706   0.051   0.891   4.404  0.6283  0.5462  0.1524
   47MOL   H21518707   0.005   0.700   4.689  1.3346  0.9999  0.2901
   47MOL   H21618708   8.010   0.745   4.520 -0.7035 -0.2142  0.8506
   47MOL   H21718709   0.130   0.768   4.577  1.1079  1.3809 -0.1136
   47MOL   H21818710   7.976   1.144   4.716  0.3119  0.4174 -0.7038
   47MOL   H21918711   8.028   1.348   4.576 -0.0662  1.3081 -1.5832
   47MOL   H22018712   0.008   1.287   4.127  0.0372 -0.9792  0.7220
   47MOL   H22118713   0.017   1.454   4.153  2.0384 -2.0444 -1.9412
   47MOL   C22218714   7.873   1.350   4.225 -0.2517  0.7791  0.0920
   47MOL   C22318715   7.818   1.456   4.321 -0.1332 -0.2628  0.5827
   47MOL   C22418716   7.836   1.593   4.289 -0.5308 -0.0444 -0.0464
   47MOL   C22518717   7.774   1.687   4.377 -0.0451 -0.2344 -0.4553
   47MOL   C22618718   7.722   1.654   4.501 -0.9842 -0.0318 -0.1768
   47MOL   O22718719   7.671   1.737   4.599 -0.0426 -0.0505  0.4202
   47MOL   C22818720   7.669   1.876   4.572  0.1315 -0.5274  0.1611
   47MOL   C22918721   7.713   1.517   4.529  0.7826 -0.0187  0.1023
   47MOL   C23018722   7.764   1.420   4.444  0.2093  0.6634  1.1057
   47MOL   C23118723   7.795   1.342   4.093 -0.4799  0.2096  0.1156
   47MOL   H23218724   7.850   1.258   4.277  0.2288 -0.9487 -2.6592
   47MOL   H23318725   7.878   1.629   4.196  1.5311 -0.9404  0.5140
   47MOL   H23418726   7.779   1.792   4.354 -1.3041 -0.1138 -0.2596
   47MOL   H23518727   7.776   1.897   4.570  0.5561 -2.5284  0.8921
   47MOL   H23618728   7.620   1.905   4.479  0.1539  2.6600  1.0782
   47MOL   H23718729   7.610   1.913   4.657  0.4301  0.2273  0.0459
   47MOL   H23818730   7.671   1.485   4.623  1.8237 -1.7611  0.0020
   47MOL   H23918731   7.762   1.319   4.483  0.5036  0.0460 -0.4160
   47MOL   H24018732   7.820   1.430   4.033  1.1093 -3.3727 -4.8339
   47MOL   H24118733   7.831   1.256   4.036 -2.7331 -0.2606 -0.6357
   47MOL   C24218734   7.643   1.319   4.111  0.3017  0.2893  0.0481
   47MOL   C24318735   7.561   1.339   3.985 -0.2746 -0.2609 -0.1258
   47MOL   C24418736   7.617   1.335   3.861 -0.4520 -0.3541 -0.3807
   47MOL   C24518737   7.546   1.378   3.742 -0.3027 -0.1285  0.2654
   47MOL   C24618738   7.410   1.420   3.759 -0.6220  0.3775 -0.2884
   47MOL   O24718739   7.337   1.449   3.647 -0.3166  0.1169 -0.7218
   47MOL   C24818740   7.233   1.539   3.657 -0.5153  0.0410  0.2512
   47MOL   C24918741   7.357   1.423   3.889  0.1144  0.3281 -0.3073
   47MOL   C25018742   7.431   1.381   4.003 -0.2988  0.0627 -0.4714
   47MOL   C25118743   7.595   1.181   4.178  0.3381  0.4922 -0.0123
   47MOL   H25218744   7.616   1.399   4.180 -2.0258  0.4708 -1.0115
   47MOL   H25318745   7.723   1.314   3.851 -0.3839  0.8693 -2.5604
   47MOL   H25418746   7.596   1.370   3.647 -0.0271 -1.9297  0.5393
   47MOL   H25518747   7.148   1.478   3.686  0.4007 -1.6176 -0.4739
   47MOL   H25618748   7.254   1.606   3.740  0.3408  1.4271 -1.0616
   47MOL   H25718749   7.208   1.598   3.569 -1.4756  0.0964  0.5543
   47MOL   H25818750   7.263   1.473   3.911 -0.3748 -1.6426  2.2559
   47MOL   H25918751   7.393   1.386   4.104  0.4057 -1.1028 -0.1330
   47MOL   H26018752   7.488   1.186   4.199  0.0862  0.6472 -1.3004
   47MOL   H26118753   7.635   1.169   4.279 -0.5501 -1.6380  0.1140
   47MOL   C26218754   7.617   1.057   4.094  0.1251  0.0364 -0.6033
   47MOL   C26318755   7.499   0.953   4.085 -0.1465  0.4580  0.6468
   47MOL   C26418756   7.436   0.932   3.963 -0.7900  0.4362  0.4706
   47MOL   C26518757   7.334   0.832   3.953 -0.0327 -0.2049  0.3947
   47MOL   C26618758   7.311   0.740   4.063 -0.1476 -0.2297  0.5348
   47MOL   O26718759   7.208   0.645   4.051  0.0715 -0.3923 -0.4242
   47MOL   C26818760   7.135   0.641   3.930 -0.0802 -0.4750  0.5936
   47MOL   C26918761   7.376   0.764   4.188  0.1528 -1.0936 -0.0012
   47MOL   C27018762   7.467   0.873   4.194  0.3096 -0.5836 -0.8503
   47MOL   C27118763   7.756   0.989   4.120 -0.3112 -0.5041  0.0698
   47MOL   H27218764   7.611   1.094   3.991  0.2449 -1.2106 -1.0658
   47MOL   H27318765   7.468   0.989   3.878  1.1309 -1.1905  0.0780
   47MOL   H27418766   7.269   0.824   3.868  0.0142  0.4935  0.2878
   47MOL   H27518767   7.214   0.635   3.855  2.0735 -0.3651  2.7931
   47MOL   H27618768   7.086   0.738   3.919  0.3630 -0.5204 -2.1237
   47MOL   H27718769   7.073   0.554   3.913 -2.3064  1.0595  0.6835
   47MOL   H27818770   7.354   0.696   4.269  2.3650 -4.2769 -1.9741
   47MOL   H27918771   7.510   0.892   4.291  2.0064 -1.6427 -1.3844
   47MOL   H28018772   7.832   1.066   4.103  0.0169 -0.3523  2.1281
   47MOL   H28118773   7.775   0.978   4.227  1.1115  0.2576 -0.0885
   47MOL   C28218774   7.808   0.869   4.034 -0.4146 -0.3177  0.3271
   47MOL   C28318775   7.952   0.833   4.053  0.7234  0.1461 -0.2985
   47MOL   C28418776   0.012   0.931   4.023 -0.0959 -0.4651 -0.5965
   47MOL   C28518777   0.151   0.906   4.042 -0.0651  0.1718  0.7644
   47MOL   C28618778   0.186   0.772   4.076  0.4463  0.3070 -0.4804
   47MOL   O28718779   0.321   0.741   4.091  0.1814  0.2810 -0.2271
   47MOL   C28818780   0.354   0.622   4.156 -0.5577 -0.1502  0.3414
   47MOL   C28918781   0.086   0.682   4.112 -0.6007  0.0358 -0.5113
   47MOL   C29018782   7.990   0.711   4.115  0.3167 -1.0325 -0.0517
   47MOL   C29118783   7.778   0.904   3.885  0.0910 -0.5941  0.0692
   47MOL   H29218784   7.748   0.783   4.065 -1.2388 -1.4762 -4.1191
   47MOL   H29318785   8.016   1.021   3.974  2.1674 -0.1910 -1.8079
   47MOL   H29418786   0.233   0.975   4.029  0.8524 -1.0152  0.1738
   47MOL   H29518787   0.456   0.635   4.192 -0.6219 -2.0876  1.2942
   47MOL   H29618788   0.306   0.605   4.253  0.2049  3.3526  1.3985
   47MOL   H29718789   0.355   0.531   4.097  1.4446 -0.5169  0.9100
   47MOL   H29818790   0.106   0.589   4.164 -3.9095 -0.0694  0.6395
   47MOL   H29918791   7.919   0.638   4.151  0.8848 -1.6494 -0.1815
   47MOL   H30018792   7.669   0.894   3.887 -0.0514  0.8297 -0.0398
   47MOL   H30118793   7.795   1.011   3.870  0.6125 -1.0560 -2.9568
   47MOL   C30218794   7.837   0.820   3.776 -0.1360 -0.6921  0.1972
   47MOL   C30318795   7.811   0.672   3.787  0.1196 -0.2555  0.5264
   47MOL   C30418796   7.910   0.581   3.752 -0.4618  0.0358 -0.2127
   47MOL   C30518797   7.892   0.443   3.763 -0.4180  0.7169 -0.6051
   47MOL   C30618798   7.769   0.392   3.792  0.0761  0.9084 -0.1995
   47MOL   O30718799   7.751   0.254   3.791  0.4324 -0.0796  0.4235
   47MOL   C30818800   7.640   0.186   3.848 -0.1351 -0.8396  0.3539
   47MOL   C30918801   7.660   0.479   3.817  0.3422 -0.1861  0.4807
   47MOL   C31018802   7.683   0.620   3.813 -0.1671  0.4575 -0.7175
   47MOL   C31118803   7.796   0.882   3.643  0.5763  0.4597  0.3593
   47MOL   H31218804   7.944   0.840   3.783  0.2393 -1.8129 -2.0631
   47MOL   H31318805   8.010   0.614   3.729 -1.0217  0.5726 -1.9200
   47MOL   H31418806   7.970   0.369   3.753 -0.3391  0.4260  1.9955
   47MOL   H31518807   7.649   0.208   3.955  0.0540 -1.1901  0.4114
   47MOL   H31618808   7.661   0.079   3.845 -0.3293 -0.8567 -0.4828
   47MOL   H31718809   7.536   0.209   3.823 -0.2806 -0.2266  1.4708
   47MOL   H31818810   7.566   0.428   3.834  1.4387 -1.5200  2.8624
   47MOL   H31918811   7.598   0.686   3.818 -0.3485  0.2479 -1.0072
   47MOL   H32018812   7.723   0.962   3.655  1.0161  0.6011  2.2207
   47MOL   H32118813   7.741   0.807   3.587 -2.9636  0.1848  3.9940
   47MOL   C32218814   7.916   0.939   3.555 -0.3373 -0.0268 -0.5690
   47MOL   C32318815   8.006   1.028   3.630  0.1083 -0.2364 -0.3757
   47MOL   C32418816   0.103   0.997   3.644  0.6495 -0.1263 -0.3034
   47MOL   C32518817   0.181   1.078   3.727  0.3023 -0.2317  0.6154
   47MOL   C32618818   0.133   1.196   3.786 -0.1703  0.5068  0.6865
   47MOL   O32718819   0.209   1.283   3.862 -0.2883  0.6844  0.3007
   47MOL   C32818820   0.348   1.253   3.889  0.2236 -0.2688 -0.7642
   47MOL   C32918821   8.038   1.228   3.764 -0.1835 -0.2711  0.6464
   47MOL   C33018822   7.953   1.142   3.692  0.2592  0.3959  0.0730
   47MOL   C33118823   7.856   1.012   3.433 -0.3304 -0.2723  0.0159
   47MOL   H33218824   7.965   0.846   3.526  1.8306  1.4401 -1.7359
   47MOL   H33318825   0.144   0.907   3.602  0.0220  0.2290 -1.7393
   47MOL   H33418826   0.280   1.038   3.739  0.9025  1.0191 -0.0592
   47MOL   H33518827   0.360   1.181   3.970  0.2552  0.1978 -0.3533
   47MOL   H33618828   0.395   1.350   3.900 -1.4154  0.5504 -0.9242
   47MOL   H33718829   0.393   1.202   3.803  0.4671  1.3921 -1.6420
   47MOL   H33818830   8.011   1.327   3.796  1.8858  0.3175  0.5965
   47MOL   H33918831   7.846   1.159   3.684  0.1332 -1.5761 -3.2795
   47MOL   H34018832   7.796   1.088   3.482  0.8974  1.2832 -0.8387
   47MOL   H34118833   7.933   1.060   3.372  0.8420 -2.2289 -0.0854
   47MOL   C34218834   7.760   0.933   3.339  0.0441  0.0102  0.2413
   47MOL   C34318835   7.851   0.847   3.257 -0.0894  0.3571  0.4338
   47MOL   C34418836   7.919   0.903   3.142 -0.0716 -0.4117  0.1353
   47MOL   C34518837   7.990   0.823   3.047 -0.5314  0.2484  0.4197
   47MOL   C34618838   8.003   0.683   3.075  0.4397  0.9315 -0.2152
   47MOL   O34718839   0.003   0.587   2.986 -0.1500 -0.7808 -0.5086
   47MOL   C34818840   0.022   0.617   2.845 -0.0989  0.9911  0.0438
   47MOL   C34918841   7.952   0.628   3.195  0.4765 -0.0668 -0.8684
   47MOL   C35018842   7.867   0.708   3.276  0.3331 -0.5438 -0.3532
   47MOL   C35118843   7.675   1.025   3.258  0.0290  0.2614 -0.4774
   47MOL   H35218844   7.696   0.866   3.397  0.8320  0.7388  2.0018
   47MOL   H35318845   7.892   1.005   3.122 -0.2170 -0.3561  0.6027
   47MOL   H35418846   8.035   0.852   2.953 -1.0818  0.0806  0.0980
   47MOL   H35518847   0.124   0.586   2.822  0.4684  2.5313  0.3684
   47MOL   H35618848   7.981   0.561   2.798 -1.7888  1.6905  2.0180
   47MOL   H35718849   0.007   0.720   2.813  2.3415  0.8719 -1.5803
   47MOL   H35818850   7.960   0.522   3.214 -2.0456  0.3256  2.9688
   47MOL   H35918851   7.812   0.665   3.358 -1.2976 -0.6140 -1.4650
   47MOL   H36018852   7.736   1.103   3.213  0.4478  0.6324  0.7327
   47MOL   H36118853   7.646   0.967   3.170  0.6033 -0.0522 -0.4627
   47MOL   C36218854   7.560   1.095   3.328 -1.0118 -0.2857  0.7853
   47MOL   C36318855   7.463   0.991   3.388  0.6815 -0.0820  0.0981
   47MOL   C36418856   7.379   0.907   3.313  0.5810 -0.2493  0.4835
   47MOL   C36518857   7.313   0.789   3.364 -0.0655  0.6608 -0.8177
   47MOL   C36618858   7.330   0.758   3.502 -0.1824  0.5756 -0.5980
   47MOL   O36718859   7.277   0.653   3.567 -0.2605  0.2764  0.2210
   47MOL   C36818860   7.190   0.567   3.494  0.2171  0.0701  0.0377
   47MOL   C36918861   7.408   0.842   3.576 -0.1368 -0.0519 -0.1002
   47MOL   C37018862   7.468   0.961   3.521  0.8315  0.1467 -0.1872
   47MOL   C37118863   7.483   1.192   3.226  0.1229 -0.4240  0.3564
   47MOL   H37218864   7.605   1.159   3.403 -0.9437  0.4854  0.0917
   47MOL   H37318865   7.363   0.926   3.208 -1.4675 -1.1796  0.6036
   47MOL   H37418866   7.255   0.733   3.293  1.0003  1.5576 -2.4187
   47MOL   H37518867   7.246   0.497   3.433 -0.9132 -0.4840 -0.3873
   47MOL   H37618868   7.108   0.520   3.548 -0.5532  2.1283  0.7264
   47MOL   H37718869   7.128   0.636   3.436 -0.6763  0.6321  1.6252
   47MOL   H37818870   7.428   0.819   3.680  0.4401 -0.4054 -0.2870
   47MOL   H37918871   7.523   1.026   3.586 -0.3792  0.2212  0.7848
   47MOL   H38018872   7.453   1.118   3.152 -0.8923 -0.9883  1.3156
   47MOL   H38118873   7.389   1.228   3.270  0.4829 -0.3611  1.0832
   47MOL   C38218874   7.558   1.316   3.170  0.2369  0.2217 -0.2185
   47MOL   C38318875   7.580   1.428   3.273  0.1192 -0.3708  0.0099
   47MOL   C38418876   7.467   1.505   3.319 -0.2033 -0.6077 -0.5456
   47MOL   C38518877   7.489   1.612   3.411 -0.1447 -0.6876 -0.3201
   47MOL   C38618878   7.627   1.638   3.450  0.1113 -0.5720 -0.1957
   47MOL   O38718879   7.670   1.725   3.552 -0.5354  0.2240  0.4054
   47MOL   C38818880   7.568   1.774   3.640  0.1161  0.3279 -0.0019
   47MOL   C38918881   7.741   1.565   3.394  0.1629 -0.3143  0.1010
   47MOL   C39018882   7.711   1.456   3.313 -0.1043  0.3990 -0.2078
   47MOL   C39118883   7.466   1.373   3.049  0.6642  0.3135  0.2659
   47MOL   H39218884   7.655   1.299   3.123  1.3209  2.2424  1.2168
   47MOL   H39318885   7.367   1.492   3.279  0.1720 -2.1807 -1.0303
   47MOL   H39418886   7.406   1.675   3.437  0.4493 -0.4442  0.9888
   47MOL   H39518887   7.509   1.697   3.688  0.9158  0.4131  1.1434
   47MOL   H39618888   7.507   1.843   3.583  0.8470  1.0022  0.0106
   47MOL   H39718889   7.606   1.834   3.723  1.4952  2.1412 -1.8614
   47MOL   H39818890   7.844   1.580   3.422 -0.4793 -0.2655  2.5529
   47MOL   H39918891   7.797   1.401   3.275 -0.8384 -1.4907  0.8176
   47MOL   H40018892   7.365   1.410   3.068  0.2364 -0.3539 -0.7088
   47MOL   H40118893   7.459   1.300   2.968  3.1497  1.3680 -0.9667
   47MOL   H40218894   7.523   1.454   3.002  0.8279 -1.4133 -2.6247
   48MOL     C118895   6.159   5.416   0.329 -0.1579  0.2587 -0.0967
   48MOL     C218896   6.096   5.545   0.374  0.0304 -0.5651  0.2262
   48MOL     C318897   6.141   5.669   0.331 -0.0885 -0.6358 -0.6331
   48MOL     C418898   6.075   5.789   0.373 -0.1499  0.3145 -0.0147
   48MOL     C518899   5.979   5.784   0.475  0.0687 -0.1246  0.0993
   48MOL     O618900   5.928   5.892   0.546 -0.3652  0.5094 -0.0995
   48MOL     C718901   5.977   6.016   0.502 -0.4308  0.6733  0.2434
   48MOL     C818902   5.937   5.655   0.522 -0.8205 -0.3357 -0.1675
   48MOL     C918903   5.991   5.539   0.471 -0.9000 -0.0061  0.5524
   48MOL    C1018904   6.097   5.383   0.190 -0.5392  0.3384  0.4458
   48MOL    H1118905   6.145   5.326   0.389  2.1923 -0.4362 -0.5153
   48MOL    H1218906   6.219   5.682   0.258 -0.5781 -0.8745 -1.2085
   48MOL    H1318907   6.118   5.879   0.331  1.9794  0.1201  1.6713
   48MOL    H1418908   5.931   6.095   0.563 -1.3018 -1.3436  2.2584
   48MOL    H1518909   6.082   6.032   0.524 -0.2092  0.5066 -0.6535
   48MOL    H1618910   5.957   6.042   0.398 -0.0283  2.2611  0.5520
   48MOL    H1718911   5.853   5.643   0.589  0.3461 -2.4350  0.9795
   48MOL    H1818912   5.966   5.439   0.502  1.1040  0.5310  4.1723
   48MOL    H1918913   5.988   5.395   0.198 -0.7951 -2.2740  1.3265
   48MOL    H2018914   6.151   5.446   0.120  1.8645 -1.1103  0.9575
   48MOL    H2118915   6.267   5.419   0.320 -0.2100  0.6335 -0.6526
   48MOL    C2218916   6.127   5.237   0.140 -0.0986 -0.5186  0.0486
   48MOL    C2318917   6.060   5.132   0.218  0.3331 -0.3667 -0.0419
   48MOL    C2418918   5.921   5.126   0.228 -0.3869 -0.3746  0.2599
   48MOL    C2518919   5.860   5.007   0.279 -0.2864  0.3660 -0.6306
   48MOL    C2618920   5.934   4.900   0.333  0.0891 -0.6679  0.8172
   48MOL    O2718921   5.869   4.793   0.399 -0.2659  0.1339 -0.2982
   48MOL    C2818922   5.725   4.776   0.402  0.3835 -0.2292  1.0513
   48MOL    C2918923   6.070   4.907   0.327  0.0275 -0.1590 -0.0287
   48MOL    C3018924   6.138   5.026   0.277  0.5687 -0.1298  0.4835
   48MOL    C3118925   6.086   5.225   8.026 -0.1615 -0.3603  0.2281
   48MOL    H3218926   6.232   5.217   0.159 -0.3117 -0.9536  0.7738
   48MOL    H3318927   5.860   5.208   0.194  1.7707  1.5001  0.7630
   48MOL    H3418928   5.753   5.006   0.297  0.1669 -0.8869  2.3504
   48MOL    H3518929   5.680   4.835   0.482 -1.4671 -0.4709  0.2099
   48MOL    H3618930   5.693   4.675   0.423  2.2201 -0.4139  3.2037
   48MOL    H3718931   5.689   4.809   0.305 -0.3833  1.3048  1.8300
   48MOL    H3818932   6.123   4.817   0.354  0.1997 -0.6393 -1.9046
   48MOL    H3918933   6.245   5.022   0.291  0.1611 -2.4329  3.5108
   48MOL    H4018934   5.978   5.240   8.024  0.1159  2.6023  2.6090
   48MOL    H4118935   6.128   5.313   7.976 -0.9684 -0.0349  0.1105
   48MOL    C4218936   6.125   5.088   7.960  0.3370  0.0030  0.2010
   48MOL    C4318937   6.277   5.077   7.952 -0.1783  0.6472 -0.2077
   48MOL    C4418938   6.344   4.981   8.026 -0.3132 -0.2896 -0.0494
   48MOL    C4518939   6.485   4.967   8.014 -0.1553  0.5475  0.2863
   48MOL    C4618940   6.551   5.059   7.934 -0.1072  0.2569  0.2781
   48MOL    O4718941   6.690   5.050   7.916 -0.6368  0.5518  0.2930
   48MOL    C4818942   6.764   4.967   7.997 -0.1770  0.3001 -0.4876
   48MOL    C4918943   6.486   5.159   7.862  0.4836  0.2047 -0.0133
   48MOL    C5018944   6.344   5.165   7.867  0.1521  0.2675 -0.4755
   48MOL    C5118945   6.058   5.062   7.826  0.1713 -0.7429  0.5403
   48MOL    H5218946   6.101   5.003   8.024  0.1777  0.2099  0.4168
   48MOL    H5318947   6.297   4.904   0.046  0.3782 -0.7785 -0.1303
   48MOL    H5418948   6.533   4.896   0.039  0.7168  0.8779  0.0175
   48MOL    H5518949   6.749   4.981   0.064  4.0859  2.6975 -0.0858
   48MOL    H5618950   6.734   4.865   7.971  2.4521 -0.2550 -1.5387
   48MOL    H5718951   6.869   4.992   7.982  0.1472 -0.3643  0.5698
   48MOL    H5818952   6.543   5.227   7.800  1.1762 -1.6776 -1.4886
   48MOL    H5918953   6.289   5.245   7.819 -0.0170  0.1645 -0.4535
   48MOL    H6018954   6.084   5.138   7.752  0.8944 -0.3460  1.1943
   48MOL    H6118955   5.958   5.101   7.841  1.3497  2.9918 -0.8295
   48MOL    C6218956   6.049   4.920   7.774 -0.2235 -0.6210  0.3354
   48MOL    C6318957   5.990   4.830   7.877  0.0851 -0.0615  0.2982
   48MOL    C6418958   5.852   4.822   7.894 -1.1366 -0.2426 -0.3700
   48MOL    C6518959   5.787   4.743   7.987 -0.0778  0.0324 -0.5179
   48MOL    C6618960   5.867   4.661   0.029  0.1676 -0.1097 -0.3278
   48MOL    O6718961   5.797   4.582   0.122  0.6322 -0.2055  0.1286
   48MOL    C6818962   5.875   4.526   0.231 -0.0574  0.3258 -0.5434
   48MOL    C6918963   6.008   4.674   0.018 -0.1721 -0.4016 -0.4805
   48MOL    C7018964   6.072   4.760   7.963  0.0301 -0.2782  0.2527
   48MOL    C7118965   6.184   4.877   7.706  0.2205  1.0490 -0.0856
   48MOL    H7218966   5.973   4.924   7.696 -0.6000 -0.6335  0.6997
   48MOL    H7318967   5.785   4.884   7.837  1.5450 -0.3298 -3.8016
   48MOL    H7418968   5.680   4.736   7.982 -0.0416  0.2807 -1.7689
   48MOL    H7518969   5.948   4.453   0.195 -0.4569 -0.1013 -0.4998
   48MOL    H7618970   5.811   4.477   0.304 -0.1352 -0.6510 -1.2471
   48MOL    H7718971   5.929   4.605   0.283  0.5743 -2.0882  2.5836
   48MOL    H7818972   6.064   4.621   0.094 -1.6707 -1.7636 -0.2935
   48MOL    H7918973   6.180   4.754   7.968  0.1747  2.5030  0.9421
   48MOL    H8018974   6.203   4.959   7.637  2.4926  2.4582  2.1312
   48MOL    H8118975   6.257   4.875   7.787 -2.0501  1.2475  2.0253
   48MOL    C8218976   6.178   4.738   7.637  0.3945 -0.1894  0.0639
   48MOL    C8318977   6.050   4.716   7.549  0.5652 -0.3690  0.2952
   48MOL    C8418978   6.032   4.778   7.420 -0.1547 -0.2959  0.1675
   48MOL    C8518979   5.930   4.750   7.333  0.2315 -0.4670 -0.5991
   48MOL    C8618980   5.819   4.674   7.384  0.4380 -0.2554  0.2085
   48MOL    O8718981   5.694   4.665   7.320  0.8904  0.2266  0.2779
   48MOL    C8818982   5.681   4.739   7.196  0.8634 -0.0431 -0.0911
   48MOL    C8918983   5.828   4.616   7.515 -0.3576  0.4472  0.4441
   48MOL    C9018984   5.941   4.641   7.599  0.2537 -0.2612  0.6260
   48MOL    C9118985   6.303   4.712   7.547 -0.3033 -0.2746  0.0949
   48MOL    H9218986   6.172   4.661   7.715 -0.1529  2.9874  3.2963
   48MOL    H9318987   6.118   4.825   7.376 -0.4589  1.2756  1.2342
   48MOL    H9418988   5.923   4.788   7.233 -1.4390  1.1940  0.1252
   48MOL    H9518989   5.755   4.707   7.122 -0.2823  2.2094 -2.2878
   48MOL    H9618990   5.684   4.847   7.211  0.3821  0.3314 -2.4780
   48MOL    H9718991   5.593   4.699   7.145 -0.5883  1.8784  0.8394
   48MOL    H9818992   5.747   4.553   7.548 -2.2067  1.9252 -1.2252
   48MOL    H9918993   5.947   4.591   7.694  1.8869 -0.4766  0.4135
   48MOL   H10018994   6.280   4.624   7.487  2.0119 -1.6182  1.0964
   48MOL   H10118995   6.312   4.798   7.481 -3.2690 -0.1327 -0.1858
   48MOL   C10218996   6.441   4.710   7.626  0.4123  0.0773 -0.0136
   48MOL   C10318997   6.436   4.579   7.713 -0.6046  0.1814 -0.7440
   48MOL   C10418998   6.416   4.577   7.854  0.6186  0.0138  0.7742
   48MOL   C10518999   6.421   4.455   7.918 -0.3742 -0.2638 -0.0338
   48MOL   C10619000   6.430   4.332   7.849  0.2791 -0.2363  0.7199
   48MOL   O10719001   6.431   4.216   7.924 -0.2945 -0.4865  0.6663
   48MOL   C10819002   6.343   4.115   7.871  0.9290 -0.1493 -0.0652
   48MOL   C10919003   6.432   4.329   7.706 -0.4342 -0.2115  0.1359
   48MOL   C11019004   6.438   4.457   7.640  0.6512  0.3380  0.1333
   48MOL   C11119005   6.566   4.701   7.536 -0.1942 -0.7153 -0.2767
   48MOL   H11219006   6.445   4.796   7.693  2.6065 -0.4563  0.6027
   48MOL   H11319007   6.405   4.672   7.904 -2.6135  0.2725 -0.2913
   48MOL   H11419008   6.416   4.459   8.026  2.1535 -1.2723  0.1543
   48MOL   H11519009   6.387   4.060   7.788  0.8433  0.5324 -0.5666
   48MOL   H11619010   6.306   4.056   7.955 -1.8166  0.8634 -0.5201
   48MOL   H11719011   6.249   4.154   7.832  0.0168 -1.6863  0.5679
   48MOL   H11819012   6.436   4.238   7.648 -0.3775 -0.1475  0.0398
   48MOL   H11919013   6.438   4.453   7.532 -1.4175 -1.9665  0.1835
   48MOL   H12019014   6.650   4.658   7.592 -1.7614 -0.9498  1.9557
   48MOL   H12119015   6.542   4.634   7.454 -2.6336  0.0112 -0.1682
   48MOL   C12219016   6.618   4.833   7.466 -0.0022 -0.2398  0.1159
   48MOL   C12319017   6.717   4.794   7.359 -0.4848 -0.0191  0.2507
   48MOL   C12419018   6.848   4.738   7.390 -0.1246 -0.1267  0.1188
   48MOL   C12519019   6.944   4.716   7.287 -0.4714  0.6314  0.1143
   48MOL   C12619020   6.909   4.742   7.153 -0.2094  0.2593 -0.5845
   48MOL   O12719021   6.990   4.710   7.049  0.0261  0.1498  0.3091
   48MOL   C12819022   7.130   4.673   7.071 -0.2160 -0.4850 -0.0090
   48MOL   C12919023   6.782   4.790   7.126 -0.2206 -0.2335 -0.0693
   48MOL   C13019024   6.682   4.813   7.226 -0.1394 -0.3324  0.7929
   48MOL   C13119025   6.670   4.929   7.574 -0.4986 -0.3140  0.7300
   48MOL   H13219026   6.538   4.884   7.413  1.5575 -1.2570 -3.3276
   48MOL   H13319027   6.877   4.726   7.493  1.7649 -0.5566 -0.4485
   48MOL   H13419028   7.038   4.669   7.311 -0.3400  1.3046  0.9084
   48MOL   H13519029   7.149   4.590   7.140  0.9779  0.9901  1.4728
   48MOL   H13619030   7.179   4.653   6.976 -0.6886 -2.2206  0.0979
   48MOL   H13719031   7.172   4.755   7.129 -0.8424 -0.2954  0.1786
   48MOL   H13819032   6.756   4.795   7.021  2.1986 -0.2584 -0.6906
   48MOL   H13919033   6.587   4.859   7.202 -0.8721 -0.1339  3.9087
   48MOL   H14019034   6.744   4.877   7.635 -1.0219 -1.6059  0.2762
   48MOL   H14119035   6.585   4.948   7.639 -0.5063  2.4832  0.0003
   48MOL   C14219036   6.726   5.052   7.511 -0.4310  0.7473 -0.4333
   48MOL   C14319037   6.626   5.125   7.430 -0.0495 -0.1593  0.5115
   48MOL   C14419038   6.642   5.144   7.290 -0.3767  0.4331  0.3995
   48MOL   C14519039   6.557   5.227   7.218  0.8657 -0.3756  0.1767
   48MOL   C14619040   6.439   5.275   7.279 -0.3958 -0.8549  0.7590
   48MOL   O14719041   6.340   5.352   7.222  0.2615 -0.0292  0.7230
   48MOL   C14819042   6.319   5.346   7.080  0.2472 -0.2370  0.7195
   48MOL   C14919043   6.415   5.248   7.416  0.6163  0.1362 -0.0001
   48MOL   C15019044   6.513   5.180   7.495  0.4034 -0.7377  0.6378
   48MOL   C15119045   6.800   5.136   7.621 -0.1206  0.3426  0.1461
   48MOL   H15219046   6.802   5.014   7.443  0.2799 -0.2140  0.8717
   48MOL   H15319047   6.733   5.117   7.239 -1.3302 -2.5036  0.1844
   48MOL   H15419048   6.577   5.267   7.119  2.3411 -0.9215  0.2445
   48MOL   H15519049   6.221   5.388   7.060  0.3981 -0.1852  0.0662
   48MOL   H15619050   6.387   5.407   7.019  2.5031 -2.6402  0.7364
   48MOL   H15719051   6.313   5.246   7.037  1.6612 -0.1254  0.2108
   48MOL   H15819052   6.319   5.277   7.457  1.2182  1.4178  0.5311
   48MOL   H15919053   6.500   5.157   7.599 -2.1550  0.9493  0.7293
   48MOL   H16019054   6.856   5.071   7.689 -0.4795 -0.2048 -0.0733
   48MOL   H16119055   6.727   5.170   7.694 -0.3022 -1.8300  1.0124
   48MOL   C16219056   6.885   5.252   7.560  0.0281 -0.0379  0.4967
   48MOL   C16319057   6.994   5.218   7.460  0.0842  0.3099 -0.0167
   48MOL   C16419058   7.002   5.281   7.331 -0.0959  0.4895 -0.1645
   48MOL   C16519059   7.088   5.231   7.228  0.3763  0.1507 -0.0873
   48MOL   C16619060   7.172   5.117   7.253  0.7208 -0.2313  0.8836
   48MOL   O16719061   7.255   5.064   7.156  0.1584  0.3859 -0.8717
   48MOL   C16819062   7.283   5.133   7.040  0.8641  0.4271  1.0448
   48MOL   C16919063   7.179   5.063   7.386 -0.4208 -0.7221  0.0994
   48MOL   C17019064   7.083   5.109   7.481  0.8600 -0.4176 -0.4286
   48MOL   C17119065   6.946   5.339   7.679  0.1880 -0.7962  0.2741
   48MOL   H17219066   6.822   5.320   7.502  0.7813  1.2968  1.2325
   48MOL   H17319067   6.941   5.364   7.301 -1.1868  0.2162  1.2405
   48MOL   H17419068   7.082   5.277   7.130 -2.4781 -0.0309 -0.0386
   48MOL   H17519069   7.324   5.231   7.065 -2.0940  2.1659 -0.6185
   48MOL   H17619070   7.196   5.155   6.978  1.1659  2.7780  1.4092
   48MOL   H17719071   7.361   5.081   6.986 -0.3190  0.5442 -0.8145
   48MOL   H17819072   7.242   4.986   7.428 -0.4557 -1.0897 -0.5092
   48MOL   H17919073   7.077   5.062   7.578 -0.7664 -1.0700 -0.8359
   48MOL   H18019074   7.022   5.277   7.726  0.3933 -0.2479  0.6640
   48MOL   H18119075   6.874   5.373   7.753  0.1578 -1.4698  0.5533
   48MOL   C18219076   7.011   5.477   7.647 -0.2192  0.2155  0.6847
   48MOL   C18319077   7.097   5.517   7.765  0.2456 -0.3604  0.5255
   48MOL   C18419078   7.235   5.505   7.754 -0.8116 -0.3885 -0.1502
   48MOL   C18519079   7.320   5.550   7.861 -0.3392  0.0819  0.0642
   48MOL   C18619080   7.261   5.624   7.962  0.4498  0.3273  0.7674
   48MOL   O18719081   7.347   5.655   0.027  0.2319 -0.2704  0.4133
   48MOL   C18819082   7.307   5.762   0.114 -0.4442 -0.1160 -0.3136
   48MOL   C18919083   7.121   5.642   7.964 -0.6568 -0.8010  0.0574
   48MOL   C19019084   7.035   5.578   7.873  0.3291 -0.3295  0.3935
   48MOL   C19119085   6.910   5.585   7.597 -0.7681  0.0802  0.0522
   48MOL   H19219086   7.081   5.465   7.564  1.2193 -2.5565  2.2294
   48MOL   H19319087   7.270   5.453   7.665 -3.4376 -0.3891 -1.2338
   48MOL   H19419088   7.425   5.526   7.868  0.0613  1.9263  0.5949
   48MOL   H19519089   7.273   5.841   0.048  0.2509 -0.3010 -0.8897
   48MOL   H19619090   7.399   5.785   0.167 -0.1954 -2.5037  0.3768
   48MOL   H19719091   7.236   5.725   0.188  0.8299 -0.8917  0.5305
   48MOL   H19819092   7.074   5.691   0.008 -1.1826 -3.6206  1.4955
   48MOL   H19919093   6.927   5.586   7.880  0.3306  1.0472 -0.9362
   48MOL   H20019094   6.866   5.540   7.508 -0.3434 -0.8790  0.3125
   48MOL   H20119095   6.824   5.591   7.665 -0.3008 -0.4843  0.6959
   48MOL   C20219096   6.975   5.722   7.562  0.5477 -0.1368 -0.1164
   48MOL   C20319097   6.989   5.816   7.680  1.0693 -0.2544 -0.2490
   48MOL   C20419098   7.113   5.863   7.725 -0.2248 -0.3499  0.7149
   48MOL   C20519099   7.105   5.948   7.842 -0.6160 -0.5609 -0.1542
   48MOL   C20619100   6.989   5.999   7.898  0.1765  0.4104 -0.2725
   48MOL   O20719101   6.987   6.086   8.009 -0.2113  0.0325 -0.3210
   48MOL   C20819102   7.110   6.153   0.010  0.0780  0.2404  0.1241
   48MOL   C20919103   6.867   5.953   7.843  0.7174  0.2022  0.5570
   48MOL   C21019104   6.865   5.859   7.740 -0.8522  0.6883  0.4759
   48MOL   C21119105   6.892   5.786   7.450  0.0045 -0.3030  0.2665
   48MOL   H21219106   7.071   5.692   7.521  0.3614 -0.8436 -0.0300
   48MOL   H21319107   7.211   5.829   7.694  0.8125  1.6079  1.7783
   48MOL   H21419108   7.191   5.979   7.900  0.2258 -0.8505 -1.2279
   48MOL   H21519109   7.169   6.079   0.064 -1.0296 -1.2626 -0.6992
   48MOL   H21619110   7.157   6.206   7.967  0.9709 -0.8531 -0.0826
   48MOL   H21719111   7.075   6.225   0.083 -0.9814  0.4880 -0.6217
   48MOL   H21819112   6.771   5.979   7.885  0.1980  2.4449 -1.9554
   48MOL   H21919113   6.767   5.826   7.710 -1.2917  3.0508 -0.7696
   48MOL   H22019114   6.808   5.844   7.488  0.7265  0.4849  0.6839
   48MOL   H22119115   6.844   5.713   7.385  2.2151  0.2117 -2.0101
   48MOL   C22219116   6.980   5.877   7.354  0.4982  0.3309  0.5998
   48MOL   C22319117   7.060   5.793   7.256  0.4336  0.2616  0.4141
   48MOL   C22419118   6.998   5.704   7.166  0.1764 -0.2312  0.7291
   48MOL   C22519119   7.076   5.637   7.074  0.0889  0.2474  0.5967
   48MOL   C22619120   7.217   5.650   7.074 -0.5341 -0.1775  0.3647
   48MOL   O22719121   7.300   5.588   6.972  0.0697 -0.0583  0.6052
   48MOL   C22819122   7.233   5.508   6.875 -0.1234 -0.4752  0.0077
   48MOL   C22919123   7.278   5.733   7.168  0.0257 -0.2470  0.4213
   48MOL   C23019124   7.202   5.808   7.257  0.6947  0.1128  0.1002
   48MOL   C23119125   6.899   5.997   7.289  0.6823  0.3577 -0.2982
   48MOL   H23219126   7.047   5.923   7.426  3.1804 -0.0905 -1.5506
   48MOL   H23319127   6.892   5.683   7.172  0.5060 -2.6955 -1.0524
   48MOL   H23419128   7.026   5.577   7.000 -0.4315 -0.9280  1.8613
   48MOL   H23519129   7.168   5.438   6.929 -2.3600  1.0611 -0.5936
   48MOL   H23619130   7.168   5.571   6.813 -0.2736 -0.6423 -0.0060
   48MOL   H23719131   7.305   5.458   6.810 -0.6262  0.1824 -1.0821
   48MOL   H23819132   7.385   5.743   7.163 -0.0577  0.4357  0.0121
   48MOL   H23919133   7.251   5.869   7.332 -0.5198  1.0864  0.1108
   48MOL   H24019134   6.967   6.027   7.210  2.2883 -1.0865  0.5127
   48MOL   H24119135   6.809   5.949   7.250  0.2652 -2.0364  3.3999
   48MOL   C24219136   6.862   6.117   7.378  0.4761  0.6033  0.0647
   48MOL   C24319137   6.979   6.193   7.432 -0.4234 -0.5089  0.6319
   48MOL   C24419138   7.078   6.242   7.348  0.0475 -0.2139 -0.3130
   48MOL   C24519139   7.185   6.323   7.399 -0.0354 -0.2588 -0.2214
   48MOL   C24619140   7.201   6.343   7.540  0.2246 -0.4483  0.1888
   48MOL   O24719141   7.309   6.417   7.580 -0.5880 -0.4642  0.5116
   48MOL   C24819142   7.294   6.509   7.691 -0.0899  0.7055 -0.0342
   48MOL   C24919143   7.101   6.296   7.625  0.1073 -0.0951 -0.2354
   48MOL   C25019144   6.994   6.217   7.572 -0.9534 -0.0751 -0.1726
   48MOL   C25119145   6.755   6.213   7.323 -0.3950  0.2831  0.1707
   48MOL   H25219146   6.815   6.067   7.463 -1.0045  2.1419  0.1638
   48MOL   H25319147   7.080   6.220   7.242 -1.1998  0.5012 -0.4947
   48MOL   H25419148   7.272   6.357   7.344 -0.4744 -0.7834 -1.2361
   48MOL   H25519149   7.292   6.447   7.781 -0.4068  0.0797 -0.4697
   48MOL   H25619150   7.383   6.571   7.696  0.4570 -0.0730 -0.0346
   48MOL   H25719151   7.200   6.565   7.698 -0.0119  0.9754 -1.0990
   48MOL   H25819152   7.097   6.326   7.729  0.3553  0.7619 -0.4676
   48MOL   H25919153   6.917   6.183   7.639  1.7215 -2.4984  1.7829
   48MOL   H26019154   6.692   6.164   7.249 -1.4683  2.2201 -0.2130
   48MOL   H26119155   6.808   6.297   7.280  2.0306 -1.5766 -0.6106
   48MOL   C26219156   6.661   6.267   7.428 -0.0099  0.0526 -0.5671
   48MOL   C26319157   6.588   6.155   7.499 -0.3540  0.1726  0.1768
   48MOL   C26419158   6.503   6.067   7.437  0.3316 -0.4450 -0.1255
   48MOL   C26519159   6.440   5.960   7.507 -0.2776  0.3415 -0.2198
   48MOL   C26619160   6.465   5.949   7.644  0.2421  0.2370 -0.5101
   48MOL   O26719161   6.417   5.844   7.708  0.4367 -0.2535  0.0143
   48MOL   C26819162   6.298   5.784   7.659  0.4659  0.0031  0.2511
   48MOL   C26919163   6.544   6.044   7.714  0.0449  0.3032  0.4651
   48MOL   C27019164   6.602   6.147   7.644 -0.1268 -0.6887 -0.3407
   48MOL   C27119165   6.562   6.374   7.365 -0.1461  0.4111 -0.1651
   48MOL   H27219166   6.728   6.314   7.499 -0.7073  1.6702 -0.9416
   48MOL   H27319167   6.492   6.074   7.330 -0.2586  2.2087  0.0552
   48MOL   H27419168   6.383   5.889   7.449  2.6046 -2.3628  0.1605
   48MOL   H27519169   6.216   5.855   7.653  0.2200 -0.1627  1.3935
   48MOL   H27619170   6.263   5.706   7.727  1.6667 -1.6370 -0.9582
   48MOL   H27719171   6.308   5.729   7.566  1.9706 -1.8552  1.4699
   48MOL   H27819172   6.563   6.038   7.820 -0.4747  0.9502  0.5970
   48MOL   H27919173   6.668   6.213   7.698  1.9014 -1.6117 -1.6235
   48MOL   H28019174   6.500   6.332   7.285 -0.7327 -0.2862  0.6505
   48MOL   H28119175   6.492   6.391   7.447 -0.1528 -1.3865  0.2342
   48MOL   C28219176   6.631   6.505   7.314 -0.5670  0.0268  0.1443
   48MOL   C28319177   6.708   6.565   7.432 -0.1324 -0.7694  0.1850
   48MOL   C28419178   6.640   6.604   7.550  0.0441  0.5322  0.4242
   48MOL   C28519179   6.712   6.637   7.666 -0.0734 -0.4188 -0.3963
   48MOL   C28619180   6.857   6.643   7.661  1.2210  0.0761  0.3703
   48MOL   O28719181   6.941   6.682   7.760 -0.0370 -0.3165 -0.3248
   48MOL   C28819182   6.915   6.644   7.888  0.2639 -0.7991 -0.4921
   48MOL   C28919183   6.920   6.613   7.538  0.4925  0.4616  0.2839
   48MOL   C29019184   6.848   6.568   7.424  0.6323 -0.2614 -0.0710
   48MOL   C29119185   6.513   6.596   7.255  0.7563  0.0107 -0.2739
   48MOL   H29219186   6.694   6.477   7.230 -0.6512 -2.8881  1.0120
   48MOL   H29319187   6.532   6.605   7.548  0.0433  0.1730  0.3920
   48MOL   H29419188   6.657   6.651   7.757 -0.8271 -0.5195 -0.8299
   48MOL   H29519189   6.861   6.549   7.883  0.5340 -0.8297 -3.4783
   48MOL   H29619190   7.012   6.636   7.937  0.2728  2.1221  0.0229
   48MOL   H29719191   6.853   6.721   7.934 -0.1275 -1.8330  0.7504
   48MOL   H29819192   7.028   6.609   7.533  0.4167 -0.8926 -0.5778
   48MOL   H29919193   6.907   6.529   7.342  1.3954  0.4092  0.1556
   48MOL   H30019194   6.431   6.536   7.216  0.2962  0.9549 -0.7871
   48MOL   H30119195   6.461   6.637   7.342 -0.0146 -0.1607 -0.6502
   48MOL   C30219196   6.552   6.696   7.144  0.4919 -0.8909  1.1835
   48MOL   C30319197   6.429   6.758   7.075  0.4299  0.8745  0.3593
   48MOL   C30419198   6.317   6.810   7.145  0.9309  0.5886 -0.8470
   48MOL   C30519199   6.213   6.883   7.087  0.2331 -0.3170 -0.1687
   48MOL   C30619200   6.202   6.873   6.944 -0.0546 -0.0588 -0.4318
   48MOL   O30719201   6.110   6.936   6.869 -0.8163  0.0625 -0.0668
   48MOL   C30819202   6.013   7.015   6.932 -0.7600  0.3956  0.0267
   48MOL   C30919203   6.304   6.814   6.871 -0.0037  1.0584  0.2923
   48MOL   C31019204   6.419   6.758   6.936 -0.2766 -0.0346  0.1771
   48MOL   C31119205   6.659   6.797   7.183  0.2038  0.6193  0.0057
   48MOL   H31219206   6.600   6.641   7.063 -0.9890  2.0011 -1.7689
   48MOL   H31319207   6.321   6.807   7.253 -4.3502  0.8451 -0.4966
   48MOL   H31419208   6.133   6.934   7.138  2.7203  2.0049  1.5107
   48MOL   H31519209   6.057   7.096   6.991 -0.4256  0.2522 -0.0212
   48MOL   H31619210   5.942   6.960   6.994 -1.8861  1.0601 -0.6724
   48MOL   H31719211   5.959   7.076   6.860  0.9500 -0.8525 -2.3889
   48MOL   H31819212   6.304   6.805   6.763 -1.0077 -0.2941  0.3875
   48MOL   H31919213   6.499   6.730   6.868 -0.3220 -0.8715  0.4615
   48MOL   H32019214   6.705   6.844   7.097  2.2762 -0.3675  0.5614
   48MOL   H32119215   6.742   6.750   7.236  1.5953  1.3818 -1.4607
   48MOL   C32219216   6.616   6.929   7.267  1.7004  0.1199 -0.7619
   48MOL   C32319217   6.698   7.054   7.229  0.0243  0.1800 -0.5984
   48MOL   C32419218   6.642   7.165   7.151  0.1786 -0.2390  0.0367
   48MOL   C32519219   6.720   7.281   7.133  0.3789 -0.1586  0.3114
   48MOL   C32619220   6.848   7.295   7.183 -0.0990  0.5885  0.0949
   48MOL   O32719221   6.937   7.403   7.167 -0.7022 -0.1083 -0.1749
   48MOL   C32819222   6.885   7.537   7.170 -0.4738  0.8135 -0.2025
   48MOL   C32919223   6.909   7.183   7.243  0.2608  0.2629  0.3386
   48MOL   C33019224   6.835   7.067   7.274 -0.3819  0.5842 -0.5517
   48MOL   C33119225   6.603   6.906   7.415  0.3582 -0.8860 -0.0561
   48MOL   H33219226   6.517   6.957   7.232  0.9628 -1.1280  0.2830
   48MOL   H33319227   6.543   7.162   7.107  0.9659 -3.5561 -1.6439
   48MOL   H33419228   6.672   7.360   7.079 -3.1748 -1.1638  1.8164
   48MOL   H33519229   6.946   7.609   7.116 -0.2242  1.0366  0.3731
   48MOL   H33619230   6.870   7.568   7.273  1.5418 -1.2484  0.7448
   48MOL   H33719231   6.783   7.535   7.131 -2.0129 -3.8417  3.5819
   48MOL   H33819232   7.011   7.191   7.278 -0.7126  2.0771  2.9481
   48MOL   H33919233   6.880   6.988   7.331 -1.8679 -0.2235 -0.4802
   48MOL   H34019234   6.525   6.832   7.435  2.2450 -2.9020  0.0428
   48MOL   H34119235   6.693   6.854   7.447  0.9410  0.0323 -0.2151
   48MOL   C34219236   6.584   7.032   7.505  0.1870 -0.1482  0.4361
   48MOL   C34319237   6.608   6.991   7.654 -0.7529  0.0948 -0.1146
   48MOL   C34419238   6.716   7.026   7.733  0.9371  0.4281  0.3015
   48MOL   C34519239   6.717   6.987   7.868  0.1680 -0.6565 -0.5611
   48MOL   C34619240   6.606   6.921   7.929 -0.1539  0.3970  0.0279
   48MOL   O34719241   6.609   6.876   0.019 -0.2793 -0.7130 -0.2189
   48MOL   C34819242   6.715   6.935   0.099 -0.2442 -0.4605 -0.3785
   48MOL   C34919243   6.504   6.870   7.843 -0.8218  0.3071 -1.1342
   48MOL   C35019244   6.508   6.903   7.704  1.1548  0.2695 -0.5441
   48MOL   C35119245   6.440   7.089   7.483  0.1359  0.7173 -0.1706
   48MOL   H35219246   6.661   7.104   7.478  0.1339  0.0231  0.7528
   48MOL   H35319247   6.802   7.080   7.695  0.2475  2.5185  1.6220
   48MOL   H35419248   6.811   7.010   7.915  0.6636  0.9047 -2.2683
   48MOL   H35519249   6.706   6.882   0.194 -4.2991 -2.4010 -1.7191
   48MOL   H35619250   6.818   6.915   0.069  0.5824  1.6589  0.9573
   48MOL   H35719251   6.696   7.040   0.120  0.7695  0.4026 -3.5603
   48MOL   H35819252   6.418   6.818   7.884 -0.2212 -2.0665 -2.7578
   48MOL   H35919253   6.425   6.869   7.643  2.4518  1.1063 -2.8270
   48MOL   H36019254   6.431   7.113   7.377 -0.1156  0.2808 -0.2491
   48MOL   H36119255   6.364   7.013   7.498  0.2653  0.8538  1.2187
   48MOL   C36219256   6.402   7.203   7.573 -0.0638 -0.1158  0.7772
   48MOL   C36319257   6.258   7.229   7.556  0.0586 -0.4966  0.1861
   48MOL   C36419258   6.205   7.273   7.431  0.0494 -0.5370  0.0269
   48MOL   C36519259   6.069   7.284   7.408  0.5384  0.2071 -0.5145
   48MOL   C36619260   5.977   7.273   7.515  0.7416  0.1481 -0.1760
   48MOL   O36719261   5.839   7.264   7.509 -0.2472 -0.4451  0.5207
   48MOL   C36819262   5.771   7.330   7.396  0.7128 -0.2170 -0.1439
   48MOL   C36919263   6.032   7.243   7.644 -0.0884  0.1844 -0.4411
   48MOL   C37019264   6.168   7.222   7.664  0.7440 -0.3276 -0.1428
   48MOL   C37119265   6.486   7.332   7.560 -0.1403 -0.0207  0.0662
   48MOL   H37219266   6.427   7.174   7.675  2.8959  1.9577  0.7190
   48MOL   H37319267   6.271   7.278   7.346  1.8556 -1.8044  1.3021
   48MOL   H37419268   6.035   7.290   7.305 -1.7301 -0.2755  0.1741
   48MOL   H37519269   5.781   7.438   7.398 -0.1183 -0.1240 -0.8606
   48MOL   H37619270   5.796   7.298   7.295 -2.1146  2.3079 -1.7472
   48MOL   H37719271   5.666   7.300   7.399  1.2447 -2.3034 -1.6240
   48MOL   H37819272   5.968   7.230   7.731  0.7399  0.1115  0.1588
   48MOL   H37919273   6.201   7.202   7.765 -1.8199  0.3166  0.8509
   48MOL   H38019274   6.587   7.301   7.534 -0.7092 -1.1167 -0.8462
   48MOL   H38119275   6.459   7.387   7.470 -0.9772  0.9984  0.9164
   48MOL   C38219276   6.475   7.427   7.684  0.0183  0.9853  0.8428
   48MOL   C38319277   6.480   7.574   7.650 -0.3641  0.2047 -0.5013
   48MOL   C38419278   6.356   7.644   7.644  0.1351 -0.2840  0.7894
   48MOL   C38519279   6.356   7.781   7.611  0.2947 -1.1485  0.1849
   48MOL   C38619280   6.479   7.843   7.575  0.1389 -0.2880  0.3242
   48MOL   O38719281   6.465   7.975   7.537 -0.0392  0.5986 -0.4915
   48MOL   C38819282   6.577   8.032   7.475 -0.5371  0.2409 -0.7156
   48MOL   C38919283   6.602   7.775   7.580 -0.3064 -0.0374  0.0827
   48MOL   C39019284   6.603   7.636   7.618 -0.6447 -0.8777  0.0977
   48MOL   C39119285   6.571   7.388   7.791 -0.3960 -0.5552  0.0755
   48MOL   H39219286   6.375   7.418   7.726  0.0050  3.1854  1.3121
   48MOL   H39319287   6.258   7.601   7.662 -0.4634 -0.1681 -1.8762
   48MOL   H39419288   6.261   7.833   7.609 -0.7598 -3.0438 -0.5033
   48MOL   H39519289   6.544   0.085   7.429  0.0500  1.3948  1.1441
   48MOL   H39619290   6.611   7.968   7.394 -2.1542 -0.5929 -0.7458
   48MOL   H39719291   6.663   0.019   7.536 -0.7244 -0.9616  0.0927
   48MOL   H39819292   6.693   7.819   7.542  0.4229 -0.6830  1.0262
   48MOL   H39919293   6.698   7.585   7.621  0.6844  1.5669  1.1658
   48MOL   H40019294   6.556   7.283   7.817 -0.5251 -0.4624  0.3830
   48MOL   H40119295   6.557   7.450   7.879 -1.5531 -1.0610  0.2625
   48MOL   H40219296   6.676   7.395   7.764 -0.6395 -0.8281 -0.9872
   49MOL     C119297   2.648   6.919   7.794  0.0424 -1.0674 -0.2833
   49MOL     C219298   2.769   6.829   7.842  0.7637 -0.4282 -0.3635
   49MOL     C319299   2.825   6.859   7.969 -0.4333 -0.5371 -0.4094
   49MOL     C419300   2.932   6.773   8.014 -0.0335  0.4108 -0.1293
   49MOL     C519301   2.988   6.671   7.933 -0.0894 -0.1651 -0.4796
   49MOL     O619302   3.096   6.591   7.967  0.2578 -0.2156 -0.2885
   49MOL     C719303   3.167   6.627   0.049 -0.2412 -0.4788 -0.3048
   49MOL     C819304   2.922   6.645   7.806 -0.2893 -0.6415  0.2460
   49MOL     C919305   2.815   6.722   7.767 -0.2731  0.2458 -0.0135
   49MOL    C1019306   2.693   7.065   7.758  0.7760  0.7783  0.3245
   49MOL    H1119307   2.567   6.920   7.867 -2.1170 -0.7392 -2.6071
   49MOL    H1219308   2.796   6.944   8.029  0.3237 -0.4754 -0.1147
   49MOL    H1319309   2.967   6.791   0.075 -2.1573  0.0702  0.7136
   49MOL    H1419310   3.185   6.734   0.060  2.0560 -0.5249 -2.9260
   49MOL    H1519311   3.124   6.595   0.144 -1.4103  2.1430  0.0838
   49MOL    H1619312   3.265   6.581   0.058  2.3554  4.4619 -1.1877
   49MOL    H1719313   2.959   6.568   7.740  0.8154  2.2241 -2.6311
   49MOL    H1819314   2.777   6.706   7.667  0.5893  0.9519 -0.4518
   49MOL    H1919315   2.751   7.106   7.842  1.6508  1.6625 -0.6972
   49MOL    H2019316   2.758   7.066   7.671 -1.2100  1.4366 -1.1629
   49MOL    H2119317   2.607   6.882   7.700  2.3258  1.1142 -2.2261
   49MOL    C2219318   2.582   7.168   7.728 -0.5817 -0.0407 -0.1545
   49MOL    C2319319   2.458   7.151   7.818 -0.6435  0.4988 -0.0954
   49MOL    C2419320   2.482   7.159   7.958 -0.1124 -0.6439 -0.3692
   49MOL    C2519321   2.375   7.152   0.011 -0.3930 -0.3318 -0.4708
   49MOL    C2619322   2.245   7.164   7.999  0.5683 -0.1188 -0.1924
   49MOL    O2719323   2.145   7.187   0.049 -0.2200 -0.0440  0.8660
   49MOL    C2819324   2.032   7.253   8.038  0.5236  0.3933 -0.1347
   49MOL    C2919325   2.225   7.160   7.857  0.2326  0.5625  0.2818
   49MOL    C3019326   2.332   7.152   7.768  0.1202 -0.1318 -0.0674
   49MOL    C3119327   2.635   7.316   7.728  0.0288  0.1837  0.2883
   49MOL    H3219328   2.540   7.135   7.633 -1.3514 -0.9810  0.5132
   49MOL    H3319329   2.584   7.174   7.992 -0.7751  0.0364  1.3887
   49MOL    H3419330   2.403   7.161   0.115  0.7537  0.7289 -0.8585
   49MOL    H3519331   2.054   7.344   7.983  1.3646 -0.7649 -1.7407
   49MOL    H3619332   1.971   7.294   0.078  1.5190  0.5736  0.5404
   49MOL    H3719333   1.981   7.190   7.965  2.4430  1.5379 -2.5457
   49MOL    H3819334   2.127   7.174   7.814  0.5857  3.0639  0.2053
   49MOL    H3919335   2.324   7.143   7.660 -1.2842 -2.4348  0.2005
   49MOL    H4019336   2.657   7.356   7.827  0.4275  3.5832 -1.0792
   49MOL    H4119337   2.725   7.317   7.666  1.0026  1.1316  1.7110
   49MOL    C4219338   2.535   7.403   7.648 -0.8408 -0.1989  0.0653
   49MOL    C4319339   2.507   7.356   7.511 -0.5535 -0.5784 -0.1550
   49MOL    C4419340   2.610   7.303   7.434  0.4510 -0.0920 -0.0221
   49MOL    C4519341   2.590   7.265   7.304 -0.1897 -0.2000  0.2082
   49MOL    C4619342   2.465   7.275   7.239  0.1981  0.9842 -0.8807
   49MOL    O4719343   2.437   7.235   7.110 -0.0296 -0.4587 -0.2750
   49MOL    C4819344   2.506   7.121   7.060  0.5672 -0.6661 -0.5770
   49MOL    C4919345   2.363   7.325   7.318 -0.4293  0.1683 -0.2745
   49MOL    C5019346   2.378   7.368   7.450 -0.3789 -0.3937 -0.0788
   49MOL    C5119347   2.572   7.547   7.647  0.1721 -0.4860  0.0650
   49MOL    H5219348   2.434   7.388   7.687 -0.9238  1.1304  0.3966
   49MOL    H5319349   2.709   7.298   7.476 -0.2110 -1.5119  1.4026
   49MOL    H5419350   2.679   7.225   7.258  1.5362  0.3944  2.9029
   49MOL    H5519351   2.444   7.068   6.987 -0.2687  3.0340 -2.6963
   49MOL    H5619352   2.595   7.144   7.002  1.2895 -2.0622 -0.0430
   49MOL    H5719353   2.541   7.047   7.132 -0.3656 -0.8099 -0.2685
   49MOL    H5819354   2.263   7.336   7.279 -0.8004  1.5834  1.0094
   49MOL    H5919355   2.297   7.414   7.505 -0.4194  0.6146 -0.9768
   49MOL    H6019356   2.506   7.599   7.577  1.0267  1.2315  0.5136
   49MOL    H6119357   2.673   7.562   7.607  0.4880  1.3931  1.4739
   49MOL    C6219358   2.554   7.624   7.781 -0.1735  0.4211  0.0100
   49MOL    C6319359   2.427   7.594   7.864 -0.2712 -0.1668 -0.2703
   49MOL    C6419360   2.439   7.523   7.985  0.3505  0.7129 -0.0014
   49MOL    C6519361   2.321   7.494   0.024 -0.0815  0.4362  0.2735
   49MOL    C6619362   2.201   7.553   8.031  0.2528  0.3800 -0.2360
   49MOL    O6719363   2.106   7.548   0.086  0.3300  0.1411  0.2222
   49MOL    C6819364   1.995   7.628   0.068 -0.1861 -1.3386  0.8416
   49MOL    C6919365   2.194   7.631   7.918  0.4505 -0.1045  0.1085
   49MOL    C7019366   2.300   7.649   7.829 -0.3304 -0.2144  0.8775
   49MOL    C7119367   2.586   7.774   7.770 -0.7617  0.3020 -0.3221
   49MOL    H7219368   2.638   7.589   7.841  1.1497  2.8204 -0.3574
   49MOL    H7319369   2.530   7.472   8.014 -1.3715 -2.5978 -0.1349
   49MOL    H7419370   2.328   7.432   0.112  0.1799  0.0230 -0.0375
   49MOL    H7519371   1.928   7.607   0.152 -0.8686 -0.7214  0.4588
   49MOL    H7619372   1.940   7.594   8.019  0.5584  0.9038 -0.5070
   49MOL    H7719373   2.008   7.736   0.066  1.7271 -1.5744 -0.6496
   49MOL    H7819374   2.103   7.687   7.897  2.8016  3.8829  0.0189
   49MOL    H7919375   2.296   7.724   7.752 -0.0974 -0.2371  0.8434
   49MOL    H8019376   2.682   7.774   7.718 -0.7161 -2.4303 -0.3098
   49MOL    H8119377   2.511   7.822   7.708  0.7384  1.0809 -1.5657
   49MOL    C8219378   2.593   7.849   7.902 -0.3163  0.4126 -0.4331
   49MOL    C8319379   2.707   7.803   7.989  0.4613  0.4933  0.3519
   49MOL    C8419380   2.842   7.807   7.952  0.0077 -0.3774 -0.2492
   49MOL    C8519381   2.946   7.763   8.038 -0.1597 -0.0728 -0.1044
   49MOL    C8619382   2.915   7.710   0.122  0.7355 -0.5463  0.3936
   49MOL    O8719383   3.017   7.665   0.200  0.1582  0.4697  0.3833
   49MOL    C8819384   3.015   7.691   0.344 -0.4348 -0.1337 -0.2515
   49MOL    C8919385   2.774   7.700   0.161 -0.1524 -0.0418  0.6051
   49MOL    C9019386   2.674   7.749   0.075 -0.1328  0.0614  0.0354
   49MOL    C9119387   2.583   7.997   7.892 -0.9283 -0.5624 -0.1955
   49MOL    H9219388   2.500   7.822   7.953 -0.0596  0.3573  0.0035
   49MOL    H9319389   2.868   7.858   7.861 -1.2309  1.9853  0.6766
   49MOL    H9419390   3.050   7.768   8.010 -0.1898  0.4873 -0.1255
   49MOL    H9519391   3.112   7.666   0.387 -0.4949 -2.7893 -1.5676
   49MOL    H9619392   2.927   7.637   0.379 -0.3847 -0.1065 -0.0805
   49MOL    H9719393   2.994   7.798   0.354 -1.6147 -0.6326  3.5635
   49MOL    H9819394   2.748   7.658   0.257 -0.6887 -0.8228  0.1228
   49MOL    H9919395   2.569   7.743   0.102 -0.2034 -0.0328 -0.2565
   49MOL   H10019396   2.680   8.020   7.847 -0.0992 -1.6478  0.9954
   49MOL   H10119397   2.507   0.004   7.831 -0.2249 -0.0001 -0.6513
   49MOL   C10219398   2.560   0.029   8.031 -0.1280  0.4486  0.2746
   49MOL   C10319399   2.585   0.182   8.027 -0.5945  0.0029  0.0786
   49MOL   C10419400   2.528   0.259   7.920 -0.5458  0.2576 -0.1814
   49MOL   C10519401   2.541   0.401   7.917  0.0869 -0.1924  0.0829
   49MOL   C10619402   2.633   0.466   8.006  0.0218  0.0797 -1.1023
   49MOL   O10719403   2.670   0.600   8.004  0.2081  0.5845  1.1651
   49MOL   C10819404   2.593   0.674   7.918  0.1953  0.4749  0.1139
   49MOL   C10919405   2.693   0.385   0.065  0.6379 -0.1278 -0.2457
   49MOL   C11019406   2.667   0.244   0.079 -0.2429  0.5782 -0.6793
   49MOL   C11119407   2.419   0.002   0.055  0.0719 -0.3773  0.4433
   49MOL   H11219408   2.635   8.030   0.059  0.3907  0.2525 -0.4000
   49MOL   H11319409   2.475   0.204   7.844  0.9323  1.6537 -2.3057
   49MOL   H11419410   2.489   0.451   7.836 -0.1167 -0.1656  0.2332
   49MOL   H11519411   2.485   0.663   7.934  0.5565 -0.4095  2.1414
   49MOL   H11619412   2.622   0.778   7.935 -0.9985  0.3171  3.6445
   49MOL   H11719413   2.615   0.650   7.814 -0.7352  0.3955 -0.0690
   49MOL   H11819414   2.746   0.432   0.147  2.2475 -1.0283 -0.7689
   49MOL   H11919415   2.689   0.184   0.166  3.2542  0.4756 -1.5545
   49MOL   H12019416   2.351   0.070   0.005  1.4111  0.8648  0.2698
   49MOL   H12119417   2.383   7.941   0.039  1.3330 -0.4688 -2.0836
   49MOL   C12219418   2.412   0.037   0.203 -0.8574  0.3043 -0.2761
   49MOL   C12319419   2.477   7.975   0.294  0.4249 -0.0027 -0.0877
   49MOL   C12419420   2.603   8.000   0.351  0.0831  1.6230 -0.3911
   49MOL   C12519421   2.659   7.906   0.439  0.4410 -0.1293 -0.2844
   49MOL   C12619422   2.593   7.779   0.463 -0.1463  0.0854  0.3515
   49MOL   O12719423   2.668   7.684   0.527  0.1718 -0.0294  0.8079
   49MOL   C12819424   2.609   7.552   0.549  0.4048  0.1840 -0.6675
   49MOL   C12919425   2.461   7.764   0.420 -0.6736 -0.0223 -0.1914
   49MOL   C13019426   2.407   7.853   0.335 -0.0579 -0.0369  0.1213
   49MOL   C13119427   2.270   0.074   0.250  0.1819  0.9870 -0.7273
   49MOL   H13219428   2.460   0.132   0.223 -3.0521  1.1828  0.9526
   49MOL   H13319429   2.673   0.036   0.319  0.8092  0.6867 -1.0735
   49MOL   H13419430   2.763   7.922   0.462  0.7629 -1.2880 -0.8465
   49MOL   H13519431   2.695   7.488   0.569  0.8169  0.6917 -0.7934
   49MOL   H13619432   2.537   7.547   0.630  0.5958 -1.5465 -0.5880
   49MOL   H13719433   2.569   7.501   0.462  3.3790 -0.5699 -1.6563
   49MOL   H13819434   2.407   7.672   0.436  0.2923 -0.2819  1.6566
   49MOL   H13919435   2.307   7.840   0.298  0.8178  0.6510 -2.5952
   49MOL   H14019436   2.194   8.038   0.235  0.4164  0.3042  1.2598
   49MOL   H14119437   2.230   0.150   0.184 -1.7624  2.6055  2.1877
   49MOL   C14219438   2.269   0.126   0.396 -0.2074  0.2903  0.1623
   49MOL   C14319439   2.349   0.250   0.412  0.4493 -0.2391 -0.0918
   49MOL   C14419440   2.470   0.246   0.480  0.4763  0.0751 -0.1723
   49MOL   C14519441   2.546   0.364   0.495  0.1329  0.3193 -0.0600
   49MOL   C14619442   2.511   0.485   0.433  0.7658 -0.0598 -0.8591
   49MOL   O14719443   2.589   0.597   0.428 -0.3531 -0.3978 -0.2048
   49MOL   C14819444   2.727   0.583   0.464  0.5967  0.0645  0.2740
   49MOL   C14919445   2.385   0.490   0.363 -0.0718 -0.3010  0.3874
   49MOL   C15019446   2.311   0.371   0.347 -0.6756 -0.1646  0.0820
   49MOL   C15119447   2.128   0.140   0.443 -0.6057 -0.1645 -0.0728
   49MOL   H15219448   2.306   0.046   0.460 -0.7748  1.2844  1.7603
   49MOL   H15319449   2.505   0.158   0.532 -1.2551 -0.6124 -0.1465
   49MOL   H15419450   2.637   0.364   0.554  0.8565  1.1602 -1.1584
   49MOL   H15519451   2.767   0.683   0.479 -1.3390  0.7994  0.5668
   49MOL   H15619452   2.735   0.536   0.562 -0.3340  0.8948  0.7580
   49MOL   H15719453   2.783   0.533   0.384 -0.8522  0.7752 -1.2172
   49MOL   H15819454   2.357   0.579   0.308  1.4043 -0.3006 -0.3929
   49MOL   H15919455   2.219   0.365   0.290  0.4774 -1.8588 -1.6971
   49MOL   H16019456   2.068   0.051   0.427  0.4004 -0.7790 -0.5009
   49MOL   H16119457   2.079   0.207   0.373  0.0416 -1.0382 -1.3927
   49MOL   C16219458   2.122   0.171   0.597  0.1237 -0.4842  0.0696
   49MOL   C16319459   2.235   0.108   0.685  0.4254  0.5151  0.1729
   49MOL   C16419460   2.320   0.181   0.767 -0.2421  0.1787 -0.0291
   49MOL   C16519461   2.416   0.116   0.849  0.2434  0.0623  0.5396
   49MOL   C16619462   2.432   8.014   0.854  0.8489  0.0085  0.2532
   49MOL   O16719463   2.528   7.953   0.932  0.2435 -0.3473  0.4428
   49MOL   C16819464   2.568   7.823   0.885 -0.3006 -0.0799 -0.6338
   49MOL   C16919465   2.334   7.939   0.785  0.4933 -0.1225 -0.0573
   49MOL   C17019466   2.237   8.007   0.703 -0.9090  0.1391 -0.5971
   49MOL   C17119467   1.980   0.149   0.656  0.1001 -0.3959  0.0813
   49MOL   H17219468   2.139   0.278   0.586 -1.1773 -0.3337 -0.6218
   49MOL   H17319469   2.322   0.289   0.768 -0.5031  0.1852 -0.1598
   49MOL   H17419470   2.476   0.172   0.919  0.4807  0.3254  0.1281
   49MOL   H17519471   2.570   7.829   0.776 -0.9706  0.8520 -0.6038
   49MOL   H17619472   2.507   7.736   0.909  0.4235  0.3136  3.0584
   49MOL   H17719473   2.672   7.807   0.914  0.2963  2.8662 -1.0429
   49MOL   H17819474   2.325   7.831   0.787 -0.3781 -0.0343  1.4393
   49MOL   H17919475   2.161   7.942   0.662  0.8603 -1.5849 -1.2070
   49MOL   H18019476   1.946   0.052   0.620  3.0373 -1.0705 -1.0428
   49MOL   H18119477   1.908   0.221   0.618  0.2423 -0.8241 -0.9940
   49MOL   C18219478   1.968   0.144   0.810 -0.8224  0.4950 -0.3828
   49MOL   C18319479   1.839   0.078   0.846 -0.7689 -0.7266 -0.1432
   49MOL   C18419480   1.842   7.985   0.903  0.8189  0.0020  0.6138
   49MOL   C18519481   1.722   7.925   0.943 -0.4228 -0.0247  0.0543
   49MOL   C18619482   1.601   7.996   0.937  0.1151  0.6503 -1.0467
   49MOL   O18719483   1.484   7.944   0.984  0.0209 -0.2922 -0.2965
   49MOL   C18819484   1.474   7.809   0.975  0.5880  0.2930 -0.4964
   49MOL   C18919485   1.598   0.084   0.889 -0.8367 -0.8632 -0.2839
   49MOL   C19019486   1.714   0.149   0.847 -0.4471 -0.7781  0.2112
   49MOL   C19119487   1.993   0.274   0.890  0.7195 -0.2445  0.1990
   49MOL   H19219488   2.039   0.070   0.850 -2.6236 -1.1279 -0.1132
   49MOL   H19319489   1.936   7.932   0.911  0.6979 -0.6164 -1.6082
   49MOL   H19419490   1.718   7.823   0.980 -1.1142 -0.3907 -1.0108
   49MOL   H19519491   1.526   7.763   1.059  0.9720 -2.8741 -2.3940
   49MOL   H19619492   1.507   7.765   0.881 -1.2114 -0.5881 -0.7551
   49MOL   H19719493   1.367   7.789   0.989  0.8405 -0.1097  0.8613
   49MOL   H19819494   1.508   0.145   0.884  0.3476  1.1186  1.4242
   49MOL   H19919495   1.710   0.250   0.808  1.4332 -0.7535  0.0426
   49MOL   H20019496   2.077   0.332   0.851  0.1875  0.4897  0.1408
   49MOL   H20119497   1.914   0.347   0.869  0.0882 -0.5168  1.6172
   49MOL   C20219498   2.011   0.257   1.044 -0.1434  0.4341 -0.0599
   49MOL   C20319499   1.954   0.376   1.118 -0.2098 -0.0589  0.5887
   49MOL   C20419500   1.994   0.508   1.085 -0.4050 -0.0765  0.4495
   49MOL   C20519501   1.936   0.617   1.155  0.7090  0.4675  0.2721
   49MOL   C20619502   1.834   0.597   1.253 -0.0117 -1.3587  0.1576
   49MOL   O20719503   1.776   0.698   1.318  0.0402  0.9386 -0.4802
   49MOL   C20819504   1.649   0.673   1.366  0.2278 -0.3320  0.3058
   49MOL   C20919505   1.806   0.466   1.285 -0.2289 -0.5062  0.5523
   49MOL   C21019506   1.858   0.350   1.219 -0.1021  0.0212 -0.1644
   49MOL   C21119507   2.154   0.227   1.086  0.5151  0.4022 -0.5877
   49MOL   H21219508   1.959   0.169   1.080  0.0053  0.1880 -0.4467
   49MOL   H21319509   2.069   0.517   1.008 -0.1314  1.2956  0.8523
   49MOL   H21419510   1.964   0.720   1.140  1.0842  0.1558 -1.1475
   49MOL   H21519511   1.596   0.613   1.291  2.2540  0.3138 -1.6969
   49MOL   H21619512   1.639   0.617   1.459 -0.9982  0.8149  0.8807
   49MOL   H21719513   1.604   0.771   1.378 -1.3651 -0.9610 -0.4036
   49MOL   H21819514   1.732   0.436   1.358 -2.0135 -0.6259 -1.2480
   49MOL   H21919515   1.816   0.251   1.226 -0.9022  0.1978 -2.0800
   49MOL   H22019516   2.215   0.318   1.086  3.0984 -1.2291  1.5204
   49MOL   H22119517   2.199   0.160   1.014 -1.0744  1.2156 -2.3719
   49MOL   C22219518   2.178   0.148   1.227  0.8362 -0.3635 -0.3616
   49MOL   C22319519   2.120   0.004   1.203  0.7301 -0.1932  0.1259
   49MOL   C22419520   1.992   8.022   1.257 -0.0589  0.1224  0.6449
   49MOL   C22519521   1.937   7.895   1.242  0.0243 -0.5399  0.2910
   49MOL   C22619522   2.009   7.789   1.187  0.4384 -0.6349 -0.6154
   49MOL   O22719523   1.955   7.669   1.175  0.3529 -0.0872  0.1008
   49MOL   C22819524   1.822   7.634   1.210 -0.3388 -0.7719 -0.2026
   49MOL   C22919525   2.135   7.813   1.130  0.0400 -0.6148  0.1379
   49MOL   C23019526   2.186   7.949   1.133 -1.1737  0.1010  0.3635
   49MOL   C23119527   2.327   0.138   1.267 -0.1214 -0.6785 -0.5923
   49MOL   H23219528   2.127   0.190   1.314  1.3551  1.5034 -0.9405
   49MOL   H23319529   1.936   0.060   1.308  0.8710 -0.9163  3.3443
   49MOL   H23419530   1.836   7.886   1.281  0.1253  1.6819  1.1513
   49MOL   H23519531   1.822   7.525   1.205  0.5528 -0.7316 -1.1348
   49MOL   H23619532   1.798   7.673   1.309 -2.7125 -0.0131 -1.0559
   49MOL   H23719533   1.743   7.679   1.150  1.7193  1.5391 -1.2687
   49MOL   H23819534   2.190   7.728   1.093 -4.0827 -2.6771 -1.6014
   49MOL   H23919535   2.284   7.962   1.090 -0.7127  0.6108  1.5288
   49MOL   H24019536   2.337   0.082   1.360 -1.2929 -0.1156 -0.1219
   49MOL   H24119537   2.385   0.073   1.202 -1.6466 -3.3695  0.5961
   49MOL   C24219538   2.381   0.277   1.290  0.5030  0.6712  0.4787
   49MOL   C24319539   2.303   0.358   1.404 -0.4382  0.4762  0.0816
   49MOL   C24419540   2.295   0.309   1.537  0.2952  0.2617  0.2306
   49MOL   C24519541   2.215   0.383   1.630  0.2169 -0.0953 -0.3189
   49MOL   C24619542   2.138   0.491   1.583 -0.3610 -0.6429  0.5291
   49MOL   O24719543   2.054   0.556   1.676 -1.2036 -0.1932  0.7500
   49MOL   C24819544   1.950   0.638   1.619  0.5372  0.4226  0.2953
   49MOL   C24919545   2.151   0.534   1.451 -0.1298  0.3491 -0.1744
   49MOL   C25019546   2.231   0.471   1.361  0.0537  0.3944 -0.1912
   49MOL   C25119547   2.535   0.265   1.333 -0.3052  0.7958 -0.1054
   49MOL   H25219548   2.382   0.330   1.194 -1.1614 -1.7398 -0.9037
   49MOL   H25319549   2.343   0.216   1.563  2.2497 -0.0631 -4.1212
   49MOL   H25419550   2.212   0.360   1.736 -1.7586  0.3499 -0.2666
   49MOL   H25519551   1.986   0.738   1.598  2.2343 -0.3769 -0.6322
   49MOL   H25619552   1.901   0.600   1.529 -0.0765  2.1391 -0.1073
   49MOL   H25719553   1.882   0.638   1.705 -1.0600  0.3175 -0.9447
   49MOL   H25819554   2.096   0.617   1.410 -1.2976  0.1013  0.8537
   49MOL   H25919555   2.245   0.502   1.259  1.4488 -0.8130 -0.3901
   49MOL   H26019556   2.575   0.191   1.263  1.6829  3.7495 -2.2258
   49MOL   H26119557   2.540   0.235   1.437 -1.7342  2.4256  0.4636
   49MOL   C26219558   2.612   0.407   1.322  0.0206  0.2497  0.0333
   49MOL   C26319559   2.601   0.457   1.181 -0.6853  0.2850  0.2675
   49MOL   C26419560   2.675   0.402   1.079  0.1109 -0.0857 -0.4922
   49MOL   C26519561   2.653   0.436   0.945  0.5077  0.2403 -0.6521
   49MOL   C26619562   2.572   0.540   0.906  0.6875 -0.0378 -0.1352
   49MOL   O26719563   2.566   0.566   0.774 -0.5513  0.2536 -0.0784
   49MOL   C26819564   2.453   0.645   0.732 -0.3202 -0.6332 -0.8750
   49MOL   C26919565   2.502   0.606   1.010 -0.1759 -0.2055 -0.2432
   49MOL   C27019566   2.521   0.563   1.143 -0.2964  0.2087 -0.6040
   49MOL   C27119567   2.755   0.410   1.366  0.4598 -0.1784 -0.8128
   49MOL   H27219568   2.558   0.478   1.384  1.4248 -1.7007  3.6690
   49MOL   H27319569   2.750   0.326   1.097  1.1550  0.3644 -2.7153
   49MOL   H27419570   2.724   0.394   0.875  1.6103  0.7223  0.1674
   49MOL   H27519571   2.466   0.751   0.754  2.2606 -0.8877 -0.9591
   49MOL   H27619572   2.360   0.614   0.779  0.8553 -1.7961  0.7709
   49MOL   H27719573   2.438   0.640   0.624  0.8350 -0.4515 -1.0512
   49MOL   H27819574   2.446   0.695   0.985  1.8767  1.6308  1.4300
   49MOL   H27919575   2.473   0.617   1.223  0.1744 -0.5757  0.2161
   49MOL   H28019576   2.803   0.326   1.316 -0.1305  0.5372 -2.6239
   49MOL   H28119577   2.799   0.505   1.336  2.0667 -0.5364  0.3545
   49MOL   C28219578   2.781   0.403   1.521 -0.5527  0.5113  0.0960
   49MOL   C28319579   2.699   0.504   1.600  0.0843  0.1125  0.3554
   49MOL   C28419580   2.736   0.637   1.626  0.2431  0.5701  0.0260
   49MOL   C28519581   2.660   0.722   1.710  0.1363  0.7106  0.7665
   49MOL   C28619582   2.533   0.677   1.751 -0.1387 -0.2126 -0.3987
   49MOL   O28719583   2.455   0.765   1.824  0.2426 -0.7909  0.5782
   49MOL   C28819584   2.314   0.742   1.821  0.1405 -0.7335 -0.0242
   49MOL   C28919585   2.498   0.537   1.732  0.2126  0.2007  0.4557
   49MOL   C29019586   2.581   0.451   1.660 -0.1289 -0.1470 -0.2940
   49MOL   C29119587   2.935   0.402   1.556 -0.1669  0.0067 -0.0302
   49MOL   H29219588   2.753   0.309   1.569 -0.2585  0.1224 -0.4970
   49MOL   H29319589   2.834   0.666   1.591  1.4328 -1.5036  1.5315
   49MOL   H29419590   2.696   0.822   1.731  1.6063  0.4890 -0.5619
   49MOL   H29519591   2.279   0.678   1.901  0.5241  0.1036  0.8301
   49MOL   H29619592   2.260   0.837   1.824 -0.7706 -1.2670  0.8172
   49MOL   H29719593   2.293   0.693   1.726  1.0796 -0.6775 -0.2625
   49MOL   H29819594   2.415   0.486   1.778 -0.0418 -1.0005 -1.2858
   49MOL   H29919595   2.547   0.349   1.658 -0.9540  0.1341 -1.0818
   49MOL   H30019596   2.985   0.321   1.502 -0.4391 -0.1990  0.0257
   49MOL   H30119597   2.980   0.497   1.527  0.3188  0.7184  2.8830
   49MOL   C30219598   2.955   0.377   1.707  0.0871 -0.0328  0.3786
   49MOL   C30319599   2.899   0.245   1.756  0.4593  0.0189  0.1637
   49MOL   C30419600   2.780   0.240   1.834 -0.2890 -0.7577  0.1034
   49MOL   C30519601   2.735   0.119   1.889 -0.5129  0.0899 -0.3683
   49MOL   C30619602   2.799   8.039   1.851 -0.2380 -0.2879 -0.0661
   49MOL   O30719603   2.746   7.917   1.903  0.0009  0.1367 -0.5281
   49MOL   C30819604   2.792   7.794   1.852  0.2619 -0.2611  0.0730
   49MOL   C30919605   2.914   0.002   1.769  0.9836 -0.1630  0.2502
   49MOL   C31019606   2.962   0.122   1.714 -0.0162 -0.1736  0.3884
   49MOL   C31119607   3.101   0.391   1.753  0.1676 -0.3143  0.0544
   49MOL   H31219608   2.898   0.450   1.765  1.0257  0.9812  0.0227
   49MOL   H31319609   2.725   0.328   1.864  0.8405 -0.1412  0.3860
   49MOL   H31419610   2.637   0.114   1.935  0.3395  1.4492  1.6447
   49MOL   H31519611   2.726   7.713   1.881 -0.0869 -0.4115 -1.0933
   49MOL   H31619612   2.889   7.775   1.898  0.2113  1.1465  0.7836
   49MOL   H31719613   2.789   7.788   1.743  3.2077  0.9988 -0.1130
   49MOL   H31819614   2.967   7.950   1.746  1.1777  0.2234 -0.8862
   49MOL   H31919615   3.042   0.126   1.641 -0.5262 -0.8473 -0.2066
   49MOL   H32019616   3.184   0.364   1.686 -2.4447  1.3776 -4.0478
   49MOL   H32119617   3.119   0.320   1.833 -0.7530  0.2566  0.7633
   49MOL   C32219618   3.137   0.526   1.823  0.8042  0.2827 -0.0978
   49MOL   C32319619   3.105   0.643   1.736  0.1315 -0.1446  0.5875
   49MOL   C32419620   3.173   0.655   1.613 -0.1479 -0.2146  0.0765
   49MOL   C32519621   3.152   0.764   1.529  0.1498 -0.0876  0.1548
   49MOL   C32619622   3.064   0.869   1.568 -0.4568  0.0170 -0.2941
   49MOL   O32719623   3.046   0.968   1.472 -0.1402  0.1064  0.1576
   49MOL   C32819624   2.933   1.055   1.486 -0.1545 -0.2998 -0.2304
   49MOL   C32919625   2.996   0.862   1.688  1.1861 -0.1666 -0.2037
   49MOL   C33019626   3.024   0.755   1.775  0.5021 -0.4016 -0.2970
   49MOL   C33119627   3.285   0.518   1.862  0.0511  0.2253 -0.0219
   49MOL   H33219628   3.078   0.544   1.913 -0.1303 -0.7710 -0.4898
   49MOL   H33319629   3.229   0.572   1.572 -2.6326 -2.2410  0.6305
   49MOL   H33419630   3.191   0.765   1.428 -1.3684  0.5517 -0.4436
   49MOL   H33519631   2.958   1.135   1.556 -2.4300  2.1578 -2.1424
   49MOL   H33619632   2.844   0.999   1.516 -0.6432  0.1065 -0.8976
   49MOL   H33719633   2.921   1.113   1.395  0.3866  1.3841  0.7406
   49MOL   H33819634   2.929   0.941   1.717 -0.0917 -1.4277  0.3596
   49MOL   H33919635   2.974   0.743   1.870  0.8494 -1.3464 -0.2190
   49MOL   H34019636   3.309   0.435   1.928 -0.2836  0.8397  0.8676
   49MOL   H34119637   3.340   0.501   1.769 -1.2419  1.1277 -0.9660
   49MOL   C34219638   3.348   0.645   1.937 -0.1970  0.0692 -0.1461
   49MOL   C34319639   3.494   0.619   1.965  0.0941 -0.0419  0.5041
   49MOL   C34419640   3.533   0.527   2.063 -0.2357  0.2832  0.6542
   49MOL   C34519641   3.664   0.518   2.101  0.1493  0.1412  0.1638
   49MOL   C34619642   3.767   0.595   2.046 -0.0692  0.2339 -0.2721
   49MOL   O34719643   3.893   0.578   2.094 -0.0717  0.3840  0.4104
   49MOL   C34819644   3.946   0.698   2.138  0.3089  1.2099  0.4539
   49MOL   C34919645   3.732   0.683   1.939 -0.0420 -0.1833 -0.1036
   49MOL   C35019646   3.597   0.687   1.896  0.2977 -0.1733  0.0111
   49MOL   C35119647   3.275   0.683   2.069  0.2953  0.6782  0.2704
   49MOL   H35219648   3.341   0.731   1.871 -0.6978 -0.8963 -1.3741
   49MOL   H35319649   3.457   0.466   2.109  1.9804 -2.1202  1.2034
   49MOL   H35419650   3.697   0.440   2.169 -1.4768  0.8022  1.7648
   49MOL   H35519651   3.875   0.768   2.182 -0.9359  1.1957 -1.4869
   49MOL   H35619652   4.022   0.680   2.214 -0.5404 -0.1600  0.9996
   49MOL   H35719653   3.992   0.743   2.050  0.4714  0.7134  0.2843
   49MOL   H35819654   3.806   0.747   1.893  0.6046 -1.3555 -0.7007
   49MOL   H35919655   3.568   0.758   1.820 -1.5113 -2.8965 -1.9318
   49MOL   H36019656   3.175   0.645   2.050  1.5705 -3.2855  1.1566
   49MOL   H36119657   3.307   0.627   2.156  2.1649 -1.8525 -1.9745
   49MOL   C36219658   3.263   0.837   2.097  0.2589 -0.5162 -0.2672
   49MOL   C36319659   3.401   0.899   2.096  0.4407 -0.0294 -0.2350
   49MOL   C36419660   3.438   0.999   2.003  0.4832  0.6333 -0.0400
   49MOL   C36519661   3.576   1.052   2.005  0.7558  0.2084 -0.7067
   49MOL   C36619662   3.666   1.007   2.111  0.4496 -0.2079  0.4684
   49MOL   O36719663   3.796   1.046   2.116 -0.3972 -0.2460 -0.4138
   49MOL   C36819664   3.848   1.135   2.020 -0.5015 -0.1578 -0.1467
   49MOL   C36919665   3.624   0.907   2.197 -0.4600  0.2528 -0.3986
   49MOL   C37019666   3.494   0.855   2.196 -0.4363 -0.0414  0.2077
   49MOL   C37119667   3.187   0.865   2.230 -0.6519 -0.0177 -0.3267
   49MOL   H37219668   3.218   0.882   2.009  1.2771 -0.5560 -0.8180
   49MOL   H37319669   3.366   1.047   1.940 -0.9891 -0.3836  0.8384
   49MOL   H37419670   3.607   1.125   1.932  0.2969 -0.3236 -1.4390
   49MOL   H37519671   3.785   1.222   2.002  0.5942  0.5643 -0.5253
   49MOL   H37619672   3.950   1.163   2.048  0.0800 -1.4672 -0.8800
   49MOL   H37719673   3.864   1.073   1.932  0.1729 -0.8484  0.4555
   49MOL   H37819674   3.694   0.866   2.269 -1.9211  0.2770  1.0489
   49MOL   H37919675   3.460   0.778   2.264  0.2078 -1.7526 -1.3567
   49MOL   H38019676   3.225   0.806   2.314 -2.3163  0.4613  0.7897
   49MOL   H38119677   3.192   0.968   2.263  0.3793 -0.6281  1.5099
   49MOL   C38219678   3.035   0.828   2.231  0.6125 -0.6058  0.2274
   49MOL   C38319679   2.949   0.921   2.142  0.2477  0.4695  0.5628
   49MOL   C38419680   2.823   0.877   2.096  0.0005 -0.8235 -0.0714
   49MOL   C38519681   2.746   0.946   1.995  0.4072  1.0308  0.1098
   49MOL   C38619682   2.789   1.070   1.951  0.4218 -0.1021 -0.2817
   49MOL   O38719683   2.723   1.149   1.866 -0.4696 -0.5118  0.1605
   49MOL   C38819684   2.582   1.142   1.867  0.5464  0.1550 -0.2849
   49MOL   C38919685   2.919   1.117   1.985  0.2896 -0.1285  0.1049
   49MOL   C39019686   2.998   1.038   2.080  0.5025 -0.1883 -0.6926
   49MOL   C39119687   2.988   0.836   2.377 -0.0901  0.6168 -0.3070
   49MOL   H39219688   3.017   0.725   2.199 -0.2359  0.5164 -3.0836
   49MOL   H39319689   2.778   0.782   2.121 -1.5742 -0.0054  0.2396
   49MOL   H39419690   2.654   0.898   1.965 -0.6284  2.8557  0.3120
   49MOL   H39519691   2.543   1.124   1.967 -1.0587  0.1546 -0.8906
   49MOL   H39619692   2.555   1.055   1.807 -2.2030  0.0714  0.9978
   49MOL   H39719693   2.530   1.227   1.822  0.4812 -0.1146 -0.7238
   49MOL   H39819694   2.958   1.214   1.957  0.7438 -0.5157 -0.6356
   49MOL   H39919695   3.095   1.076   2.109  0.0811 -1.5500  2.7896
   49MOL   H40019696   2.971   0.942   2.393  0.9982  0.8063 -0.3843
   49MOL   H40119697   3.063   0.807   2.450 -0.4505  1.8816  0.5743
   49MOL   H40219698   2.890   0.789   2.386  0.5265 -0.6929 -0.2643
   50MOL     C119699   0.087   3.389   4.250 -0.1605  0.1070  0.6493
   50MOL     C219700   8.014   3.391   4.152 -0.6802  0.4282 -0.4596
   50MOL     C319701   7.967   3.519   4.106  0.1089  0.5640  0.6875
   50MOL     C419702   7.854   3.529   4.030 -0.4843 -0.1085 -0.7250
   50MOL     C519703   7.793   3.414   3.981  0.7395 -0.3701 -0.2592
   50MOL     O619704   7.671   3.422   3.911 -0.1132  0.3758  0.5525
   50MOL     C719705   7.616   3.547   3.894 -0.0116  0.1479  0.2296
   50MOL     C819706   7.843   3.286   4.016 -0.2325 -0.9617 -0.0656
   50MOL     C919707   7.952   3.273   4.111 -0.4404 -0.4644  0.2523
   50MOL    C1019708   0.062   3.456   4.384  0.2850 -0.3646 -0.1491
   50MOL    H1119709   0.163   3.451   4.203  0.5320 -1.4507 -0.3040
   50MOL    H1219710   8.008   3.615   4.133  1.1466  0.6524 -1.0870
   50MOL    H1319711   7.830   3.626   3.988 -0.6201 -0.1775 -0.8086
   50MOL    H1419712   7.581   3.579   3.992  0.1737  0.0238  0.3366
   50MOL    H1519713   7.693   3.613   3.855  0.9903 -0.8929  0.4359
   50MOL    H1619714   7.536   3.536   3.821  1.8068 -0.5287 -1.7087
   50MOL    H1719715   7.788   3.201   3.980 -1.2686  0.4003 -1.8173
   50MOL    H1819716   7.969   3.175   4.154 -0.6479 -0.1607  1.0197
   50MOL    H1919717   0.163   3.473   4.421  0.3851 -1.9123  0.3336
   50MOL    H2019718   0.016   3.552   4.363  0.2289 -0.2803  0.3600
   50MOL    H2119719   0.129   3.290   4.269  0.4940  0.3165  0.2537
   50MOL    C2219720   8.028   3.373   4.482 -0.5837 -0.2311  0.4008
   50MOL    C2319721   8.019   3.460   4.610  0.8921 -0.4524  0.6580
   50MOL    C2419722   7.902   3.538   4.634  0.4718 -0.3522 -0.0612
   50MOL    C2519723   7.894   3.605   4.760  0.0929 -0.0180 -0.3200
   50MOL    C2619724   7.991   3.593   4.860 -0.6327 -0.5009 -0.5893
   50MOL    O2719725   7.961   3.656   4.978  0.4857 -0.2072  0.2466
   50MOL    C2819726   0.008   3.645   5.096 -0.4137 -0.6412 -0.2764
   50MOL    C2919727   0.059   3.497   4.835 -0.3586 -0.1812  0.2701
   50MOL    C3019728   0.074   3.445   4.705 -0.4946  0.2940 -0.4442
   50MOL    C3119729   7.892   3.316   4.443 -0.3929 -0.2612  0.0894
   50MOL    H3219730   0.058   3.295   4.511  3.4089  2.0885 -2.3468
   50MOL    H3319731   7.819   3.543   4.564 -2.2752 -0.1107  3.0851
   50MOL    H3419732   7.808   3.668   4.777  0.5497  1.0926 -2.0175
   50MOL    H3519733   0.026   3.543   5.130  0.3225 -0.9683 -1.6069
   50MOL    H3619734   7.999   3.686   5.184  0.1771  1.0568 -0.7237
   50MOL    H3719735   0.089   3.718   5.093 -0.9596 -0.0594 -0.8210
   50MOL    H3819736   0.137   3.467   4.903 -0.1800 -0.5657 -0.1056
   50MOL    H3919737   0.160   3.384   4.684 -0.2152 -0.3136  2.1960
   50MOL    H4019738   7.838   3.398   4.395  1.8401  0.9956 -0.3370
   50MOL    H4119739   7.911   3.239   4.369  0.1635  2.4721 -2.7106
   50MOL    C4219740   7.802   3.255   4.555 -1.2822  0.0275  0.0734
   50MOL    C4319741   7.868   3.123   4.605  0.6324  0.4492  0.4150
   50MOL    C4419742   7.936   3.124   4.726 -0.2808 -0.1137  0.2072
   50MOL    C4519743   8.014   3.013   4.770 -0.3617  0.1986 -0.2528
   50MOL    C4619744   8.030   2.900   4.685 -0.2573 -0.3293  0.0761
   50MOL    O4719745   0.070   2.800   4.721 -0.1395  0.1634  0.1852
   50MOL    C4819746   0.122   2.714   4.621 -0.1978 -0.2453 -0.6292
   50MOL    C4919747   7.951   2.891   4.562  0.3308 -0.3421  0.0251
   50MOL    C5019748   7.872   3.004   4.527 -0.0315  0.4676 -0.2574
   50MOL    C5119749   7.669   3.211   4.495 -0.7708 -0.1796 -0.0784
   50MOL    H5219750   7.792   3.322   4.640 -1.8759  2.4894 -1.8479
   50MOL    H5319751   7.919   3.211   4.787  1.8597 -0.1719  0.9135
   50MOL    H5419752   0.013   3.005   4.870 -0.3411  0.2243 -0.2589
   50MOL    H5519753   0.200   2.645   4.654  0.1349  0.4767  0.1228
   50MOL    H5619754   0.043   2.659   4.571 -1.7155  1.1295  0.1777
   50MOL    H5719755   0.182   2.767   4.547  0.9859  2.4884  2.1452
   50MOL    H5819756   7.961   2.808   4.494  0.1062  0.3486 -0.8556
   50MOL    H5919757   7.828   2.994   4.430  0.6420 -1.4383 -0.3979
   50MOL    H6019758   7.613   3.130   4.541  1.2553 -1.5559  0.0320
   50MOL    H6119759   7.696   3.174   4.396 -2.9860  0.5339 -0.9858
   50MOL    C6219760   7.573   3.333   4.473 -0.2397 -0.3932 -0.0374
   50MOL    C6319761   7.547   3.425   4.593 -0.1079  0.1649  0.6297
   50MOL    C6419762   7.538   3.379   4.725  0.8430  0.3136  0.3467
   50MOL    C6519763   7.498   3.464   4.827 -0.1378  0.0323  0.1340
   50MOL    C6619764   7.479   3.601   4.804  0.3065  0.9333 -0.3204
   50MOL    O6719765   7.435   3.678   4.911 -0.3021 -0.0837  0.2268
   50MOL    C6819766   7.393   3.807   4.884 -0.0056  0.4725  0.6866
   50MOL    C6919767   7.508   3.651   4.673 -0.2756  0.0885 -0.3777
   50MOL    C7019768   7.531   3.565   4.565 -0.2732 -0.0127 -1.0311
   50MOL    C7119769   7.435   3.284   4.421 -0.9111 -0.2239  0.3211
   50MOL    H7219770   7.613   3.393   4.391 -0.7358 -1.9182 -1.4290
   50MOL    H7319771   7.555   3.276   4.752 -0.1827  0.7985  2.9241
   50MOL    H7419772   7.482   3.421   4.925  0.9251 -0.1202  0.2454
   50MOL    H7519773   7.369   3.852   4.980  1.7604 -1.1602  1.9317
   50MOL    H7619774   7.302   3.804   4.823  0.2312  0.2360  0.3430
   50MOL    H7719775   7.469   3.876   4.847 -0.0134  0.1989  0.1543
   50MOL    H7819776   7.487   3.753   4.646 -1.0099 -0.0399 -0.3030
   50MOL    H7919777   7.536   3.600   4.463 -1.4693  0.7967 -0.8238
   50MOL    H8019778   7.400   3.210   4.493  2.6325 -0.4206  1.9346
   50MOL    H8119779   7.359   3.363   4.419 -1.6598 -0.9290  0.5441
   50MOL    C8219780   7.438   3.210   4.282  0.1602 -0.3903  0.3303
   50MOL    C8319781   7.498   3.068   4.268 -0.5681  0.1938 -0.3709
   50MOL    C8419782   7.577   3.034   4.158  0.4518 -0.0351  0.0579
   50MOL    C8519783   7.638   2.910   4.141  0.2360  0.5418  0.1359
   50MOL    C8619784   7.623   2.817   4.246 -0.3011 -0.7833  0.6048
   50MOL    O8719785   7.679   2.695   4.224 -0.0643  0.4751 -0.3676
   50MOL    C8819786   7.766   2.650   4.327  0.3374 -0.4926  0.4198
   50MOL    C8919787   7.556   2.851   4.368 -0.0941 -0.9094  0.1778
   50MOL    C9019788   7.487   2.977   4.374 -0.3044  0.1301  0.0404
   50MOL    C9119789   7.299   3.222   4.218 -0.2357  0.1497  0.2809
   50MOL    H9219790   7.502   3.270   4.217  1.2271 -1.6846  0.1711
   50MOL    H9319791   7.582   3.102   4.075  0.5173 -1.2419 -0.9408
   50MOL    H9419792   7.690   2.886   4.050  3.3234 -2.6912  2.5782
   50MOL    H9519793   7.858   2.708   4.324 -0.3562  0.5484 -3.0505
   50MOL    H9619794   7.802   2.550   4.303  2.4418  0.2083  0.6081
   50MOL    H9719795   7.712   2.648   4.421  0.9183  0.1629  0.7664
   50MOL    H9819796   7.541   2.771   4.439 -1.2833  0.5831  1.6349
   50MOL    H9919797   7.445   3.003   4.470  1.8835  0.4626  0.9252
   50MOL   H10019798   7.229   3.198   4.298 -0.1456  0.7754  0.5536
   50MOL   H10119799   7.274   3.326   4.199  0.3955  0.6337  1.9547
   50MOL   C10219800   7.271   3.141   4.085 -0.2168 -0.2626  0.9624
   50MOL   C10319801   7.120   3.102   4.091  0.6219  0.5865  0.3279
   50MOL   C10419802   7.020   3.203   4.093 -0.0244  0.3205  0.5073
   50MOL   C10519803   6.884   3.172   4.092  0.6676 -0.5116  0.0865
   50MOL   C10619804   6.842   3.035   4.081 -0.0265  0.1491  0.0210
   50MOL   O10719805   6.712   3.000   4.060 -0.2213  0.2024 -0.2423
   50MOL   C10819806   6.608   3.090   4.094  0.4559 -0.1550  0.1281
   50MOL   C10919807   6.938   2.941   4.063  0.0403 -0.4840 -0.2201
   50MOL   C11019808   7.080   2.971   4.072  0.1016 -0.1276 -0.2669
   50MOL   C11119809   7.292   3.231   3.961  0.2267  0.6098  0.4287
   50MOL   H11219810   7.331   3.050   4.084  2.7732  1.6473 -1.1905
   50MOL   H11319811   7.047   3.306   4.114  1.8682  0.0482 -0.4377
   50MOL   H11419812   6.810   3.251   4.093  2.6412  1.3495  0.8140
   50MOL   H11519813   6.504   3.056   4.083  0.4671 -0.5598  1.2329
   50MOL   H11619814   6.637   3.112   4.197  1.3589  2.1635 -0.5905
   50MOL   H11719815   6.611   3.184   4.040  0.3047 -0.4435 -0.3880
   50MOL   H11819816   6.902   2.843   4.037 -1.1813  0.3207 -1.6248
   50MOL   H11919817   7.154   2.893   4.058  1.6654  0.9191  1.8722
   50MOL   H12019818   7.219   3.312   3.971  0.4466  0.5805  2.4767
   50MOL   H12119819   7.395   3.268   3.961  0.1088  0.9440  0.2986
   50MOL   C12219820   7.271   3.163   3.827 -0.3210 -0.3076  0.0706
   50MOL   C12319821   7.380   3.057   3.810 -0.7735  0.4487  0.5365
   50MOL   C12419822   7.516   3.090   3.783  0.4922 -0.5009 -0.0104
   50MOL   C12519823   7.619   2.990   3.787 -0.3498 -0.2795 -0.8373
   50MOL   C12619824   7.593   2.855   3.809  0.0220  0.0397 -0.4317
   50MOL   O12719825   7.692   2.759   3.817 -0.3275 -0.2081 -0.6790
   50MOL   C12819826   7.656   2.624   3.857  0.2038  0.2908  0.4628
   50MOL   C12919827   7.453   2.823   3.836  0.6390  1.1430  0.2741
   50MOL   C13019828   7.352   2.922   3.833  0.3241 -0.3289 -0.1126
   50MOL   C13119829   7.258   3.267   3.714 -0.8305  0.6436  0.0408
   50MOL   H13219830   7.170   3.120   3.828 -1.2838  1.9015  0.9863
   50MOL   H13319831   7.544   3.192   3.761 -0.7188 -0.2035 -0.1617
   50MOL   H13419832   7.721   3.019   3.769 -0.4543  0.5444 -0.1063
   50MOL   H13519833   7.593   2.631   3.945  0.8961  1.8925  0.8557
   50MOL   H13619834   7.597   2.577   3.778  1.5553  0.4876 -0.6926
   50MOL   H13719835   7.742   2.563   3.884 -0.1505 -0.9145 -1.0486
   50MOL   H13819836   7.415   2.724   3.855  2.0922  0.9128  2.2090
   50MOL   H13919837   7.249   2.897   3.854 -0.1636  1.7506  0.1075
   50MOL   H14019838   7.352   3.318   3.696 -0.4624 -0.4031 -1.0920
   50MOL   H14119839   7.198   3.352   3.747 -1.3336  0.1037  0.5234
   50MOL   C14219840   7.203   3.205   3.586  0.3684  0.3669 -0.9623
   50MOL   C14319841   7.076   3.126   3.603  0.4346 -0.0520 -0.4090
   50MOL   C14419842   6.962   3.189   3.649 -0.4595 -0.9563 -0.0334
   50MOL   C14519843   6.849   3.106   3.658 -0.1766  0.4587 -0.3507
   50MOL   C14619844   6.842   2.969   3.631  0.7801  1.0604 -0.2490
   50MOL   O14719845   6.720   2.913   3.635 -0.3791  0.3261 -1.3407
   50MOL   C14819846   6.711   2.768   3.628  0.4823  0.2487 -0.2277
   50MOL   C14919847   6.961   2.910   3.589  0.0218 -0.2876 -0.1293
   50MOL   C15019848   7.076   2.986   3.574  0.3696  0.0569  0.2736
   50MOL   C15119849   7.193   3.299   3.458  0.5128 -0.1635 -0.7559
   50MOL   H15219850   7.281   3.134   3.558 -0.4855 -0.4551 -1.2807
   50MOL   H15319851   6.958   3.295   3.672  1.8736 -0.7981 -0.2781
   50MOL   H15419852   6.764   3.167   3.683 -0.7722 -0.3103 -0.4927
   50MOL   H15519853   6.787   2.729   3.696 -0.3429  1.5832  1.4984
   50MOL   H15619854   6.613   2.723   3.642  0.8732 -1.2659 -2.2092
   50MOL   H15719855   6.752   2.726   3.536  0.3358 -0.7270  0.1533
   50MOL   H15819856   6.958   2.806   3.559  1.8857  0.0559 -1.5842
   50MOL   H15919857   7.160   2.925   3.543  1.1128  1.4387 -0.4741
   50MOL   H16019858   7.288   3.348   3.439  0.7091 -0.9072 -1.7127
   50MOL   H16119859   7.129   3.385   3.481 -0.7866 -1.3696  0.2085
   50MOL   C16219860   7.137   3.239   3.327  0.0932 -0.6679 -1.3718
   50MOL   C16319861   7.235   3.149   3.256  0.8555 -0.0474 -0.3793
   50MOL   C16419862   7.209   3.010   3.258  0.7270 -0.7950  0.0845
   50MOL   C16519863   7.290   2.923   3.180 -0.5655  1.0380  0.5988
   50MOL   C16619864   7.405   2.977   3.112 -0.2439 -0.4398  0.6202
   50MOL   O16719865   7.488   2.891   3.041  0.9053  0.3968  0.0275
   50MOL   C16819866   7.604   2.943   2.986  0.3611 -0.0144 -0.2486
   50MOL   C16919867   7.438   3.117   3.119  0.1665 -0.2431 -0.8902
   50MOL   C17019868   7.349   3.199   3.190 -0.1100 -0.3739  0.3439
   50MOL   C17119869   7.081   3.356   3.234  0.2401  0.0922 -1.0371
   50MOL   H17219870   7.046   3.186   3.355  0.6657  0.0546  2.0919
   50MOL   H17319871   7.124   2.976   3.314 -0.2889  1.0380 -0.3198
   50MOL   H17419872   7.274   2.817   3.163 -1.6479  1.5207 -1.5597
   50MOL   H17519873   7.657   2.857   2.946  1.9514  2.1223 -3.0043
   50MOL   H17619874   7.665   2.983   3.067  0.4358 -0.9011  0.1307
   50MOL   H17719875   7.577   3.017   2.911 -2.0785 -2.2917 -1.6860
   50MOL   H17819876   7.508   3.162   3.050  1.8036 -0.8077  0.3596
   50MOL   H17919877   7.365   3.306   3.190 -0.6830 -0.2647  2.5192
   50MOL   H18019878   7.160   3.410   3.183  1.0696  0.8035  0.9346
   50MOL   H18119879   7.031   3.423   3.304  0.5342  0.1222 -0.8549
   50MOL   C18219880   6.962   3.321   3.134 -0.0372  0.1169  0.2774
   50MOL   C18319881   7.019   3.226   3.026 -0.2058  0.0388 -0.1739
   50MOL   C18419882   7.131   3.260   2.950 -0.5569  0.1632 -0.1671
   50MOL   C18519883   7.173   3.180   2.845  0.1904 -0.0105  0.2817
   50MOL   C18619884   7.105   3.056   2.818  0.0638  0.1230  0.0350
   50MOL   O18719885   7.141   2.974   2.712 -0.2732 -0.0141 -0.2980
   50MOL   C18819886   7.098   2.834   2.715 -0.9059 -0.0422 -0.5029
   50MOL   C18919887   7.000   3.015   2.899 -0.4571  0.6133 -0.1678
   50MOL   C19019888   6.956   3.100   3.006  0.7565 -1.2556 -0.4807
   50MOL   C19119889   6.898   3.452   3.077  0.3432  0.3078  0.2754
   50MOL   H19219890   6.892   3.256   3.185  2.1123 -1.2102  1.6140
   50MOL   H19319891   7.176   3.358   2.956  2.1544 -0.9790 -0.7396
   50MOL   H19419892   7.260   3.209   2.788  0.5306  0.0385  0.8109
   50MOL   H19519893   6.991   2.814   2.718 -0.8647 -0.0555  0.9173
   50MOL   H19619894   7.137   2.780   2.801 -1.8957 -0.3192 -0.2200
   50MOL   H19719895   7.134   2.776   2.629 -0.0653  1.5263 -1.2339
   50MOL   H19819896   6.939   2.928   2.878 -3.9172  2.7835  0.6213
   50MOL   H19919897   6.873   3.079   3.071 -1.4751  0.7695 -2.5904
   50MOL   H20019898   6.853   3.511   3.156  0.6994  0.4537  0.3718
   50MOL   H20119899   6.990   3.505   3.051  1.0250 -0.9782 -0.0175
   50MOL   C20219900   6.805   3.441   2.953 -0.6002 -0.6181  0.0497
   50MOL   C20319901   6.769   3.575   2.896 -0.1810  0.3006 -1.0480
   50MOL   C20419902   6.860   3.635   2.806 -0.1433  0.1625 -0.2202
   50MOL   C20519903   6.834   3.765   2.757  0.0425  0.6954 -0.2874
   50MOL   C20619904   6.724   3.835   2.790 -0.1375  1.0636  0.1136
   50MOL   O20719905   6.712   3.960   2.740 -0.2083 -0.3774  0.3998
   50MOL   C20819906   6.616   4.049   2.801  0.7145  0.0950 -0.1598
   50MOL   C20919907   6.626   3.771   2.878  0.3049 -0.1957  0.2933
   50MOL   C21019908   6.643   3.638   2.930  0.4039  0.8776  0.1956
   50MOL   C21119909   6.693   3.338   2.964  0.2077 -0.0778 -0.4550
   50MOL   H21219910   6.869   3.400   2.875 -1.2999 -0.1073 -0.7997
   50MOL   H21319911   6.948   3.581   2.777 -0.0120  1.0503 -1.5421
   50MOL   H21419912   6.909   3.805   2.689  1.4185  0.1945  0.8994
   50MOL   H21519913   6.520   4.024   2.755  0.7777  1.1217 -0.8664
   50MOL   H21619914   6.611   4.042   2.909 -0.5990 -0.9589 -0.2760
   50MOL   H21719915   6.649   4.148   2.768 -0.4032  0.9029  1.1113
   50MOL   H21819916   6.541   3.825   2.915 -0.5148 -1.2112 -0.0801
   50MOL   H21919917   6.567   3.599   2.995  0.2791  0.1527 -0.3773
   50MOL   H22019918   6.644   3.345   3.061  0.2658 -1.7168 -0.2925
   50MOL   H22119919   6.720   3.232   2.969  1.6248  0.3882  2.2972
   50MOL   C22219920   6.596   3.334   2.837 -0.4235 -0.7762 -0.2732
   50MOL   C22319921   6.669   3.322   2.701 -0.4008  0.0930  0.6920
   50MOL   C22419922   6.639   3.408   2.596  0.0566  0.3310  0.1677
   50MOL   C22519923   6.686   3.372   2.465 -0.0769  0.5068  0.3889
   50MOL   C22619924   6.763   3.255   2.447 -0.6584  0.0729 -0.3012
   50MOL   O22719925   6.809   3.200   2.331  0.4148  0.4771 -0.3532
   50MOL   C22819926   6.792   3.275   2.212  0.6339  0.3582 -0.4171
   50MOL   C22919927   6.802   3.177   2.557  0.2422 -0.1792  0.4507
   50MOL   C23019928   6.750   3.207   2.683 -0.2342 -0.2934 -0.1100
   50MOL   C23119929   6.481   3.224   2.852 -0.0041 -0.4788  0.5969
   50MOL   H23219930   6.544   3.430   2.835 -2.6721 -1.9655 -1.8828
   50MOL   H23319931   6.576   3.495   2.604  0.1093  0.2537  1.4100
   50MOL   H23419932   6.663   3.430   2.378 -0.3178 -0.4327 -0.1831
   50MOL   H23519933   6.686   3.286   2.187  0.4641  0.9310  0.5296
   50MOL   H23619934   6.848   3.365   2.235 -0.1459  0.3792  1.5210
   50MOL   H23719935   6.828   3.218   2.126  0.1282 -0.9271  0.2099
   50MOL   H23819936   6.855   3.086   2.537 -0.7099 -0.6303 -0.0821
   50MOL   H23919937   6.777   3.142   2.765 -1.4494  1.2715  1.5678
   50MOL   H24019938   6.515   3.120   2.849 -3.1045 -1.5218 -0.3734
   50MOL   H24119939   6.438   3.228   2.952  1.6771  1.2149  1.2818
   50MOL   C24219940   6.370   3.238   2.746  0.4264 -0.3513  0.7539
   50MOL   C24319941   6.291   3.111   2.717 -0.1272  0.0446 -0.5263
   50MOL   C24419942   6.180   3.070   2.790  0.5044 -0.4534 -0.3894
   50MOL   C24519943   6.104   2.960   2.755 -0.1190  0.3472 -0.4008
   50MOL   C24619944   6.132   2.881   2.639  0.1898  0.5371 -0.0113
   50MOL   O24719945   6.048   2.781   2.606 -0.7167  0.0239 -0.0594
   50MOL   C24819946   6.102   2.673   2.529  0.0590  0.5003 -0.6295
   50MOL   C24919947   6.243   2.924   2.561  0.0406 -0.6559 -0.7674
   50MOL   C25019948   6.317   3.039   2.598  0.0551 -0.3135 -0.4526
   50MOL   C25119949   6.277   3.349   2.757 -0.1990 -0.1129 -0.1047
   50MOL   H25219950   6.417   3.262   2.651  1.1058  3.4481  1.9902
   50MOL   H25319951   6.169   3.115   2.888 -0.5629 -2.5213  0.4774
   50MOL   H25419952   6.026   2.920   2.818 -0.8359  0.8594 -0.9504
   50MOL   H25519953   6.167   2.695   2.445  1.2585  1.8445  0.6219
   50MOL   H25619954   6.155   2.607   2.598 -0.3302  3.0916  2.2665
   50MOL   H25719955   6.018   2.616   2.490  1.0184 -0.7790 -0.8810
   50MOL   H25819956   6.270   2.868   2.473  0.4738 -2.2489  0.3622
   50MOL   H25919957   6.398   3.080   2.539 -1.0580 -0.1642 -1.8922
   50MOL   H26019958   6.331   3.442   2.774 -0.5343 -0.3609  2.5330
   50MOL   H26119959   6.214   3.340   2.845  1.1140  0.8373  0.9485
   50MOL   C26219960   6.169   3.365   2.635  0.2153 -0.1585  0.3255
   50MOL   C26319961   6.229   3.422   2.508 -0.0334  0.4453  0.2131
   50MOL   C26419962   6.221   3.349   2.386  0.5299  0.6298 -0.6504
   50MOL   C26519963   6.281   3.400   2.274  0.1937 -0.2006 -0.3143
   50MOL   C26619964   6.345   3.526   2.273 -0.5725  0.4379  0.8401
   50MOL   O26719965   6.391   3.572   2.150 -0.8242 -0.6085 -0.3414
   50MOL   C26819966   6.413   3.712   2.141 -0.5905 -0.5808  0.0238
   50MOL   C26919967   6.347   3.601   2.390 -0.2768  1.1817  0.1758
   50MOL   C27019968   6.300   3.542   2.510 -0.1789 -0.2762  0.0919
   50MOL   C27119969   6.047   3.453   2.676 -0.2246  0.0404  0.4784
   50MOL   H27219970   6.130   3.266   2.608 -1.9177  0.4004  1.3072
   50MOL   H27319971   6.178   3.250   2.388  2.1104 -0.0468  1.4455
   50MOL   H27419972   6.267   3.342   2.184 -1.4882  1.0626 -0.8928
   50MOL   H27519973   6.336   3.770   2.193 -0.1880  1.1269 -1.2575
   50MOL   H27619974   6.418   3.753   2.040 -0.3303  0.8594  0.6043
   50MOL   H27719975   6.513   3.729   2.180  0.6948 -1.9835 -2.5772
   50MOL   H27819976   6.391   3.700   2.388 -1.4749  1.7079 -0.2450
   50MOL   H27919977   6.306   3.599   2.601 -0.2117  1.4716 -0.9800
   50MOL   H28019978   5.990   3.417   2.762 -1.5882  0.4708 -0.2313
   50MOL   H28119979   6.080   3.548   2.717 -0.4070  0.0808  0.5308
   50MOL   C28219980   5.939   3.481   2.565  0.4561  0.4328  0.0891
   50MOL   C28319981   5.849   3.603   2.612 -0.7951  0.4236  0.0833
   50MOL   C28419982   5.752   3.578   2.711 -0.7637  0.5304 -0.0416
   50MOL   C28519983   5.675   3.678   2.768  0.5758  0.1656 -0.0408
   50MOL   C28619984   5.706   3.815   2.741 -0.4572  0.2621 -0.7845
   50MOL   O28719985   5.641   3.909   2.820 -0.1164  0.3514  0.8643
   50MOL   C28819986   5.690   4.044   2.813  0.5094 -0.1125  0.9486
   50MOL   C28919987   5.799   3.844   2.639  0.5996 -0.0035  0.7510
   50MOL   C29019988   5.874   3.736   2.578 -0.2584 -0.3990 -0.8727
   50MOL   C29119989   5.861   3.350   2.526  0.1644 -0.5167  0.5071
   50MOL   H29219990   5.995   3.511   2.477  0.0072 -1.1096 -0.7206
   50MOL   H29319991   5.730   3.480   2.751  1.1533  0.2438  0.3696
   50MOL   H29419992   5.598   3.655   2.841  0.8451 -1.5341 -0.2775
   50MOL   H29519993   5.654   4.104   2.730  0.7188  0.1613  1.0568
   50MOL   H29619994   5.649   4.104   2.895  0.1571  0.4086  0.3933
   50MOL   H29719995   5.799   4.051   2.812  0.5461 -0.7322 -1.1742
   50MOL   H29819996   5.827   3.942   2.602 -0.8257 -0.1584 -0.7742
   50MOL   H29919997   5.941   3.752   2.494  3.9388 -1.3622  2.1006
   50MOL   H30019998   5.935   3.277   2.492 -1.1498 -0.7198 -2.1022
   50MOL   H30119999   5.823   3.308   2.619  2.3561 -0.0692  1.6284
   50MOL   C30220000   5.753   3.357   2.425  0.7475  0.3246  0.4293
   50MOL   C30320001   5.799   3.442   2.305 -0.2411 -0.1568 -0.2659
   50MOL   C30420002   5.722   3.561   2.279  0.7281 -0.5481 -0.1047
   50MOL   C30520003   5.756   3.649   2.176  0.3917  0.3883  0.1617
   50MOL   C30620004   5.882   3.630   2.107  0.7073  0.2063  0.1683
   50MOL   O30720005   5.922   3.723   2.012 -0.4316  0.2365  0.3665
   50MOL   C30820006   6.052   3.760   2.045 -0.5799  0.3594 -0.5672
   50MOL   C30920007   5.955   3.508   2.132  0.3986 -1.1085 -0.3112
   50MOL   C31020008   5.914   3.418   2.229 -0.1957  0.0355 -0.5162
   50MOL   C31120009   5.695   3.217   2.384  0.4336  0.3406  0.2221
   50MOL   H31220010   5.676   3.417   2.472  1.8133 -0.0955  2.7547
   50MOL   H31320011   5.632   3.585   2.333 -1.2852 -2.8737 -2.2894
   50MOL   H31420012   5.700   3.739   2.158 -0.3758  0.5955  3.2747
   50MOL   H31520013   6.118   3.681   2.009 -1.3739  0.1333 -1.5617
   50MOL   H31620014   6.059   3.777   2.152 -3.2828 -0.0133 -0.2813
   50MOL   H31720015   6.084   3.852   1.996  1.8419 -1.1824 -1.9583
   50MOL   H31820016   6.043   3.475   2.080  1.2679  0.7669 -0.0675
   50MOL   H31920017   5.976   3.330   2.239  1.1905  1.2007  1.3929
   50MOL   H32020018   5.772   3.142   2.368 -0.4413 -0.6875  0.7697
   50MOL   H32120019   5.666   3.238   2.280  1.6137  0.7316 -0.0393
   50MOL   C32220020   5.580   3.168   2.479 -0.0282  0.3470 -0.6731
   50MOL   C32320021   5.627   3.161   2.630  0.0352 -0.5227  0.0217
   50MOL   C32420022   5.730   3.071   2.679 -0.3464 -0.4485 -0.7482
   50MOL   C32520023   5.756   3.064   2.818  1.4190  0.3907 -0.1229
   50MOL   C32620024   5.686   3.146   2.914  0.2900 -0.1332  0.1716
   50MOL   O32720025   5.723   3.132   3.047  0.3307  0.3728  0.8254
   50MOL   C32820026   5.646   3.203   3.138  0.2905  0.5652  0.0272
   50MOL   C32920027   5.587   3.232   2.863 -0.5219 -0.2063 -0.0751
   50MOL   C33020028   5.561   3.242   2.729 -0.4142  0.4059 -0.2192
   50MOL   C33120029   5.523   3.038   2.429 -0.3388 -0.1460  0.1123
   50MOL   H33220030   5.500   3.241   2.470 -2.0493 -1.6803  0.3371
   50MOL   H33320031   5.789   2.999   2.625  1.0870 -0.3074  0.6110
   50MOL   H33420032   5.827   2.989   2.851  0.3983 -1.1760 -1.3980
   50MOL   H33520033   5.623   3.308   3.123 -2.7945 -0.3261 -1.8584
   50MOL   H33620034   5.687   3.199   3.239  0.6900  1.2347 -0.1027
   50MOL   H33720035   5.554   3.145   3.146  0.5687  0.2510  0.9969
   50MOL   H33820036   5.532   3.294   2.932  0.7177  0.5606  0.2355
   50MOL   H33920037   5.492   3.318   2.695 -0.6146  0.5424  0.4881
   50MOL   H34020038   5.453   3.064   2.349 -0.6966 -1.2897  0.0475
   50MOL   H34120039   5.607   2.986   2.384  2.0561  2.3214  1.6247
   50MOL   C34220040   5.453   2.940   2.524 -0.3004  0.5610  0.3184
   50MOL   C34320041   5.431   2.815   2.437  0.0462 -0.4771  0.0053
   50MOL   C34420042   5.346   2.818   2.324  0.0546  0.4353 -0.9205
   50MOL   C34520043   5.326   2.703   2.246 -0.0004 -0.4839  0.7724
   50MOL   C34620044   5.386   2.580   2.272 -0.0368  0.4810 -0.4076
   50MOL   O34720045   5.366   2.480   2.181 -0.0008  0.0293  0.0778
   50MOL   C34820046   5.439   2.360   2.179  0.4160 -0.2544 -0.2763
   50MOL   C34920047   5.479   2.580   2.380 -0.2193 -0.2643 -0.7030
   50MOL   C35020048   5.500   2.701   2.459  0.3055 -0.4938  0.2943
   50MOL   C35120049   5.322   3.000   2.591 -0.0079  0.3490  0.5068
   50MOL   H35220050   5.524   2.909   2.600 -0.3954 -0.7794 -0.1232
   50MOL   H35320051   5.289   2.906   2.297 -0.2752  0.6829  0.5441
   50MOL   H35420052   5.271   2.707   2.153  1.8359 -1.3738 -0.3854
   50MOL   H35520053   5.452   2.303   2.087 -3.2111 -1.4076 -0.1627
   50MOL   H35620054   5.538   2.384   2.219  0.9134 -1.8509 -0.5305
   50MOL   H35720055   5.407   2.289   2.255 -0.2968  1.2941  0.9045
   50MOL   H35820056   5.526   2.490   2.416  0.7045  0.6248  0.3431
   50MOL   H35920057   5.560   2.696   2.549 -0.0221  1.4296  0.6439
   50MOL   H36020058   5.339   3.103   2.621  1.9093  0.6559 -1.5108
   50MOL   H36120059   5.251   3.006   2.509 -1.3338  1.4547  1.7129
   50MOL   C36220060   5.275   2.919   2.714  0.0474  0.5159 -0.0773
   50MOL   C36320061   5.138   2.981   2.753  0.4981  0.3002 -1.0080
   50MOL   C36420062   5.135   3.107   2.811 -0.6765  0.4053 -0.0358
   50MOL   C36520063   5.020   3.164   2.858  0.0095  0.0366 -0.0662
   50MOL   C36620064   4.906   3.083   2.884  0.0003  0.2347  0.5911
   50MOL   O36720065   4.788   3.139   2.930  0.1669  0.2055  0.3502
   50MOL   C36820066   4.671   3.059   2.948  0.2951 -0.1928  0.3892
   50MOL   C36920067   4.914   2.953   2.832 -0.0134 -0.0583  0.0197
   50MOL   C37020068   5.024   2.905   2.765 -0.1875  0.0597 -0.4488
   50MOL   C37120069   5.370   2.928   2.837  0.3966  0.5372 -0.3260
   50MOL   H37220070   5.262   2.814   2.687 -1.0890  0.2847  1.3229
   50MOL   H37320071   5.229   3.160   2.805  0.7431 -2.0849 -0.5852
   50MOL   H37420072   5.016   3.267   2.891 -2.1315  0.6798 -2.2334
   50MOL   H37520073   4.632   3.063   2.846 -1.5445 -4.3694  0.8271
   50MOL   H37620074   4.689   2.955   2.977  1.2269  0.4401  2.1278
   50MOL   H37720075   4.592   3.100   3.011 -1.1755 -0.6364 -1.1238
   50MOL   H37820076   4.835   2.880   2.842  0.0153  0.1803  2.1480
   50MOL   H37920077   5.030   2.802   2.734  0.0863  0.3849 -1.4952
   50MOL   H38020078   5.471   2.899   2.811  0.0957 -0.6735 -0.1978
   50MOL   H38120079   5.382   3.029   2.877 -2.6867  0.1052  1.8888
   50MOL   C38220080   5.311   2.857   2.966 -0.5307 -0.1670 -0.9413
   50MOL   C38320081   5.397   2.873   3.094  0.4920 -0.0136 -0.1555
   50MOL   C38420082   5.335   2.923   3.211 -0.1600 -0.2837  0.2101
   50MOL   C38520083   5.404   2.912   3.333 -0.4080 -0.2520 -0.1696
   50MOL   C38620084   5.537   2.864   3.346 -1.3990 -0.3647  0.3299
   50MOL   O38720085   5.601   2.855   3.466 -0.5310  0.0394 -0.0718
   50MOL   C38820086   5.723   2.786   3.478 -0.1028 -0.1704 -0.4027
   50MOL   C38920087   5.599   2.829   3.225  0.4733  0.0657 -0.0015
   50MOL   C39020088   5.531   2.831   3.098 -0.9356 -0.0949  0.1799
   50MOL   C39120089   5.286   2.712   2.944  0.8223  0.2097  0.1156
   50MOL   H39220090   5.212   2.894   2.994  0.0193  0.6710 -0.0694
   50MOL   H39320091   5.232   2.953   3.197 -0.7669 -1.7397  1.3402
   50MOL   H39420092   5.360   2.959   3.420 -2.4973 -1.5234 -0.5027
   50MOL   H39520093   5.762   2.804   3.578 -0.5548  2.6456 -0.6944
   50MOL   H39620094   5.793   2.817   3.400  0.2291  2.1854  0.7852
   50MOL   H39720095   5.707   2.679   3.462  2.9299 -0.9270  1.2616
   50MOL   H39820096   5.703   2.800   3.212  0.6576  0.8151 -0.2148
   50MOL   H39920097   5.585   2.802   3.010 -1.7518  0.3141 -0.4582
   50MOL   H40020098   5.366   2.659   2.893 -0.7319 -0.4566 -1.6948
   50MOL   H40120099   5.190   2.702   2.893  0.2009 -1.4795  1.5479
   50MOL   H40220100   5.282   2.668   3.044  0.3060  1.4284  0.6374
   51MOL     C120101   7.854   7.105   7.188 -0.4378 -1.0792  0.2276
   51MOL     C220102   7.959   7.184   7.264 -0.3381 -0.3169  1.2683
   51MOL     C320103   7.977   7.166   7.404  0.2225 -0.1775 -0.0674
   51MOL     C420104   0.031   7.247   7.469 -0.4134  0.1571 -0.1943
   51MOL     C520105   0.100   7.341   7.400  0.0031  0.1167 -0.3415
   51MOL     O620106   0.190   7.411   7.474  0.3553 -0.2715 -0.1912
   51MOL     C720107   0.254   7.524   7.411  0.2568  0.5721  0.3817
   51MOL     C820108   0.082   7.359   7.263  0.0073 -0.8865  0.1427
   51MOL     C920109   8.038   7.271   7.192 -0.7078 -0.2781 -0.5641
   51MOL    C1020110   7.711   7.154   7.216 -0.3257 -0.0916  0.9817
   51MOL    H1120111   7.866   6.999   7.210 -0.4307 -0.9573  0.8172
   51MOL    H1220112   7.922   7.094   7.463  0.7040  0.6960  1.4613
   51MOL    H1320113   0.048   7.236   7.575 -0.5207 -1.5328 -0.3300
   51MOL    H1420114   0.301   7.578   7.493  1.3009  0.2703 -0.0062
   51MOL    H1520115   0.330   7.498   7.338  1.6791  1.5948  1.4659
   51MOL    H1620116   0.179   7.592   7.371  0.3475  0.4787  0.0503
   51MOL    H1720117   0.139   7.432   7.207 -0.0597 -2.0006 -1.4118
   51MOL    H1820118   8.025   7.278   7.085 -1.0608 -1.3198 -0.5935
   51MOL    H1920119   7.701   7.138   7.323  1.1054 -0.5395  1.0632
   51MOL    H2020120   7.704   7.262   7.202 -0.1396  0.0395  1.8358
   51MOL    H2120121   7.884   7.118   7.084  1.5308  2.2451  1.1304
   51MOL    C2220122   7.610   7.090   7.134  0.2981 -0.1388 -0.2252
   51MOL    C2320123   7.478   7.076   7.211  0.5715  0.2109  0.2283
   51MOL    C2420124   7.430   6.946   7.236  0.1509  0.0442  0.2239
   51MOL    C2520125   7.324   6.922   7.330 -0.2477  0.0643  0.1336
   51MOL    C2620126   7.256   7.031   7.390  0.3202 -0.1206 -0.3392
   51MOL    O2720127   7.149   7.021   7.478 -0.0879 -0.2794 -0.5708
   51MOL    C2820128   7.117   6.894   7.529 -0.0958 -0.4171  0.3439
   51MOL    C2920129   7.305   7.164   7.363 -0.5514 -0.0121  0.1062
   51MOL    C3020130   7.410   7.183   7.272  0.0388 -0.1711 -0.3059
   51MOL    C3120131   7.599   7.162   6.995 -0.1310  0.8551  0.1451
   51MOL    H3220132   7.637   6.987   7.108 -0.1472 -0.4359  0.4665
   51MOL    H3320133   7.489   6.859   7.212 -0.4889 -0.3660  0.1148
   51MOL    H3420134   7.296   6.818   7.346 -1.1424  0.3873  0.7025
   51MOL    H3520135   7.109   6.822   7.447  1.2504 -0.9237  0.6536
   51MOL    H3620136   7.027   6.889   7.591 -0.3122 -0.6373  0.0156
   51MOL    H3720137   7.186   6.857   7.604  0.3438  0.7205  0.4997
   51MOL    H3820138   7.261   7.246   7.418 -1.6709 -0.8098  0.3902
   51MOL    H3920139   7.438   7.287   7.262 -0.3520 -0.1764 -1.5066
   51MOL    H4020140   7.573   7.266   7.012 -1.8919  0.5643 -0.5696
   51MOL    H4120141   7.698   7.163   6.950  0.4797 -1.4854  1.3443
   51MOL    C4220142   7.494   7.099   6.900  0.1221  0.1043 -1.1799
   51MOL    C4320143   7.552   7.056   6.765 -0.3239 -0.0121  0.1882
   51MOL    C4420144   7.522   7.128   6.650  0.0018 -0.5644 -0.0455
   51MOL    C4520145   7.559   7.078   6.521  0.1344  0.9255 -0.5020
   51MOL    C4620146   7.627   6.955   6.513  0.3349 -0.5930 -0.4470
   51MOL    O4720147   7.637   6.899   6.388  0.0498  0.0086 -0.2083
   51MOL    C4820148   7.676   6.772   6.371  0.2546 -0.1432 -0.0078
   51MOL    C4920149   7.662   6.887   6.630 -0.0988 -0.4364  0.8462
   51MOL    C5020150   7.629   6.942   6.757  0.6598  0.1140 -0.8389
   51MOL    C5120151   7.371   7.188   6.898 -0.6729  0.5724 -0.2534
   51MOL    H5220152   7.463   7.011   6.956  0.9747 -1.9226 -3.7859
   51MOL    H5320153   7.471   7.223   6.651  1.2987  0.1406  0.1740
   51MOL    H5420154   7.535   7.131   6.430 -0.3032  0.0686 -0.8911
   51MOL    H5520155   7.782   6.744   6.379  0.3476  0.6534  1.7849
   51MOL    H5620156   7.618   6.699   6.427  0.9772  0.0638  1.0298
   51MOL    H5720157   7.653   6.761   6.265  0.4685 -2.8910  0.1882
   51MOL    H5820158   7.718   6.796   6.616 -0.6741 -0.5780 -0.6109
   51MOL    H5920159   7.652   6.884   6.845  0.2882  0.9417 -0.1890
   51MOL    H6020160   7.408   7.280   6.855 -0.4781  0.9947  0.8057
   51MOL    H6120161   7.343   7.217   7.000 -0.8036 -1.2068  0.2363
   51MOL    C6220162   7.251   7.140   6.820 -0.0351 -0.1235  0.1973
   51MOL    C6320163   7.179   7.262   6.753  0.3909  0.2259  0.0040
   51MOL    C6420164   7.168   7.272   6.617 -0.1940 -0.5266 -0.5420
   51MOL    C6520165   7.091   7.379   6.558 -0.2482 -0.4235  0.7991
   51MOL    C6620166   7.029   7.469   6.647  0.7815  0.3898 -0.1053
   51MOL    O6720167   6.943   7.553   6.587  0.1078 -0.3114 -0.0852
   51MOL    C6820168   6.905   7.678   6.650  0.0803  0.5932  0.5311
   51MOL    C6920169   7.045   7.466   6.781 -0.0150  1.1728 -0.0004
   51MOL    C7020170   7.124   7.361   6.835 -0.5287 -0.1510  0.9167
   51MOL    C7120171   7.159   7.063   6.908 -0.0506 -0.1409  0.4957
   51MOL    H7220172   7.301   7.079   6.744  1.9907  1.6200  0.0906
   51MOL    H7320173   7.212   7.199   6.552  2.1412  0.1857  0.1837
   51MOL    H7420174   7.066   7.374   6.453  0.2457 -0.3352  0.6781
   51MOL    H7520175   6.987   7.727   6.702  0.3427  0.8078 -0.0809
   51MOL    H7620176   6.822   7.671   6.721  0.3764 -0.2932  0.8070
   51MOL    H7720177   6.854   7.736   6.573 -1.7913 -0.1795  1.1387
   51MOL    H7820178   6.996   7.532   6.851 -0.7975  1.7769 -1.1015
   51MOL    H7920179   7.136   7.353   6.942  1.0454  1.0614  0.8515
   51MOL    H8020180   7.223   6.982   6.942 -1.3183 -1.0100  0.8442
   51MOL    H8120181   7.123   7.112   6.999 -1.7524 -0.6300  0.1034
   51MOL    C8220182   7.035   7.000   6.843 -0.4248  1.0058  0.4759
   51MOL    C8320183   7.011   6.857   6.897 -0.0920 -0.1899 -0.5998
   51MOL    C8420184   7.013   6.834   7.040  0.1652 -0.1704 -0.3464
   51MOL    C8520185   7.000   6.700   7.088 -0.4576 -0.5861 -0.2261
   51MOL    C8620186   6.967   6.594   7.001 -0.1669  0.2191 -0.4887
   51MOL    O8720187   6.958   6.471   7.054  0.2102 -0.0902 -0.4793
   51MOL    C8820188   6.866   6.376   7.002 -0.7047  0.2379 -0.2984
   51MOL    C8920189   6.973   6.615   6.860  0.7431 -0.4301 -0.0909
   51MOL    C9020190   7.002   6.742   6.814  0.8350 -0.4025 -1.3575
   51MOL    C9120191   6.912   7.085   6.861 -0.1684 -0.0148 -0.0117
   51MOL    H9220192   7.057   6.982   6.737 -0.7198 -0.5983  0.6683
   51MOL    H9320193   7.028   6.918   7.106  1.3358 -0.4695 -0.2104
   51MOL    H9420194   7.008   6.681   7.194 -3.7828  0.3330  0.2609
   51MOL    H9520195   6.902   6.281   7.041 -0.2565 -0.4682 -2.3994
   51MOL    H9620196   6.859   6.373   6.893  0.7670 -0.0788 -0.3923
   51MOL    H9720197   6.767   6.398   7.042 -0.9128 -2.1835  0.6226
   51MOL    H9820198   6.958   6.531   6.793 -1.3408 -0.2272  0.0801
   51MOL    H9920199   7.012   6.751   6.707  0.8924 -1.5498 -1.4516
   51MOL   H10020200   6.888   7.087   6.968  0.5556  0.6094  0.1445
   51MOL   H10120201   6.942   7.185   6.832  0.6986  0.0544  1.0836
   51MOL   C10220202   6.784   7.037   6.774  0.1393 -0.2190 -0.2037
   51MOL   C10320203   6.670   7.132   6.795  0.4827 -0.0060 -0.5130
   51MOL   C10420204   6.694   7.269   6.764 -0.1691  0.4669  0.1455
   51MOL   C10520205   6.600   7.364   6.794  0.9008 -0.6234 -0.7385
   51MOL   C10620206   6.474   7.324   6.843  0.6643  0.1975 -0.2633
   51MOL   O10720207   6.382   7.421   6.873  0.4047  0.1552  0.3123
   51MOL   C10820208   6.251   7.383   6.914  0.2656  0.2850 -0.2169
   51MOL   C10920209   6.446   7.190   6.859  0.6765  0.4981  0.6959
   51MOL   C11020210   6.544   7.094   6.843  0.3815 -0.6102 -0.0422
   51MOL   C11120211   6.816   7.033   6.619 -0.4212 -0.3680  0.0791
   51MOL   H11220212   6.759   6.934   6.800  0.2915 -0.1403  0.2496
   51MOL   H11320213   6.784   7.303   6.716 -1.1154  0.5789 -1.5843
   51MOL   H11420214   6.616   7.471   6.785  0.1956 -0.4016  0.4941
   51MOL   H11520215   6.185   7.467   6.934 -1.5031 -1.7668  3.0411
   51MOL   H11620216   6.205   7.315   6.843 -1.6286 -0.5028  1.7011
   51MOL   H11720217   6.253   7.312   6.997  1.3807 -0.1704 -0.6149
   51MOL   H11820218   6.350   7.158   6.899 -0.3208  1.7489 -0.6483
   51MOL   H11920219   6.523   6.990   6.862  1.4319 -0.9790 -0.8873
   51MOL   H12020220   6.844   7.136   6.595 -1.9288  0.0914  0.2249
   51MOL   H12120221   6.912   6.990   6.591 -0.6208  0.2670 -1.6666
   51MOL   C12220222   6.713   6.973   6.520  0.5686 -0.1076 -0.1636
   51MOL   C12320223   6.653   6.842   6.564 -0.1728  0.1048 -0.1588
   51MOL   C12420224   6.730   6.736   6.612  0.3171  0.0525  0.5948
   51MOL   C12520225   6.667   6.607   6.630 -0.5649  0.1929  0.6035
   51MOL   C12620226   6.530   6.593   6.610  0.3756  0.5355 -0.1174
   51MOL   O12720227   6.479   6.471   6.640  0.3616  1.0780  0.4495
   51MOL   C12820228   6.351   6.448   6.652 -0.1537  0.6896  0.0425
   51MOL   C12920229   6.456   6.701   6.562  0.0224 -0.5886  0.1075
   51MOL   C13020230   6.513   6.826   6.544  0.2926  0.4994 -0.3484
   51MOL   C13120231   6.772   6.967   6.377 -0.1284 -0.5429  0.1901
   51MOL   H13220232   6.637   7.051   6.519 -1.3347 -1.8854  1.1845
   51MOL   H13320233   6.835   6.744   6.637  0.6430 -1.5304 -0.2168
   51MOL   H13420234   6.726   6.521   6.657  3.4871  2.0487 -1.7988
   51MOL   H13520235   6.305   6.470   6.749 -1.7080 -0.2355 -0.4578
   51MOL   H13620236   6.293   6.476   6.565  2.7995  2.2629 -1.4845
   51MOL   H13720237   6.338   6.339   6.655 -1.1331  0.8394  3.5214
   51MOL   H13820238   6.351   6.698   6.540  0.1803  1.4249 -1.0579
   51MOL   H13920239   6.458   6.909   6.502 -0.7399  0.2502  0.5243
   51MOL   H14020240   6.821   6.870   6.366 -0.9528 -1.2762  2.6557
   51MOL   H14120241   6.852   7.039   6.362  0.7323 -1.9496 -2.3861
   51MOL   C14220242   6.666   6.996   6.260 -0.4901  0.4266  0.2720
   51MOL   C14320243   6.598   7.139   6.273 -0.1331 -0.6336  0.4038
   51MOL   C14420244   6.675   7.256   6.282 -0.1145 -0.0981 -0.1804
   51MOL   C14520245   6.619   7.378   6.313  0.4976 -0.2744 -0.1433
   51MOL   C14620246   6.477   7.390   6.341  0.0890  0.2227 -0.4433
   51MOL   O14720247   6.404   7.498   6.384  0.4969  0.5453  0.7106
   51MOL   C14820248   6.470   7.584   6.478 -0.6023 -0.8323 -0.2735
   51MOL   C14920249   6.401   7.274   6.318  0.3029 -0.6310 -0.4747
   51MOL   C15020250   6.459   7.149   6.293  0.0097 -0.1796  0.2933
   51MOL   C15120251   6.732   6.986   6.119  0.1103 -0.0050 -0.1326
   51MOL   H15220252   6.588   6.920   6.258 -0.4900  0.4429 -1.6369
   51MOL   H15320253   6.782   7.251   6.277 -0.0629  0.6615  0.0738
   51MOL   H15420254   6.684   7.463   6.328 -0.4817  0.4396  0.1365
   51MOL   H15520255   6.529   7.665   6.434  0.3729 -0.8139  1.0466
   51MOL   H15620256   6.406   7.636   6.550 -3.3115 -0.4328 -2.8685
   51MOL   H15720257   6.530   7.525   6.547 -0.3592 -0.2297  0.0361
   51MOL   H15820258   6.294   7.281   6.329  0.4980  0.0344  1.2132
   51MOL   H15920259   6.396   7.063   6.280 -0.8329  0.7353 -1.9853
   51MOL   H16020260   6.820   7.050   6.128  0.0034 -0.0285  1.0964
   51MOL   H16120261   6.673   7.029   6.038  1.0755  2.4178  0.3804
   51MOL   C16220262   6.775   6.848   6.074 -0.5595 -0.5209 -0.0093
   51MOL   C16320263   6.894   6.854   5.973  0.1755  0.0027 -0.7676
   51MOL   C16420264   7.021   6.803   6.005 -0.6758  0.3184  0.1461
   51MOL   C16520265   7.126   6.812   5.910 -0.2148  0.7307 -0.3268
   51MOL   C16620266   7.098   6.880   5.778 -0.3908  0.7426  0.0845
   51MOL   O16720267   7.194   6.904   5.680 -0.0145 -0.4768 -0.0190
   51MOL   C16820268   7.314   6.825   5.678 -0.5901  0.1645 -0.3813
   51MOL   C16920269   6.971   6.926   5.751 -0.2661  0.0856 -0.5731
   51MOL   C17020270   6.874   6.919   5.853 -0.8983 -0.2571  1.0347
   51MOL   C17120271   6.654   6.784   5.998 -0.8107  0.5157 -0.2513
   51MOL   H17220272   6.806   6.788   6.160  0.6756 -0.7842 -0.6222
   51MOL   H17320273   7.048   6.767   6.103  0.1342  1.6817  0.4324
   51MOL   H17420274   7.225   6.778   5.936 -0.1907  1.1571  0.1672
   51MOL   H17520275   7.381   6.844   5.762  0.8016  0.3144 -1.4946
   51MOL   H17620276   7.370   6.851   5.588 -2.5381 -0.1680 -1.7313
   51MOL   H17720277   7.274   6.723   5.678 -1.3319  0.4540 -0.6238
   51MOL   H17820278   6.954   6.962   5.650  2.9460  3.4276 -0.0293
   51MOL   H17920279   6.776   6.942   5.812 -0.7372  0.3332  0.9776
   51MOL   H18020280   6.681   6.739   5.902  2.2759  2.6604 -0.4824
   51MOL   H18120281   6.586   6.860   5.962 -1.7382 -1.5167 -3.0563
   51MOL   C18220282   6.586   6.671   6.076  0.7691  0.9104  0.1872
   51MOL   C18320283   6.681   6.558   6.122 -0.4171 -0.7091 -0.2340
   51MOL   C18420284   6.678   6.526   6.258  0.4852 -0.3188 -0.0659
   51MOL   C18520285   6.747   6.413   6.307 -0.1117  0.0802 -0.0636
   51MOL   C18620286   6.821   6.331   6.220  0.1657  0.4943 -0.0093
   51MOL   O18720287   6.875   6.217   6.267  0.0803  0.4085 -0.1605
   51MOL   C18820288   6.932   6.131   6.179  0.0921  0.2548 -0.9598
   51MOL   C18920289   6.823   6.366   6.083 -0.5576 -0.0769  0.7037
   51MOL   C19020290   6.759   6.479   6.035 -0.1954 -0.5100 -0.1287
   51MOL   C19120291   6.476   6.601   5.990 -0.2541 -0.0408 -0.0671
   51MOL   H19220292   6.522   6.704   6.158 -0.9699  1.6872 -1.4425
   51MOL   H19320293   6.619   6.584   6.326 -0.3979 -2.3778  0.9791
   51MOL   H19420294   6.753   6.390   6.412 -2.5646 -0.1638  0.0556
   51MOL   H19520295   6.887   6.115   6.082 -1.3675  1.5353 -0.5090
   51MOL   H19620296   6.920   6.032   6.225 -0.0082  1.6207  2.1151
   51MOL   H19720297   7.039   6.146   6.163  0.2840 -1.5876 -1.4902
   51MOL   H19820298   6.890   6.310   6.019 -2.4676  0.7385 -2.0726
   51MOL   H19920299   6.746   6.508   5.932  0.0738  0.6751  0.1633
   51MOL   H20020300   6.526   6.558   5.903 -1.2030 -1.7521  0.2277
   51MOL   H20120301   6.439   6.524   6.056 -1.2105  1.3265  1.0170
   51MOL   C20220302   6.359   6.684   5.943  0.1502  0.5993  0.9464
   51MOL   C20320303   6.262   6.726   6.057 -0.3057 -0.6358 -0.3309
   51MOL   C20420304   6.167   6.638   6.108  1.1395  0.5983 -0.2743
   51MOL   C20520305   6.091   6.672   6.227  0.2055  0.5529  0.2297
   51MOL   C20620306   6.112   6.795   6.290 -0.4188 -0.1854  0.9075
   51MOL   O20720307   6.039   6.837   6.396 -0.0579 -0.4365 -0.3147
   51MOL   C20820308   5.999   6.749   6.497  0.0538  0.0909 -0.3272
   51MOL   C20920309   6.199   6.891   6.231  0.4444  0.4866 -0.7807
   51MOL   C21020310   6.272   6.857   6.114 -0.3260 -0.5609  0.1169
   51MOL   C21120311   6.283   6.609   5.829 -0.4395  0.6787  0.8815
   51MOL   H21220312   6.409   6.768   5.895  1.1409 -1.3512 -1.5225
   51MOL   H21320313   6.154   6.538   6.069 -0.7851 -0.1127  2.0308
   51MOL   H21420314   6.017   6.607   6.271 -1.0581  2.2867  0.7561
   51MOL   H21520315   6.066   6.752   6.583  1.8296  0.6367 -1.7121
   51MOL   H21620316   5.900   6.783   6.529  0.5612 -0.2637  1.7169
   51MOL   H21720317   5.988   6.646   6.462  2.9105  0.4509 -2.3949
   51MOL   H21820318   6.206   6.991   6.270  1.1814  0.3076 -0.4557
   51MOL   H21920319   6.340   6.925   6.066 -0.4878 -0.1268  0.4996
   51MOL   H22020320   6.250   6.516   5.876 -0.5016  0.6559  0.7916
   51MOL   H22120321   6.352   6.575   5.751 -1.7466  3.9644 -1.7967
   51MOL   C22220322   6.173   6.692   5.757 -0.0588 -0.1563 -0.2595
   51MOL   C22320323   6.218   6.769   5.638  0.5966  0.3850 -0.0500
   51MOL   C22420324   6.264   6.899   5.647  0.9568  0.1215 -0.0250
   51MOL   C22520325   6.313   6.970   5.535 -0.4409  0.2013  0.1264
   51MOL   C22620326   6.323   6.906   5.411  0.2317 -0.3701 -0.0439
   51MOL   O22720327   6.359   6.966   5.294 -0.8638 -0.2009 -0.2944
   51MOL   C22820328   6.441   7.083   5.312 -0.2155  0.0238 -0.6083
   51MOL   C22920329   6.292   6.771   5.408  0.6491  0.5553  0.8808
   51MOL   C23020330   6.237   6.705   5.519  0.5930 -0.3979 -0.2057
   51MOL   C23120331   6.046   6.605   5.736 -0.1208 -0.4622 -0.5545
   51MOL   H23220332   6.125   6.768   5.819 -1.1024 -0.3966 -0.7783
   51MOL   H23320333   6.268   6.955   5.739  0.1287  1.1174 -0.5775
   51MOL   H23420334   6.343   7.072   5.554 -0.3895  0.0494  0.9022
   51MOL   H23520335   6.494   7.105   5.219  0.2201 -1.0810 -0.6255
   51MOL   H23620336   6.390   7.170   5.353  1.5114 -0.0910  1.8595
   51MOL   H23720337   6.520   7.060   5.382  0.3573  0.2534 -1.1703
   51MOL   H23820338   6.289   6.717   5.315 -2.4285 -0.2929  1.3999
   51MOL   H23920339   6.211   6.601   5.510 -2.9356  0.3150  0.9505
   51MOL   H24020340   6.074   6.517   5.678  0.3060 -0.7240  0.0364
   51MOL   H24120341   6.023   6.560   5.833  0.1688  0.2330 -0.1654
   51MOL   C24220342   5.911   6.669   5.678 -0.0853 -0.3600 -0.0279
   51MOL   C24320343   5.806   6.562   5.677  0.3431  0.2192 -0.4818
   51MOL   C24420344   5.751   6.512   5.795  0.8214  0.1268 -0.9349
   51MOL   C24520345   5.666   6.396   5.794  0.0058  0.5718  0.2178
   51MOL   C24620346   5.620   6.349   5.672  0.1926 -0.1155  0.4402
   51MOL   O24720347   5.535   6.236   5.662  0.0909  0.5433 -0.1001
   51MOL   C24820348   5.526   6.167   5.543  0.1285 -0.1962  0.5486
   51MOL   C24920349   5.663   6.419   5.552  0.4107  0.3029 -0.0355
   51MOL   C25020350   5.761   6.515   5.550 -0.4810 -0.6471 -0.2529
   51MOL   C25120351   5.882   6.793   5.757  0.0008 -0.8403 -0.5023
   51MOL   H25220352   5.927   6.707   5.577 -2.5712 -3.7010 -1.7635
   51MOL   H25320353   5.781   6.542   5.895  0.3664  2.3725 -1.4559
   51MOL   H25420354   5.641   6.349   5.888  0.8087  1.8788  1.1000
   51MOL   H25520355   5.440   6.213   5.493  0.5990 -0.7147 -0.7576
   51MOL   H25620356   5.606   6.172   5.470 -0.0399  0.5032  0.4008
   51MOL   H25720357   5.519   6.059   5.557 -1.1205 -0.8488 -4.1717
   51MOL   H25820358   5.619   6.395   5.456  0.5080 -0.2002  0.0441
   51MOL   H25920359   5.786   6.558   5.454 -0.4406  1.6148  0.7299
   51MOL   H26020360   5.951   6.871   5.725  1.2586 -2.7931 -2.6613
   51MOL   H26120361   5.902   6.775   5.863  2.4711  0.7923 -0.6314
   51MOL   C26220362   5.736   6.838   5.750  0.0165  0.4494  0.3737
   51MOL   C26320363   5.680   6.853   5.610 -0.7927  0.3299  0.1244
   51MOL   C26420364   5.749   6.922   5.508  0.0571  0.2855  0.3873
   51MOL   C26520365   5.683   6.943   5.384 -0.1664 -0.1464  0.3316
   51MOL   C26620366   5.551   6.899   5.363 -0.2925 -0.3132  0.4659
   51MOL   O26720367   5.472   6.940   5.257  0.0864  0.3108  0.1995
   51MOL   C26820368   5.515   7.045   5.176  0.4574 -0.1966 -0.9227
   51MOL   C26920369   5.490   6.811   5.462 -0.6522 -1.6078 -0.9773
   51MOL   C27020370   5.563   6.787   5.581  0.3141  0.5809  0.6084
   51MOL   C27120371   5.707   6.970   5.830  0.0045  1.1439 -0.0021
   51MOL   H27220372   5.683   6.757   5.800 -1.3589  1.8771  1.2315
   51MOL   H27320373   5.841   6.977   5.523  0.5715 -0.6790  0.7969
   51MOL   H27420374   5.735   7.006   5.313 -1.0829  1.1787  0.8107
   51MOL   H27520375   5.531   7.136   5.234 -0.4158  0.3539 -1.5329
   51MOL   H27620376   5.436   7.058   5.102  0.4526 -0.2056 -0.9188
   51MOL   H27720377   5.609   7.020   5.126 -0.0026 -3.4667 -0.2709
   51MOL   H27820378   5.387   6.781   5.450 -1.7147  1.8715 -1.1412
   51MOL   H27920379   5.514   6.722   5.652  0.3113 -0.0757  0.0116
   51MOL   H28020380   5.757   7.047   5.770  3.8670 -0.6730  0.7050
   51MOL   H28120381   5.600   6.986   5.817 -0.3877 -2.7611 -2.5290
   51MOL   C28220382   5.745   6.977   5.982 -0.1812 -0.7748 -0.8850
   51MOL   C28320383   5.666   6.852   6.050  0.3978  0.6229  0.0755
   51MOL   C28420384   5.525   6.857   6.062 -0.0551 -0.1346  0.8164
   51MOL   C28520385   5.465   6.747   6.128  0.1214  0.8582  1.0190
   51MOL   C28620386   5.534   6.642   6.190 -0.1348 -0.0629 -0.5787
   51MOL   O28720387   5.477   6.539   6.264  0.2784  0.0389 -0.1064
   51MOL   C28820388   5.334   6.558   6.299 -0.0882 -0.1806  0.0813
   51MOL   C28920389   5.673   6.637   6.170  0.7599  0.5552  0.4589
   51MOL   C29020390   5.739   6.740   6.099 -0.3987 -0.0311  0.1252
   51MOL   C29120391   5.723   7.124   6.049  0.8414  0.5325 -0.8343
   51MOL   H29220392   5.850   6.951   5.993 -0.5200 -1.5469  0.6750
   51MOL   H29320393   5.469   6.940   6.022  1.3648  1.2683  1.6863
   51MOL   H29420394   5.357   6.750   6.137  0.1440  2.9812  0.9417
   51MOL   H29520395   5.317   6.657   6.343  0.9308 -0.1929  0.5123
   51MOL   H29620396   5.293   6.539   6.200  0.8746 -0.5663 -0.2554
   51MOL   H29720397   5.309   6.479   6.369 -0.0132  0.5700  0.9708
   51MOL   H29820398   5.733   6.571   6.229 -0.4623 -0.3983  0.6476
   51MOL   H29920399   5.846   6.746   6.111 -0.4434  1.2734 -0.1072
   51MOL   H30020400   5.615   7.138   6.045  0.5607 -1.3205 -0.4883
   51MOL   H30120401   5.738   7.117   6.157  1.1970  1.4791 -0.8210
   51MOL   C30220402   5.795   7.234   5.985  0.0007  0.0714  0.1065
   51MOL   C30320403   5.713   7.369   5.981 -0.6543  0.1539  0.4327
   51MOL   C30420404   5.612   7.380   5.882  0.6757 -0.1584 -0.1399
   51MOL   C30520405   5.525   7.492   5.868  0.7411  0.1250 -0.1634
   51MOL   C30620406   5.544   7.599   5.965  0.5361 -0.3283 -0.1558
   51MOL   O30720407   5.450   7.703   5.974  0.1212  0.1274  0.4825
   51MOL   C30820408   5.340   7.705   5.879  0.3131 -0.4568 -0.7065
   51MOL   C30920409   5.648   7.593   6.052 -0.1491  0.9813 -0.4267
   51MOL   C31020410   5.738   7.483   6.067  0.3778 -0.2567  1.1246
   51MOL   C31120411   5.938   7.241   6.023  0.1754  0.0698  0.0501
   51MOL   H31220412   5.791   7.203   5.880 -3.5843 -1.7343  0.6838
   51MOL   H31320413   5.588   7.297   5.818  1.7098 -1.1154  0.6945
   51MOL   H31420414   5.439   7.489   5.803  0.2030  1.2216  0.4895
   51MOL   H31520415   5.276   7.790   5.901  0.4515 -0.4644 -0.2741
   51MOL   H31620416   5.272   7.623   5.904 -1.0032  0.3398 -1.5943
   51MOL   H31720417   5.379   7.695   5.777 -0.6406  0.3592 -1.1638
   51MOL   H31820418   5.657   7.664   6.133  0.7530  0.4259 -0.0357
   51MOL   H31920419   5.808   7.473   6.149 -0.6066 -0.1577  1.9777
   51MOL   H32020420   5.982   7.141   6.017 -0.5205 -0.2184 -0.3904
   51MOL   H32120421   5.945   7.259   6.130 -2.4379  0.2831  0.2235
   51MOL   C32220422   6.027   7.332   5.932 -0.8385  0.6515  0.4704
   51MOL   C32320423   6.023   7.302   5.781  0.5577  0.3372  0.3846
   51MOL   C32420424   6.042   7.169   5.736  0.5059  0.2027 -0.3846
   51MOL   C32520425   6.048   7.142   5.601  0.2382 -0.0896 -0.9879
   51MOL   C32620426   6.052   7.245   5.501 -0.6317  0.2401  0.1411
   51MOL   O32720427   6.069   7.210   5.369  0.6485 -0.4879  0.1560
   51MOL   C32820428   6.089   7.313   5.274 -0.3554 -0.1182 -1.0084
   51MOL   C32920429   6.041   7.378   5.542  0.2398  0.0002  0.3078
   51MOL   C33020430   6.021   7.406   5.679  0.2840  0.3779  0.0933
   51MOL   C33120431   6.176   7.326   5.979 -0.4141  0.1898 -0.4056
   51MOL   H33220432   5.995   7.436   5.940  0.3804  1.2995 -2.5504
   51MOL   H33320433   6.043   7.090   5.811 -3.0521 -0.4487 -0.9591
   51MOL   H33420434   6.049   7.040   5.565  0.2436 -0.4991  0.1587
   51MOL   H33520435   5.999   7.374   5.281 -1.1707 -1.4839  0.4132
   51MOL   H33620436   6.104   7.274   5.173 -0.6970  0.8044 -1.4196
   51MOL   H33720437   6.179   7.369   5.301 -0.8762 -0.3850  1.3114
   51MOL   H33820438   6.036   7.462   5.474  1.5238 -0.4096 -0.2941
   51MOL   H33920439   6.025   7.506   5.722 -1.4329  0.9124 -0.9437
   51MOL   H34020440   6.177   7.327   6.088 -1.9217 -1.5826 -0.3461
   51MOL   H34120441   6.217   7.226   5.961  1.3092  0.4245  1.9021
   51MOL   C34220442   6.259   7.440   5.921 -0.3563  0.5238  0.4367
   51MOL   C34320443   6.383   7.379   5.858  0.0265  0.1726  0.1934
   51MOL   C34420444   6.392   7.357   5.717 -0.2501  0.2147  0.1220
   51MOL   C34520445   6.506   7.301   5.659 -0.0564 -0.0659 -0.0176
   51MOL   C34620446   6.616   7.259   5.740  0.0270  0.4690  0.5245
   51MOL   O34720447   6.738   7.219   5.691  0.5986  0.3306  0.1065
   51MOL   C34820448   6.751   7.176   5.555  0.4301 -0.0947 -0.0892
   51MOL   C34920449   6.602   7.267   5.883 -0.3139  0.9288  0.4084
   51MOL   C35020450   6.489   7.327   5.939  0.6249 -0.0563  0.2443
   51MOL   C35120451   6.290   7.550   6.030  0.7734 -0.4044  0.1777
   51MOL   H35220452   6.207   7.487   5.837 -1.3884 -0.4067  0.5449
   51MOL   H35320453   6.305   7.392   5.664 -0.4812  0.0658  0.3972
   51MOL   H35420454   6.513   7.319   5.552  0.6712  0.0598  0.0505
   51MOL   H35520455   6.764   7.260   5.487 -0.5000 -0.0257 -0.1969
   51MOL   H35620456   6.843   7.118   5.556 -0.7677 -2.0667 -1.0613
   51MOL   H35720457   6.668   7.108   5.534 -0.1216  0.6569 -0.3556
   51MOL   H35820458   6.682   7.229   5.944 -0.6728  0.9812  0.9192
   51MOL   H35920459   6.474   7.326   6.046 -0.3926  2.5338  0.1556
   51MOL   H36020460   6.358   7.521   6.110  0.4854  1.5629  1.1742
   51MOL   H36120461   6.355   7.623   5.981 -1.2649  1.0083 -0.4941
   51MOL   C36220462   6.170   7.623   6.079  0.4623  0.3066  0.5599
   51MOL   C36320463   6.078   7.691   5.970 -0.7097  0.4296  0.2655
   51MOL   C36420464   6.128   7.730   5.848  0.4430 -0.5515 -0.1455
   51MOL   C36520465   6.038   7.779   5.748  0.5720 -0.3126  0.2561
   51MOL   C36620466   5.901   7.807   5.774  0.0900  0.8416 -0.5695
   51MOL   O36720467   5.831   7.845   5.671  0.7901  0.0712  0.0073
   51MOL   C36820468   5.689   7.866   5.677  0.2711  0.0174 -0.4631
   51MOL   C36920469   5.855   7.782   5.902 -0.1235 -0.0415 -0.9639
   51MOL   C37020470   5.943   7.727   5.999  0.0485 -0.8433  0.4987
   51MOL   C37120471   6.207   7.717   6.194 -0.0534 -0.3286  0.5844
   51MOL   H37220472   6.108   7.546   6.125 -1.2579  0.0010 -2.1620
   51MOL   H37320473   6.231   7.713   5.822  1.5956  2.8814  1.8215
   51MOL   H37420474   6.067   7.792   5.644 -0.3588 -0.2179 -0.0002
   51MOL   H37520475   5.663   7.897   5.576 -1.9466  1.3317  0.4634
   51MOL   H37620476   5.631   7.778   5.705  0.0183 -0.2216 -1.7161
   51MOL   H37720477   5.648   7.945   5.740  0.8838  0.3898 -0.5250
   51MOL   H37820478   5.758   7.813   5.940  0.6532 -0.5784  1.5665
   51MOL   H37920479   5.905   7.708   6.098 -0.8453  1.2246  0.5889
   51MOL   H38020480   6.114   7.738   6.248 -1.5631 -0.2912 -1.9536
   51MOL   H38120481   6.282   7.662   6.251  0.7737 -0.1690 -0.3447
   51MOL   C38220482   6.262   7.853   6.157  0.0518 -0.1898  0.0632
   51MOL   C38320483   6.398   7.863   6.089 -0.0930 -0.5392 -0.5209
   51MOL   C38420484   6.416   7.914   5.959  0.7983 -0.0132  0.3236
   51MOL   C38520485   6.547   7.906   5.908  0.0695 -0.2385  0.3267
   51MOL   C38620486   6.655   7.859   5.984 -0.0003  1.0477 -0.2579
   51MOL   O38720487   6.785   7.858   5.932 -0.1446 -0.6884 -0.0360
   51MOL   C38820488   6.828   7.914   5.810  0.3882 -0.0016  0.2770
   51MOL   C38920489   6.633   7.807   6.112  0.2473  0.6863 -0.0307
   51MOL   C39020490   6.503   7.811   6.163 -0.6847  0.4023 -0.2091
   51MOL   C39120491   6.268   7.945   6.281 -0.3618  0.1385  0.2146
   51MOL   H39220492   6.193   7.894   6.083  0.1158 -1.9693 -0.9942
   51MOL   H39320493   6.348   7.961   5.891  3.4421  4.3599  0.4893
   51MOL   H39420494   6.555   7.936   5.804  2.0845 -0.5286  0.3722
   51MOL   H39520495   6.801   8.018   5.797 -0.1112 -0.3963 -1.9164
   51MOL   H39620496   6.780   7.860   5.728  0.8888 -1.0202  0.6427
   51MOL   H39720497   6.935   7.895   5.800  0.3901  0.5315 -0.7025
   51MOL   H39820498   6.716   7.762   6.164  0.6024 -0.5860 -1.6474
   51MOL   H39920499   6.486   7.766   6.259  2.0116 -0.6899 -0.1992
   51MOL   H40020500   6.310   0.003   6.261  4.2402 -1.3949  1.7991
   51MOL   H40120501   6.321   7.909   6.369 -0.5618  2.1957  1.1994
   51MOL   H40220502   6.165   7.958   6.313 -0.5538 -0.8858  0.0491
   52MOL     C120503   4.212   0.184   4.531  0.7754 -0.0365 -0.7278
   52MOL     C220504   4.329   0.275   4.563 -0.0280 -0.0822 -0.0622
   52MOL     C320505   4.454   0.216   4.572 -0.1157 -0.2333 -0.2425
   52MOL     C420506   4.568   0.287   4.614 -0.3609  0.4346 -0.0493
   52MOL     C520507   4.553   0.423   4.653  0.0199  0.2714 -0.1426
   52MOL     O620508   4.669   0.482   4.706 -0.3534  0.2330 -0.3693
   52MOL     C720509   4.681   0.615   4.742 -0.3792 -0.8670 -0.4513
   52MOL     C820510   4.423   0.478   4.644  0.1064 -0.4722  0.2464
   52MOL     C920511   4.306   0.406   4.609  0.2914 -0.1584  0.6756
   52MOL    C1020512   4.165   0.114   4.665  0.2392  0.0615  0.1969
   52MOL    H1120513   4.244   0.107   4.461 -1.5629 -1.2916 -0.4551
   52MOL    H1220514   4.470   0.114   4.539 -2.7472 -0.1946 -1.7214
   52MOL    H1320515   4.662   0.235   4.615 -0.7005 -0.2542 -1.4834
   52MOL    H1420516   4.786   0.644   4.735 -0.5091  0.2906  1.8235
   52MOL    H1520517   4.634   0.676   4.664  1.4690 -1.9550 -2.4532
   52MOL    H1620518   4.642   0.631   4.843 -1.8905 -0.2625 -1.1031
   52MOL    H1720519   4.421   0.583   4.670 -1.5206 -0.5079  0.3136
   52MOL    H1820520   4.213   0.460   4.612  1.4852  1.9629  0.7591
   52MOL    H1920521   4.223   0.022   4.675  2.4053  1.1222 -2.0644
   52MOL    H2020522   4.192   0.181   4.747  2.0820  0.2975 -0.5827
   52MOL    H2120523   4.130   0.245   4.492 -1.6299 -1.8944  1.2467
   52MOL    C2220524   4.010   0.078   4.671 -0.2547  0.3081 -0.3923
   52MOL    C2320525   3.978   7.997   4.754  0.1715  0.2201 -0.0905
   52MOL    C2420526   3.940   7.875   4.689  0.4112 -0.2370 -0.0968
   52MOL    C2520527   3.899   7.760   4.765 -0.0440 -0.1226  0.0159
   52MOL    C2620528   3.901   7.767   4.901 -0.3238  0.1719  0.4352
   52MOL    O2720529   3.846   7.655   4.966  0.0161  0.1903 -0.1720
   52MOL    C2820530   3.816   7.650   5.103 -0.8493  0.2050  0.0048
   52MOL    C2920531   3.941   7.881   4.972  0.9476 -0.2772 -0.1710
   52MOL    C3020532   3.979   7.996   4.897 -0.0767  0.1915 -0.2654
   52MOL    C3120533   3.920   0.192   4.717  0.8384 -0.5124 -0.5340
   52MOL    H3220534   3.983   0.058   4.568 -1.1880  0.5802 -0.2001
   52MOL    H3320535   3.944   7.874   4.581 -2.8540  2.3263 -0.2878
   52MOL    H3420536   3.877   7.671   4.708 -0.2860  0.9657 -1.6450
   52MOL    H3520537   3.773   7.554   5.132 -0.3554 -0.2947 -0.8965
   52MOL    H3620538   3.766   7.740   5.140  0.4721  0.3925  1.3928
   52MOL    H3720539   3.911   7.661   5.155 -1.6826  0.3136  1.5463
   52MOL    H3820540   3.925   7.880   5.079  0.5248  0.2531 -0.2241
   52MOL    H3920541   4.011   0.041   4.956  1.9156 -1.5904  1.2552
   52MOL    H4020542   3.963   0.226   4.811 -1.0400 -0.4085  0.3208
   52MOL    H4120543   3.932   0.279   4.651 -3.7134  0.4031 -0.3558
   52MOL    C4220544   3.770   0.167   4.725  0.1410  0.3638 -0.0136
   52MOL    C4320545   3.706   0.116   4.595 -0.9702 -0.1846  0.2728
   52MOL    C4420546   3.654   8.025   4.575 -0.4282 -0.3731 -0.2322
   52MOL    C4520547   3.609   7.980   4.450  0.3522 -0.0413  0.3070
   52MOL    C4620548   3.610   0.029   4.340 -0.1453 -0.1873 -0.5387
   52MOL    O4720549   3.578   8.023   4.218  0.8324 -0.3300  0.0386
   52MOL    C4820550   3.519   0.074   4.119 -0.2386 -0.0822 -0.1648
   52MOL    C4920551   3.639   0.167   4.370 -0.1075 -0.4170  0.7945
   52MOL    C5020552   3.691   0.207   4.494 -0.1752 -1.0465  0.1470
   52MOL    C5120553   3.693   0.288   4.781 -0.4182  0.1981 -0.3955
   52MOL    H5220554   3.763   0.089   4.801  2.1117  1.5402  1.4413
   52MOL    H5320555   3.643   7.965   4.664 -2.7277  0.0794 -0.1716
   52MOL    H5420556   3.584   7.875   4.452 -0.7509  0.1558 -2.1289
   52MOL    H5520557   3.442   0.139   4.159 -0.0913 -0.7753  1.2878
   52MOL    H5620558   3.594   0.143   4.079  0.6129 -1.1775 -0.4965
   52MOL    H5720559   3.489   0.012   4.034 -1.0521  0.9283 -0.6302
   52MOL    H5820560   3.634   0.237   4.288  2.0901 -0.9533  0.1847
   52MOL    H5920561   3.719   0.311   4.501 -0.0942 -0.8867 -2.1044
   52MOL    H6020562   3.589   0.260   4.767 -0.3600 -1.5524  2.2123
   52MOL    H6120563   3.712   0.374   4.717  0.8010  0.8372  0.7853
   52MOL    C6220564   3.723   0.313   4.930 -0.1380 -0.2549  0.2439
   52MOL    C6320565   3.661   0.217   5.023 -0.1931  0.9410  0.2367
   52MOL    C6420566   3.751   0.126   5.091  0.0702 -0.2722 -0.3376
   52MOL    C6520567   3.690   0.028   5.184  0.0810  0.3603 -0.7320
   52MOL    C6620568   3.550   0.013   5.189 -0.1038 -0.6576 -0.3735
   52MOL    O6720569   3.475   7.957   5.255  0.3446  0.1885  0.1099
   52MOL    C6820570   3.551   7.864   5.341  0.4916 -0.4429 -0.6403
   52MOL    C6920571   3.475   0.111   5.127  0.9732  0.2593  0.9396
   52MOL    C7020572   3.522   0.216   5.045  0.0168  0.2254  0.2074
   52MOL    C7120573   3.688   0.459   4.976 -0.1431  0.2961  0.2136
   52MOL    H7220574   3.831   0.307   4.938 -0.1481 -0.2965  0.3532
   52MOL    H7320575   3.859   0.124   5.081 -0.0255 -0.2444 -1.5062
   52MOL    H7420576   3.750   7.998   5.241  0.5067  2.9060  2.0614
   52MOL    H7520577   3.641   7.908   5.384  0.3416 -0.2148 -0.5591
   52MOL    H7620578   3.568   7.777   5.278 -3.4621 -2.1932  0.5823
   52MOL    H7720579   3.492   7.821   5.422  0.8490 -1.3422 -0.8531
   52MOL    H7820580   3.369   0.096   5.114  1.5430 -1.8842 -1.7395
   52MOL    H7920581   3.458   0.274   4.981  1.6128  1.1854 -0.5524
   52MOL    H8020582   3.709   0.537   4.903 -1.7122  0.8958  0.3971
   52MOL    H8120583   3.581   0.472   4.988 -0.5356 -2.0953 -0.3982
   52MOL    C8220584   3.765   0.515   5.104  0.0854 -0.4838  0.5007
   52MOL    C8320585   3.913   0.470   5.115 -0.0522  0.0277  0.1683
   52MOL    C8420586   4.009   0.531   5.034  0.6071  0.1034 -0.5295
   52MOL    C8520587   4.143   0.489   5.041 -0.5932 -0.2068  0.5682
   52MOL    C8620588   4.182   0.392   5.135 -0.7012  0.7063  0.0247
   52MOL    O8720589   4.311   0.336   5.148  0.1293 -0.0359 -0.9418
   52MOL    C8820590   4.402   0.351   5.038 -0.2435 -0.0120 -0.5425
   52MOL    C8920591   4.088   0.336   5.220  0.1016  0.3371  0.1361
   52MOL    C9020592   3.952   0.375   5.212 -0.2068 -0.4464  0.0287
   52MOL    C9120593   3.745   0.664   5.121  0.3700 -0.0029  0.4627
   52MOL    H9220594   3.718   0.463   5.188 -2.8765  2.3430  0.6881
   52MOL    H9320595   3.972   0.613   4.974 -0.9424 -0.1142  0.0756
   52MOL    H9420596   4.217   0.548   4.989 -0.5809 -1.2545 -0.6055
   52MOL    H9520597   4.339   0.349   4.949  0.9277 -0.3218 -1.3673
   52MOL    H9620598   4.473   0.271   5.021 -2.7024 -2.5484  0.7193
   52MOL    H9720599   4.454   0.447   5.048 -0.0098  0.2510 -3.8327
   52MOL    H9820600   4.118   0.263   5.294 -0.9805 -1.2563 -0.9857
   52MOL    H9920601   3.883   0.335   5.286 -2.4062 -1.1985 -2.3539
   52MOL   H10020602   3.763   0.715   5.027 -1.1686  0.8143  0.5906
   52MOL   H10120603   3.638   0.676   5.138  0.8242  2.5543  1.7468
   52MOL   C10220604   3.834   0.732   5.231  0.1937 -0.2216  0.6144
   52MOL   C10320605   3.809   0.880   5.216  0.5728 -0.0799 -0.4073
   52MOL   C10420606   3.899   0.969   5.146 -0.1851  0.2674  0.4107
   52MOL   C10520607   3.883   1.109   5.146 -0.1067 -0.0537 -0.5270
   52MOL   C10620608   3.770   1.166   5.209  0.2212 -0.0945 -0.4206
   52MOL   O10720609   3.749   1.304   5.214 -0.1836  0.2518  0.0311
   52MOL   C10820610   3.862   1.392   5.240 -0.2373 -0.1976 -0.2262
   52MOL   C10920611   3.680   1.079   5.276 -0.8897  0.0347  0.8514
   52MOL   C11020612   3.703   0.940   5.291 -0.5573  0.0275  0.2936
   52MOL   C11120613   3.805   0.667   5.370 -0.2347  0.1064  0.1582
   52MOL   H11220614   3.940   0.726   5.209 -0.0871  2.6626 -1.8210
   52MOL   H11320615   3.976   0.917   5.092 -0.5337  0.2461 -0.0704
   52MOL   H11420616   3.965   1.154   5.092 -1.1671  1.2870 -1.0432
   52MOL   H11520617   3.835   1.498   5.245 -0.4309 -0.2291 -0.5527
   52MOL   H11620618   3.907   1.369   5.336  2.0440  2.2900 -0.6220
   52MOL   H11720619   3.942   1.385   5.166  0.2538  0.4530  0.2358
   52MOL   H11820620   3.593   1.118   5.328 -0.3196 -0.1084  1.9206
   52MOL   H11920621   3.631   0.873   5.336 -2.0656 -0.1170 -2.2293
   52MOL   H12020622   3.696   0.666   5.370 -0.2412 -0.6859 -1.4017
   52MOL   H12120623   3.838   0.564   5.380 -0.7936 -0.0413  0.4814
   52MOL   C12220624   3.865   0.747   5.486  0.3098 -0.2001 -0.3905
   52MOL   C12320625   4.007   0.787   5.469 -0.4667  0.2052 -0.0602
   52MOL   C12420626   4.029   0.927   5.492 -0.6881 -0.1647 -0.0222
   52MOL   C12520627   4.162   0.975   5.473 -0.2600  0.3316  0.3350
   52MOL   C12620628   4.273   0.887   5.458  0.2976 -0.6195 -0.5463
   52MOL   O12720629   4.400   0.936   5.436 -0.1026 -0.3135 -0.3084
   52MOL   C12820630   4.515   0.858   5.470  0.2774  0.1421  0.6312
   52MOL   C12920631   4.245   0.751   5.445  0.0750  0.5843 -0.0990
   52MOL   C13020632   4.112   0.701   5.450 -0.6183  0.0876 -0.1781
   52MOL   C13120633   3.849   0.682   5.631  0.0892  0.3883  0.2141
   52MOL   H13220634   3.809   0.840   5.496 -2.2920 -1.8333  0.8974
   52MOL   H13320635   3.947   0.992   5.518 -0.0189  1.4669 -1.8391
   52MOL   H13420636   4.189   1.079   5.482  0.8179  0.1085 -0.2863
   52MOL   H13520637   4.514   0.764   5.416 -0.0973 -0.3041  1.4109
   52MOL   H13620638   4.606   0.910   5.441 -0.8310  1.3748 -0.7070
   52MOL   H13720639   4.516   0.835   5.576  1.6528  1.1909  0.8554
   52MOL   H13820640   4.312   0.670   5.421 -1.9131 -0.9565 -0.6177
   52MOL   H13920641   4.088   0.597   5.431 -1.6301  0.2812  0.0336
   52MOL   H14020642   3.908   0.743   5.699 -0.3445 -0.1710  1.1108
   52MOL   H14120643   3.894   0.583   5.626 -2.0392 -0.6604  0.9712
   52MOL   C14220644   3.703   0.661   5.681 -0.4291  0.4372  0.2634
   52MOL   C14320645   3.692   0.564   5.803  0.1473 -0.3195  0.1219
   52MOL   C14420646   3.751   0.590   5.930 -0.6107  0.8401 -0.7814
   52MOL   C14520647   3.714   0.508   6.039 -0.1894 -0.5354  0.8650
   52MOL   C14620648   3.636   0.391   6.027 -0.0749 -0.3010 -0.2137
   52MOL   O14720649   3.588   0.314   6.130 -0.6574 -0.3450  0.5321
   52MOL   C14820650   3.600   0.367   6.259 -0.1804 -0.2389 -0.4851
   52MOL   C14920651   3.586   0.360   5.893  0.4072  0.0624  0.5005
   52MOL   C15020652   3.613   0.443   5.781 -1.0307 -1.0792  0.1296
   52MOL   C15120653   3.627   0.792   5.708  0.5191  0.0191 -0.1791
   52MOL   H15220654   3.650   0.620   5.595  2.5810  0.1092 -1.5023
   52MOL   H15320655   3.798   0.685   5.950  1.3510  0.3144 -2.7163
   52MOL   H15420656   3.745   0.543   6.137  2.0740  0.2998 -0.1072
   52MOL   H15520657   3.512   0.328   6.310 -0.6500  1.5921  0.1443
   52MOL   H15620658   3.693   0.344   6.311 -0.3463  0.3769  0.0994
   52MOL   H15720659   3.590   0.476   6.255  0.6863 -0.0852  1.0704
   52MOL   H15820660   3.535   0.266   5.878  0.6325 -0.1102  0.8029
   52MOL   H15920661   3.579   0.426   5.680 -0.0060 -1.9850 -0.0650
   52MOL   H16020662   3.630   0.842   5.611  1.9966 -0.8782 -0.6115
   52MOL   H16120663   3.700   0.853   5.762  1.7874  0.5990 -2.4890
   52MOL   C16220664   3.487   0.784   5.768  0.3443 -0.0836 -0.2757
   52MOL   C16320665   3.390   0.846   5.674 -0.0975  0.6158 -0.7468
   52MOL   C16420666   3.331   0.778   5.572  0.4029  0.0345  0.0776
   52MOL   C16520667   3.239   0.838   5.480  0.0484 -0.0093 -0.0752
   52MOL   C16620668   3.212   0.973   5.493 -0.6157 -0.2963 -0.8908
   52MOL   O16720669   3.128   1.031   5.405  0.1844 -0.5275  0.0797
   52MOL   C16820670   3.117   1.169   5.404  0.0968 -0.0300  0.5570
   52MOL   C16920671   3.275   1.046   5.595 -0.1748  0.6601 -0.3159
   52MOL   C17020672   3.363   0.988   5.681  0.0778 -0.4740  0.2095
   52MOL   C17120673   3.498   0.850   5.911 -0.1503  0.7024 -0.1096
   52MOL   H17220674   3.460   0.682   5.794 -1.6652  0.8947  1.6947
   52MOL   H17320675   3.347   0.671   5.567  0.6124  0.0590  0.2153
   52MOL   H17420676   3.191   0.786   5.399  1.2148 -1.2695  0.0183
   52MOL   H17520677   3.041   1.209   5.337  4.4828  2.6128 -3.0983
   52MOL   H17620678   3.213   1.209   5.373 -1.0772  2.0146 -0.4981
   52MOL   H17720679   3.081   1.209   5.499 -1.5338 -1.0062  0.3677
   52MOL   H17820680   3.250   1.150   5.610  3.7389  1.6651 -0.1100
   52MOL   H17920681   3.419   1.047   5.752  0.7141 -0.3250 -0.4031
   52MOL   H18020682   3.527   0.954   5.899  0.5231  0.6903  1.3114
   52MOL   H18120683   3.580   0.805   5.967 -0.9902 -1.4237 -0.5399
   52MOL   C18220684   3.366   0.839   5.995 -0.7814  0.3677  1.2181
   52MOL   C18320685   3.360   0.951   6.095  0.0797  0.2163 -0.5068
   52MOL   C18420686   3.460   0.950   6.196 -0.4783 -0.4174 -0.6244
   52MOL   C18520687   3.461   1.048   6.299  0.5852 -0.3680 -0.3940
   52MOL   C18620688   3.377   1.157   6.294 -0.3546  0.4596 -0.1007
   52MOL   O18720689   3.411   1.257   6.387  0.2651 -0.0697  0.5537
   52MOL   C18820690   3.358   1.384   6.371 -0.1718  0.0592 -0.5781
   52MOL   C18920691   3.273   1.158   6.196  0.5367 -0.2810  0.4059
   52MOL   C19020692   3.262   1.056   6.101  0.6969  0.2865  0.3218
   52MOL   C19120693   3.325   0.696   6.053  0.2228  0.4516 -0.1552
   52MOL   H19220694   3.288   0.864   5.923 -0.2031  0.1299  0.4942
   52MOL   H19320695   3.534   0.872   6.201  1.2069  1.1128 -1.3119
   52MOL   H19420696   3.535   1.051   6.377 -1.6033 -0.0377  1.7106
   52MOL   H19520697   3.421   1.442   6.438 -0.2119 -0.7904  0.2097
   52MOL   H19620698   3.253   1.390   6.399  0.5634  2.6824  1.8381
   52MOL   H19720699   3.370   1.422   6.270 -1.6094 -0.1848 -0.8460
   52MOL   H19820700   3.202   1.239   6.184 -0.0101 -1.1046 -2.4324
   52MOL   H19920701   3.174   1.059   6.038  1.4503  1.6224 -0.7038
   52MOL   H20020702   3.332   0.627   5.969  1.2128  0.0232  0.2788
   52MOL   H20120703   3.399   0.655   6.120  0.1288  1.9301  0.8799
   52MOL   C20220704   3.194   0.692   6.141 -0.5509  0.4685  0.9617
   52MOL   C20320705   3.197   0.579   6.243  0.1836  0.3581  0.1088
   52MOL   C20420706   3.228   0.451   6.200 -0.4901 -0.2002  0.2346
   52MOL   C20520707   3.246   0.340   6.291 -0.0083  0.4295  0.3225
   52MOL   C20620708   3.237   0.364   6.432 -0.8590  0.2869  0.0503
   52MOL   O20720709   3.245   0.267   6.531 -0.0700  0.4195  0.1829
   52MOL   C20820710   3.283   0.136   6.493  0.3649  0.0975  0.2570
   52MOL   C20920711   3.209   0.494   6.471  0.3850  0.0357  0.1515
   52MOL   C21020712   3.183   0.602   6.382 -0.2601  0.5985  0.2458
   52MOL   C21120713   3.073   0.687   6.047  0.7697  0.1255  0.3840
   52MOL   H21220714   3.191   0.782   6.203  0.6123  1.1463  0.0485
   52MOL   H21320715   3.232   0.426   6.095 -1.6581 -1.5838  0.5040
   52MOL   H21420716   3.251   0.238   6.256 -1.4126 -0.2601  2.0215
   52MOL   H21520717   3.207   0.108   6.421  0.1561 -3.6146  1.7993
   52MOL   H21620718   3.380   0.135   6.444  1.3339  1.9557  2.0606
   52MOL   H21720719   3.279   0.064   6.575 -2.9906  0.2174  0.2860
   52MOL   H21820720   3.195   0.515   6.576 -0.3905 -4.1837  0.9617
   52MOL   H21920721   3.158   0.702   6.413  1.7812  1.5875 -1.1784
   52MOL   H22020722   3.075   0.618   5.963  0.4470  0.8066 -0.1959
   52MOL   H22120723   3.078   0.781   5.992 -1.4144 -0.0988 -0.2284
   52MOL   C22220724   2.935   0.665   6.113 -0.2622 -0.2331 -0.4226
   52MOL   C22320725   2.907   0.758   6.234  0.1511 -0.0124  0.2430
   52MOL   C22420726   2.883   0.706   6.358 -0.3985 -0.7777 -0.2011
   52MOL   C22520727   2.851   0.789   6.465  0.8760  0.6680  0.2594
   52MOL   C22620728   2.853   0.930   6.453 -0.2078  0.6931 -0.6960
   52MOL   O22720729   2.819   1.000   6.566  0.0372 -0.3718  0.8134
   52MOL   C22820730   2.832   1.140   6.563  0.4768  0.3423 -0.6320
   52MOL   C22920731   2.883   0.982   6.327  0.3332 -0.5878 -0.7723
   52MOL   C23020732   2.912   0.900   6.215  0.4465  0.2554  0.2119
   52MOL   C23120733   2.827   0.691   6.007 -0.0494 -0.7076 -0.4212
   52MOL   H23220734   2.926   0.561   6.146 -1.7026  0.0961  0.2414
   52MOL   H23320735   2.887   0.598   6.368 -1.8110 -0.9402 -1.1851
   52MOL   H23420736   2.810   0.743   6.554  0.6031  1.9113  0.7868
   52MOL   H23520737   2.938   1.168   6.566  0.6900 -0.5458  3.2825
   52MOL   H23620738   2.789   1.188   6.476 -0.2212  0.7711 -0.0568
   52MOL   H23720739   2.791   1.158   6.663  3.1619  0.0523  0.5757
   52MOL   H23820740   2.881   1.089   6.310  0.3646  0.0033  2.5568
   52MOL   H23920741   2.913   0.953   6.122  2.1042 -0.9472 -0.4793
   52MOL   H24020742   2.734   0.691   6.064  0.9041 -1.1562  1.1856
   52MOL   H24120743   2.848   0.789   5.965  2.0333 -0.4778  1.1174
   52MOL   C24220744   2.832   0.594   5.891  0.2688  0.4645 -0.9128
   52MOL   C24320745   2.696   0.519   5.884 -0.0288  0.2886 -0.4844
   52MOL   C24420746   2.690   0.384   5.918  0.4103  0.8657 -0.1346
   52MOL   C24520747   2.563   0.323   5.935 -0.0712 -0.1406 -0.0189
   52MOL   C24620748   2.443   0.384   5.894  0.2132  0.4886  0.2119
   52MOL   O24720749   2.329   0.308   5.923  0.2662 -0.6554 -0.0190
   52MOL   C24820750   2.211   0.381   5.951 -0.5115  0.1041  0.2291
   52MOL   C24920751   2.451   0.523   5.854 -0.0182  0.1482 -0.0802
   52MOL   C25020752   2.578   0.590   5.857  0.2324 -0.4760  0.2975
   52MOL   C25120753   2.872   0.670   5.754  0.3300 -0.6985  0.3517
   52MOL   H25220754   2.894   0.512   5.925 -1.4741 -0.8636 -0.8562
   52MOL   H25320755   2.779   0.329   5.943 -1.0817 -0.8522  1.4829
   52MOL   H25420756   2.564   0.216   5.955 -0.1808 -0.2161 -0.4139
   52MOL   H25520757   2.141   0.316   6.005 -0.5800 -0.0376 -0.0295
   52MOL   H25620758   2.240   0.456   6.024  4.4767  1.1840 -2.6443
   52MOL   H25720759   2.162   0.427   5.865  1.3893 -1.1175 -1.5479
   52MOL   H25820760   2.361   0.580   5.835 -0.5108  0.0410  1.9099
   52MOL   H25920761   2.572   0.693   5.825 -0.7605 -0.3460  0.8833
   52MOL   H26020762   2.968   0.717   5.774  0.4248 -0.2830 -1.0452
   52MOL   H26120763   2.812   0.761   5.750  1.4347  0.0531  0.8365
   52MOL   C26220764   2.886   0.593   5.622 -0.3658 -0.5727 -0.6986
   52MOL   C26320765   2.988   0.485   5.647  0.3423 -0.2662 -0.0358
   52MOL   C26420766   3.116   0.522   5.685 -0.3730  0.0406 -0.1568
   52MOL   C26520767   3.214   0.428   5.715 -0.3305  0.8672 -0.0935
   52MOL   C26620768   3.186   0.293   5.705 -0.3936  0.8112 -0.6787
   52MOL   O26720769   3.291   0.213   5.730  0.1371  0.7075 -0.6785
   52MOL   C26820770   3.273   0.076   5.693 -0.0379  0.2791 -0.3063
   52MOL   C26920771   3.052   0.248   5.681 -0.5739 -0.2508  0.5380
   52MOL   C27020772   2.954   0.346   5.655  0.0831 -0.2779 -0.1974
   52MOL   C27120773   2.935   0.689   5.511  0.3018 -0.1125 -0.4850
   52MOL   H27220774   2.793   0.548   5.588 -0.8397 -1.6983  1.9487
   52MOL   H27320775   3.150   0.624   5.689  0.1882 -0.1310 -0.4454
   52MOL   H27420776   3.317   0.457   5.729  0.1980 -0.4320 -1.1310
   52MOL   H27520777   3.258   0.063   5.586  0.2826 -1.5560 -0.1502
   52MOL   H27620778   3.194   0.016   5.740 -0.6486  0.7671 -0.6958
   52MOL   H27720779   3.365   0.027   5.724 -0.1557  1.4630  2.0713
   52MOL   H27820780   3.036   0.142   5.689 -0.4683 -0.1259  2.6516
   52MOL   H27920781   2.852   0.321   5.628  0.8868 -0.8098 -2.9035
   52MOL   H28020782   2.986   0.775   5.553 -0.7517 -0.1236  0.8487
   52MOL   H28120783   3.020   0.637   5.466  1.4572  0.6963  0.7331
   52MOL   C28220784   2.829   0.740   5.411 -0.9513 -0.6333 -0.0202
   52MOL   C28320785   2.720   0.826   5.483  0.1490  0.4606 -0.0220
   52MOL   C28420786   2.596   0.770   5.529  0.0799  0.2432  0.4121
   52MOL   C28520787   2.501   0.847   5.597 -0.1876  0.2424  0.0591
   52MOL   C28620788   2.535   0.981   5.639 -0.3572 -0.2984  0.3382
   52MOL   O28720789   2.442   1.041   5.717 -0.4237  0.1603  0.7462
   52MOL   C28820790   2.482   1.162   5.783  0.4628  0.0219  0.2019
   52MOL   C28920791   2.653   1.040   5.589  0.2352  0.2126  0.0642
   52MOL   C29020792   2.735   0.962   5.503 -0.1840  0.6889  0.2144
   52MOL   C29120793   2.798   0.624   5.318  0.5390 -0.2165 -0.6746
   52MOL   H29220794   2.881   0.813   5.350 -0.0959  0.9748  2.5474
   52MOL   H29320795   2.571   0.665   5.530  0.0261  0.2384 -0.9814
   52MOL   H29420796   2.413   0.799   5.638  0.6793 -0.2860  1.3580
   52MOL   H29520797   2.565   1.143   5.850  0.9008 -2.6086 -1.0145
   52MOL   H29620798   2.520   1.237   5.714 -0.0543  0.0158 -0.0990
   52MOL   H29720799   2.400   1.204   5.842  0.1593 -1.4416  0.8535
   52MOL   H29820800   2.685   1.142   5.599 -1.0079  0.8139 -1.8771
   52MOL   H29920801   2.827   1.004   5.464  0.7850 -2.3742 -0.9271
   52MOL   H30020802   2.745   0.550   5.379  1.0271  0.5923  0.7672
   52MOL   H30120803   2.728   0.651   5.240 -0.5084  1.0843  0.6711
   52MOL   C30220804   2.910   0.549   5.249 -0.2388  0.0957  0.0893
   52MOL   C30320805   2.858   0.418   5.186  0.5424 -0.4791 -0.1484
   52MOL   C30420806   2.860   0.298   5.263  0.2927  0.1650  0.0381
   52MOL   C30520807   2.810   0.175   5.209 -0.5261 -0.3704  0.1302
   52MOL   C30620808   2.746   0.177   5.087  0.3994 -0.0342  0.5774
   52MOL   O30720809   2.699   0.058   5.030 -0.0720 -0.0376  0.3088
   52MOL   C30820810   2.698   7.978   5.107  0.0265 -0.0970 -0.1465
   52MOL   C30920811   2.754   0.286   5.004  1.0738 -0.0153 -0.9184
   52MOL   C31020812   2.806   0.410   5.055 -0.4645 -0.3098 -0.0531
   52MOL   C31120813   2.987   0.639   5.157 -0.0106 -0.2716 -0.1328
   52MOL   H31220814   2.985   0.506   5.315 -0.1121  0.6480  0.2978
   52MOL   H31320815   2.900   0.293   5.363 -0.8018 -1.0954  0.4307
   52MOL   H31420816   2.819   0.097   5.284 -1.5553 -1.7640 -1.1675
   52MOL   H31520817   2.795   7.949   5.147  0.2997 -0.3836 -1.0058
   52MOL   H31620818   2.658   7.899   5.042  0.7756  0.1458 -0.9107
   52MOL   H31720819   2.640   7.984   5.199  1.9901  1.8897  0.9984
   52MOL   H31820820   2.706   0.271   4.908  0.3279 -1.6929 -0.3050
   52MOL   H31920821   2.803   0.499   4.993  1.5696 -1.8930 -2.4895
   52MOL   H32020822   3.033   0.720   5.214  0.4697  0.4586 -1.5425
   52MOL   H32120823   2.912   0.669   5.084  1.6919 -0.4190 -2.0131
   52MOL   C32220824   3.098   0.560   5.086  0.2356 -0.4432  0.7866
   52MOL   C32320825   3.213   0.520   5.184  0.1345 -0.2169 -0.3660
   52MOL   C32420826   3.231   0.390   5.223 -0.0347 -0.3623  0.0180
   52MOL   C32520827   3.346   0.356   5.300 -0.2299  0.5073 -0.1099
   52MOL   C32620828   3.435   0.452   5.342  0.3868 -0.2206 -0.1248
   52MOL   O32720829   3.536   0.424   5.433 -0.0648 -0.5768  0.3518
   52MOL   C32820830   3.562   0.291   5.468 -0.7057  0.2906 -0.2860
   52MOL   C32920831   3.413   0.588   5.312 -0.6080  1.2839  0.3666
   52MOL   C33020832   3.300   0.614   5.230 -0.1848 -0.0859 -0.0839
   52MOL   C33120833   3.139   0.640   4.966 -0.8828 -0.3296  0.3779
   52MOL   H33220834   3.053   0.467   5.053  1.6504 -0.8676 -0.0081
   52MOL   H33320835   3.158   0.323   5.180 -0.9411 -0.3560  1.4964
   52MOL   H33420836   3.369   0.253   5.320 -1.0782  0.3402  0.0203
   52MOL   H33520837   3.661   0.294   5.514 -0.3939 -0.4945 -0.9028
   52MOL   H33620838   3.575   0.224   5.383 -1.6948 -2.2005  1.4813
   52MOL   H33720839   3.482   0.251   5.529  0.0536 -1.2464 -0.2789
   52MOL   H33820840   3.480   0.667   5.344  0.9362  0.4808 -0.7980
   52MOL   H33920841   3.277   0.711   5.190 -2.3149 -0.8510 -0.8363
   52MOL   H34020842   3.057   0.699   4.924 -0.5147 -1.6871 -2.3232
   52MOL   H34120843   3.220   0.706   4.996  0.2785 -1.0895 -1.0408
   52MOL   C34220844   3.193   0.545   4.859  0.5053  0.2181  0.8911
   52MOL   C34320845   3.286   0.619   4.755 -0.0313 -0.8825  0.9223
   52MOL   C34420846   3.243   0.735   4.694 -0.2697 -0.4916  0.2895
   52MOL   C34520847   3.330   0.809   4.609  0.0738 -0.4372 -0.3506
   52MOL   C34620848   3.466   0.767   4.593 -0.2333  0.1374  0.3983
   52MOL   O34720849   3.564   0.827   4.511  0.2530  0.1129  0.0121
   52MOL   C34820850   3.524   0.956   4.456  0.8790 -0.2182 -0.0497
   52MOL   C34920851   3.504   0.646   4.658 -0.0901 -0.5608  0.4607
   52MOL   C35020852   3.414   0.572   4.736  0.9327 -0.2855 -0.8367
   52MOL   C35120853   3.078   0.469   4.785  0.1021  0.0580  0.1005
   52MOL   H35220854   3.253   0.476   4.917  0.2968 -0.6587  0.0799
   52MOL   H35320855   3.144   0.775   4.709 -0.8242 -0.5745 -2.8789
   52MOL   H35420856   3.293   0.890   4.547  0.8729  1.1044  1.1700
   52MOL   H35520857   3.449   0.949   4.376 -0.3758  1.0854  0.9900
   52MOL   H35620858   3.487   1.031   4.526 -1.4456 -2.3284  1.0373
   52MOL   H35720859   3.613   0.997   4.409 -0.3377 -0.2839 -2.4979
   52MOL   H35820860   3.605   0.610   4.646  1.3834  3.2862  0.5652
   52MOL   H35920861   3.448   0.483   4.787 -0.3196 -0.6782 -0.6799
   52MOL   H36020862   3.008   0.420   4.852 -1.4502  0.7472 -0.9830
   52MOL   H36120863   3.022   0.542   4.726 -1.3318 -1.6348 -0.7145
   52MOL   C36220864   3.116   0.362   4.673 -0.2528  0.1619 -0.0644
   52MOL   C36320865   2.997   0.323   4.585 -0.2388 -0.2841 -0.6456
   52MOL   C36420866   2.868   0.304   4.654 -0.2092 -0.4715 -0.4792
   52MOL   C36520867   2.753   0.291   4.581 -0.8764 -0.0884  0.3171
   52MOL   C36620868   2.762   0.299   4.439  0.5625 -0.0498 -0.1701
   52MOL   O36720869   2.643   0.278   4.376  0.4854  0.3326  0.6687
   52MOL   C36820870   2.651   0.224   4.238  0.4849  0.2609 -0.3569
   52MOL   C36920871   2.881   0.320   4.369  0.5734 -0.5327 -1.1097
   52MOL   C37020872   3.000   0.328   4.444 -0.3512 -0.1790  0.1266
   52MOL   C37120873   3.184   0.231   4.735  0.1595 -0.2474  0.0370
   52MOL   H37220874   3.178   0.414   4.601  1.5731  0.4428  1.6757
   52MOL   H37320875   2.863   0.283   4.760 -1.6045  0.1398 -0.4111
   52MOL   H37420876   2.657   0.290   4.632 -1.0518 -1.0451 -0.0270
   52MOL   H37520877   2.548   0.196   4.215  1.3014 -0.3049 -3.5789
   52MOL   H37620878   2.689   0.294   4.164 -1.8397  1.0497 -0.8477
   52MOL   H37720879   2.711   0.133   4.236  2.1246  1.3163  0.1878
   52MOL   H37820880   2.893   0.320   4.261 -2.4065  0.5079 -1.4923
   52MOL   H37920881   3.086   0.367   4.391 -0.1689 -0.8590 -0.0770
   52MOL   H38020882   3.266   0.273   4.793 -2.1330  0.1936  3.0852
   52MOL   H38120883   3.113   0.183   4.802 -0.6392  0.2673 -0.4438
   52MOL   C38220884   3.230   0.126   4.635 -0.2846 -0.2799 -0.0566
   52MOL   C38320885   3.292   0.005   4.694  0.2620  0.0916  0.0344
   52MOL   C38420886   3.356   0.004   4.819  0.3638 -0.7916  0.3160
   52MOL   C38520887   3.410   7.925   4.876  0.2602  0.4214 -0.0495
   52MOL   C38620888   3.391   7.802   4.805  0.1845  0.1836  0.1455
   52MOL   O38720889   3.450   7.687   4.850  0.7445 -0.1319  0.2890
   52MOL   C38820890   3.490   7.680   4.979  0.1893  0.4131 -0.2323
   52MOL   C38920891   3.328   7.800   4.682  0.1420  0.8625 -1.0318
   52MOL   C39020892   3.276   7.917   4.627  0.3283  0.1171  0.0916
   52MOL   C39120893   3.334   0.194   4.540 -0.6857  0.2337 -1.1258
   52MOL   H39220894   3.140   0.098   4.580 -0.7765  0.7208  0.2097
   52MOL   H39320895   3.368   0.096   4.875 -2.1709 -0.2187 -0.0283
   52MOL   H39420896   3.462   7.921   4.971  1.9650  0.6291 -0.9646
   52MOL   H39520897   3.423   7.710   5.059  2.9405  3.6897  0.9768
   52MOL   H39620898   3.585   7.734   4.991 -0.3798  1.0400  1.6148
   52MOL   H39720899   3.521   7.575   4.980  1.7964  0.8447 -1.4402
   52MOL   H39820900   3.309   7.709   4.626 -0.6683  1.4605 -1.7396
   52MOL   H39920901   3.233   7.922   4.528 -1.7487  0.3666  0.9892
   52MOL   H40020902   3.387   0.127   4.471 -0.4329 -0.1297 -0.5777
   52MOL   H40120903   3.413   0.232   4.603  0.0021 -0.2532 -1.6868
   52MOL   H40220904   3.288   0.271   4.477 -2.2627  0.0210 -0.2482
   53MOL     C120905   0.468   1.124   1.553  0.8289 -0.0603  0.1306
   53MOL     C220906   0.479   1.148   1.403 -0.7014 -0.0826 -0.4630
   53MOL     C320907   0.464   1.035   1.310  0.2801  0.3745 -0.2289
   53MOL     C420908   0.477   1.062   1.178 -0.5060 -0.9533 -0.0925
   53MOL     C520909   0.508   1.185   1.127 -0.3212 -0.3239 -0.4369
   53MOL     O620910   0.507   1.191   0.993 -0.4901 -0.2088  0.4198
   53MOL     C720911   0.548   1.310   0.934  1.0517 -0.7612 -0.2342
   53MOL     C820912   0.543   1.289   1.217 -0.6793  0.9251 -0.6294
   53MOL     C920913   0.527   1.272   1.359 -0.0287 -0.0337  0.5467
   53MOL    C1020914   0.320   1.116   1.598 -0.2433  0.2187  0.1917
   53MOL    H1120915   0.527   1.186   1.620 -0.8616  1.7715 -0.0205
   53MOL    H1220916   0.427   0.940   1.346  0.8506  0.0217 -0.5435
   53MOL    H1320917   0.447   0.988   1.107  2.7504 -2.2855 -0.1870
   53MOL    H1420918   0.466   1.380   0.949  0.9557 -0.6025 -1.4556
   53MOL    H1520919   0.645   1.339   0.973  0.1154 -0.0677  1.6602
   53MOL    H1620920   0.568   1.290   0.829 -0.2422 -1.1676 -0.4219
   53MOL    H1720921   0.576   1.386   1.182  1.1583  1.0410  1.3375
   53MOL    H1820922   0.545   1.356   1.425 -0.6272  0.0913  0.5619
   53MOL    H1920923   0.295   1.221   1.612  0.6787  0.5009 -0.2402
   53MOL    H2020924   0.253   1.083   1.519  0.3151  0.3822 -0.3515
   53MOL    H2120925   0.517   1.027   1.564  1.1522  0.0247 -0.5986
   53MOL    C2220926   0.292   1.039   1.720 -0.4911 -0.1008 -0.3127
   53MOL    C2320927   0.407   1.039   1.827  0.8199  0.1939  0.0588
   53MOL    C2420928   0.457   0.914   1.867  0.4551 -0.1788  0.0816
   53MOL    C2520929   0.558   0.922   1.966  0.0618  0.9259  0.1702
   53MOL    C2620930   0.601   1.048   2.026  0.7507 -0.1768  0.1793
   53MOL    O2720931   0.678   1.049   2.133  0.8975  0.7736  0.3420
   53MOL    C2820932   0.784   0.952   2.140  0.1742 -0.0570  0.4551
   53MOL    C2920933   0.543   1.167   1.977 -0.1478  0.9450  0.2319
   53MOL    C3020934   0.440   1.160   1.883  0.3920  0.3208 -0.3941
   53MOL    C3120935   0.151   1.068   1.768  0.1521  1.0250  0.3216
   53MOL    H3220936   0.286   0.934   1.690  0.2612 -0.2808  0.1714
   53MOL    H3320937   0.429   0.824   1.815 -1.1672  0.0214  0.5907
   53MOL    H3420938   0.600   0.831   2.004  0.9077  0.9919 -0.5892
   53MOL    H3520939   0.867   0.978   2.206 -0.2823  0.8035  0.6943
   53MOL    H3620940   0.815   0.935   2.037  0.2918 -0.1505  0.5061
   53MOL    H3720941   0.744   0.856   2.172 -0.3570  0.7379  2.2283
   53MOL    H3820942   0.579   1.261   2.016  2.5231 -0.0945  0.3901
   53MOL    H3920943   0.402   1.250   1.836 -0.8443  0.1397  0.2486
   53MOL    H4020944   0.163   1.166   1.813 -0.9592  1.7929 -1.0059
   53MOL    H4120945   0.073   1.066   1.692 -0.2750 -0.6429  0.7824
   53MOL    C4220946   0.091   0.969   1.870 -0.4760 -0.3305 -0.1849
   53MOL    C4320947   0.061   0.829   1.812 -0.4504  0.2890  0.1133
   53MOL    C4420948   0.129   0.718   1.862 -0.2520  0.2203  0.0968
   53MOL    C4520949   0.092   0.590   1.820 -0.1936 -0.1645 -0.5882
   53MOL    C4620950   8.020   0.567   1.739 -0.6943 -0.0317  0.0501
   53MOL    O4720951   7.993   0.434   1.711  0.8489 -0.2217 -0.2214
   53MOL    C4820952   7.864   0.419   1.661  0.3732  0.0204 -0.9607
   53MOL    C4920953   7.951   0.679   1.689  0.0176 -1.0501 -0.5708
   53MOL    C5020954   7.999   0.809   1.717  0.3755  0.0820 -0.5283
   53MOL    C5120955   8.016   1.039   1.940 -0.4291  0.5251  0.7435
   53MOL    H5220956   0.162   0.961   1.953  0.0189 -1.4184 -0.7145
   53MOL    H5320957   0.210   0.737   1.930 -0.5040  1.0022  0.1867
   53MOL    H5420958   0.154   0.508   1.854  1.0108  0.8130 -0.4033
   53MOL    H5520959   7.852   0.450   1.557  0.2234  0.4827 -0.8039
   53MOL    H5620960   7.837   0.313   1.656  0.3572  0.0524 -1.5762
   53MOL    H5720961   7.791   0.477   1.716 -1.1800 -1.8112 -1.0448
   53MOL    H5820962   7.866   0.675   1.622 -0.7648 -2.0048  0.4593
   53MOL    H5920963   7.957   0.894   1.666  0.0807 -0.5575 -1.3487
   53MOL    H6020964   7.940   1.071   1.868  1.8224  0.9372 -1.5120
   53MOL    H6120965   0.012   1.132   1.983  1.8161 -0.1184  0.3440
   53MOL    C6220966   7.938   0.964   2.056 -0.0026  0.4744 -0.3463
   53MOL    C6320967   7.820   1.049   2.098  0.3523  0.4881 -0.4123
   53MOL    C6420968   7.691   1.007   2.084  0.3269 -0.3069 -0.2439
   53MOL    C6520969   7.579   1.094   2.114 -0.4986  0.4606  1.0717
   53MOL    C6620970   7.603   1.221   2.168  0.2272  0.2398 -0.0494
   53MOL    O6720971   7.493   1.306   2.193  0.0386 -0.2069 -0.5259
   53MOL    C6820972   7.521   1.432   2.262 -0.1707 -1.0227 -0.0855
   53MOL    C6920973   7.732   1.262   2.189 -1.1054  0.0220  0.5442
   53MOL    C7020974   7.839   1.175   2.155 -0.0250  0.2646 -0.1389
   53MOL    C7120975   8.034   0.934   2.177 -0.0418 -1.6882  0.6663
   53MOL    H7220976   7.907   0.864   2.024  2.0168 -0.5266  0.7091
   53MOL    H7320977   7.669   0.905   2.053 -0.1267 -1.1803  2.8285
   53MOL    H7420978   7.482   1.059   2.083  0.1330 -0.2557 -0.1481
   53MOL    H7520979   7.451   1.514   2.247  0.6381 -0.4150 -0.6177
   53MOL    H7620980   7.607   1.487   2.225  1.6893 -2.8319  1.4278
   53MOL    H7720981   7.540   1.423   2.369  1.4301 -0.7852 -0.3315
   53MOL    H7820982   7.763   1.352   2.240 -1.3333 -0.5231  1.6467
   53MOL    H7920983   7.940   1.197   2.187 -0.8120 -0.3992  3.0037
   53MOL    H8020984   0.087   0.888   2.144  0.4761 -1.0121  1.1825
   53MOL    H8120985   0.030   1.023   2.227 -0.8837 -1.6940  1.2845
   53MOL    C8220986   7.972   0.836   2.279  0.4366 -0.1047 -0.3534
   53MOL    C8320987   7.971   0.688   2.230 -0.3737  0.2050 -0.4571
   53MOL    C8420988   7.846   0.617   2.204  0.1363 -0.4217  1.2967
   53MOL    C8520989   7.843   0.481   2.172  0.2832  0.3142  0.0623
   53MOL    C8620990   7.956   0.403   2.161 -0.5123 -0.7540 -0.8135
   53MOL    O8720991   7.949   0.273   2.117 -0.5920  0.0884  0.7315
   53MOL    C8820992   0.018   0.193   2.125 -0.6948 -0.3932 -0.4413
   53MOL    C8920993   0.044   0.476   2.173 -0.5255  0.3352 -0.1404
   53MOL    C9020994   0.050   0.615   2.209  0.0934  0.4874 -0.5827
   53MOL    C9120995   8.037   0.847   2.418 -0.1271 -0.0446  0.0075
   53MOL    H9220996   7.865   0.856   2.275  0.3065 -0.7375 -0.1560
   53MOL    H9320997   7.753   0.666   2.229 -0.8211 -1.3253 -0.3433
   53MOL    H9420998   7.747   0.432   2.158  1.6107 -2.7043  1.0440
   53MOL    H9520999   8.025   0.090   2.111 -3.2371  0.4288 -0.7933
   53MOL    H9621000   0.073   0.196   2.220 -0.6189 -2.6103 -0.3840
   53MOL    H9721001   0.095   0.210   2.049 -0.6192 -1.6986 -0.6584
   53MOL    H9821002   0.138   0.426   2.156  0.4175  2.3232 -0.9000
   53MOL    H9921003   0.147   0.662   2.217  0.5415 -0.4879 -0.1439
   53MOL   H10021004   0.008   0.750   2.467  1.5406  0.4703  0.6997
   53MOL   H10121005   0.101   0.879   2.418  0.2393 -1.1607  1.2419
   53MOL   C10221006   7.940   0.950   2.490  1.0677  0.1823  0.3954
   53MOL   C10321007   7.813   0.881   2.529 -0.9310  0.7096  0.0710
   53MOL   C10421008   7.691   0.941   2.486  0.5344  0.3363 -0.4222
   53MOL   C10521009   7.572   0.888   2.536  0.1023  0.2166 -0.0290
   53MOL   C10621010   7.570   0.771   2.617  1.1591 -0.5779  0.5494
   53MOL   O10721011   7.446   0.724   2.665 -0.3040 -0.2550  0.8141
   53MOL   C10821012   7.326   0.794   2.649  0.7012 -0.0619 -0.3107
   53MOL   C10921013   7.685   0.715   2.656 -0.4543  0.4654  0.0562
   53MOL   C11021014   7.809   0.768   2.616  0.2118 -0.8920 -0.4025
   53MOL   C11121015   7.996   1.017   2.614  0.3482  0.0776 -0.1820
   53MOL   H11221016   7.912   1.024   2.414 -2.2443 -0.8931  0.4795
   53MOL   H11321017   7.694   1.015   2.408  1.4122  0.7418 -0.0169
   53MOL   H11421018   7.477   0.928   2.501 -1.2755 -1.1871  1.9859
   53MOL   H11521019   7.291   0.771   2.548  2.2590  1.0813 -1.1392
   53MOL   H11621020   7.261   0.744   2.721  1.1707 -0.8566 -0.4250
   53MOL   H11721021   7.338   0.901   2.658 -1.6176  0.1708  0.3324
   53MOL   H11821022   7.687   0.631   2.724  0.9776  0.8413  0.4811
   53MOL   H11921023   7.892   0.719   2.666  1.3529  1.7543  0.3609
   53MOL   H12021024   8.028   0.938   2.681 -1.6442 -0.0056  0.6953
   53MOL   H12121025   0.051   1.060   2.584  1.6777 -3.8884 -1.8532
   53MOL   C12221026   7.904   1.116   2.691 -0.1898 -0.2998 -0.2655
   53MOL   C12321027   7.874   1.251   2.621  0.2578  0.1058 -0.9477
   53MOL   C12421028   7.964   1.306   2.526  0.1446  0.2901  0.6805
   53MOL   C12521029   7.939   1.436   2.479 -0.1299 -0.7217  0.7146
   53MOL   C12621030   7.824   1.503   2.497  0.5300  0.3379  0.0922
   53MOL   O12721031   7.808   1.624   2.436  0.3337 -0.2165  0.0023
   53MOL   C12821032   7.701   1.709   2.475 -0.8600  0.6844 -0.0326
   53MOL   C12921033   7.727   1.440   2.579 -0.0390 -0.1515  0.0123
   53MOL   C13021034   7.756   1.321   2.647 -0.6305  0.0451 -0.6498
   53MOL   C13121035   7.951   1.130   2.835  0.3968 -0.3745 -0.6800
   53MOL   H13221036   7.806   1.068   2.702 -0.5909  0.9471  1.8396
   53MOL   H13321037   0.018   1.255   2.505 -0.3707  0.0168 -1.0236
   53MOL   H13421038   8.016   1.476   2.415  0.5549 -1.9446  0.7646
   53MOL   H13521039   7.624   1.685   2.402 -1.0534  0.6215  0.1927
   53MOL   H13621040   7.662   1.699   2.576 -0.5310  0.0785  0.0344
   53MOL   H13721041   7.729   1.812   2.453  0.2116 -0.0426 -2.2302
   53MOL   H13821042   7.624   1.474   2.581  0.6690  2.0691  0.0510
   53MOL   H13921043   7.675   1.280   2.704  0.2512  0.4362  0.9320
   53MOL   H14021044   7.932   1.033   2.880 -1.7059  0.0326 -0.6366
   53MOL   H14121045   7.873   1.190   2.882  1.1104  1.0633 -1.2790
   53MOL   C14221046   0.052   1.194   2.857  0.2730 -0.2176  0.1276
   53MOL   C14321047   0.044   1.276   2.981  0.0402 -0.6527  0.1445
   53MOL   C14421048   0.043   1.419   2.975  0.5707 -0.0454  0.6831
   53MOL   C14521049   0.047   1.487   3.096 -0.1790 -0.2583  0.2766
   53MOL   C14621050   0.062   1.429   3.220  0.6903 -0.2187 -0.2260
   53MOL   O14721051   0.055   1.512   3.332  0.0476 -0.5897 -0.0930
   53MOL   C14821052   0.057   1.452   3.461 -0.0299 -0.1512 -0.0459
   53MOL   C14921053   0.074   1.289   3.222 -0.0774 -0.1757 -0.1580
   53MOL   C15021054   0.051   1.213   3.105 -0.2186  0.2827 -0.2584
   53MOL   C15121055   0.172   1.092   2.847  0.6203  0.2986 -0.4182
   53MOL   H15221056   0.070   1.273   2.784  0.1970 -0.6478 -0.3616
   53MOL   H15321057   0.024   1.472   2.883 -0.1792  0.3566  1.0702
   53MOL   H15421058   0.034   1.595   3.092 -0.4338 -0.3179 -0.6348
   53MOL   H15521059   8.009   1.388   3.471 -0.5165  0.4097 -0.6971
   53MOL   H15621060   0.145   1.390   3.478 -0.5775 -1.2612 -1.1505
   53MOL   H15721061   0.055   1.534   3.534 -0.6668  0.2003 -0.4579
   53MOL   H15821062   0.088   1.249   3.321  1.0290 -0.6901 -0.5207
   53MOL   H15921063   0.059   1.106   3.110  1.5812  0.4935  2.7742
   53MOL   H16021064   0.179   1.037   2.753 -1.8791 -0.9997  0.1357
   53MOL   H16121065   0.151   1.002   2.904 -1.2676 -0.3016 -2.0101
   53MOL   C16221066   0.310   1.143   2.876 -0.1362 -1.3618  0.1441
   53MOL   C16321067   0.355   1.255   2.790 -0.3175  0.0591  0.0920
   53MOL   C16421068   0.339   1.245   2.650 -0.0825 -0.3049  0.9155
   53MOL   C16521069   0.364   1.353   2.567  0.2781 -0.1095  0.0736
   53MOL   C16621070   0.416   1.470   2.616 -0.1631  0.6668  0.2855
   53MOL   O16721071   0.457   1.565   2.523  0.0909  0.5395 -0.4631
   53MOL   C16821072   0.549   1.672   2.557 -0.2029 -0.5324  0.8067
   53MOL   C16921073   0.431   1.479   2.760  0.8486 -0.2535  0.1647
   53MOL   C17021074   0.406   1.376   2.850  0.0998  0.1625 -0.4503
   53MOL   C17121075   0.418   1.037   2.928  0.0694  0.8243  0.0001
   53MOL   H17221076   0.297   1.199   2.969  2.5993  0.4434 -0.4948
   53MOL   H17321077   0.303   1.158   2.598 -0.4070  0.6686 -0.5563
   53MOL   H17421078   0.337   1.361   2.463  0.2669  2.2804  0.2309
   53MOL   H17521079   0.523   1.718   2.653  2.5605 -2.7590  2.6831
   53MOL   H17621080   0.543   1.757   2.488  3.2978 -1.5523 -0.8445
   53MOL   H17721081   0.648   1.630   2.544  1.1414  2.9255 -0.8045
   53MOL   H17821082   0.467   1.569   2.807 -0.1237  0.2459 -0.0439
   53MOL   H17921083   0.416   1.392   2.957  0.4578  0.9292 -0.5938
   53MOL   H18021084   0.365   0.952   2.970 -1.1483  1.0918 -0.9828
   53MOL   H18121085   0.474   1.081   3.011  0.1846 -1.1275  0.9812
   53MOL   C18221086   0.533   0.995   2.829 -1.1682  0.8316  0.1597
   53MOL   C18321087   0.479   0.932   2.704  0.1418  0.8643 -0.5215
   53MOL   C18421088   0.365   0.848   2.697  0.2411 -0.1144  0.0409
   53MOL   C18521089   0.323   0.793   2.575 -0.1074  1.0615 -0.3583
   53MOL   C18621090   0.382   0.830   2.453  0.3466  0.3669 -0.2372
   53MOL   O18721091   0.325   0.788   2.338 -0.6265 -0.4851  0.4973
   53MOL   C18821092   0.378   0.835   2.214 -0.1252  0.1435  0.2070
   53MOL   C18921093   0.498   0.911   2.464 -0.1935 -0.2759 -0.2449
   53MOL   C19021094   0.548   0.952   2.586  0.3732  0.4081 -0.2796
   53MOL   C19121095   0.640   0.903   2.895 -0.0994  0.1025 -0.4085
   53MOL   H19221096   0.599   1.077   2.802 -0.5760 -0.5308 -2.8137
   53MOL   H19321097   0.308   0.820   2.785  1.6312  0.8007  1.2515
   53MOL   H19421098   0.242   0.721   2.579  0.5360  0.2481 -1.4255
   53MOL   H19521099   0.378   0.944   2.207  1.2939  0.1575  0.4437
   53MOL   H19621100   0.312   0.791   2.139  0.7337  1.8701 -1.5970
   53MOL   H19721101   0.484   0.817   2.200  0.4794  2.9693  0.8009
   53MOL   H19821102   0.551   0.930   2.372  1.6723 -2.9464  0.2161
   53MOL   H19921103   0.633   1.018   2.593  0.1792  0.5336  1.1334
   53MOL   H20021104   0.729   0.912   2.833  1.1132  0.3381  1.3417
   53MOL   H20121105   0.670   0.948   2.989  2.9860 -1.7632 -0.4421
   53MOL   C20221106   0.620   0.749   2.921 -0.6474  0.4322  0.3137
   53MOL   C20321107   0.511   0.719   3.023 -0.2536  0.4281  0.0465
   53MOL   C20421108   0.407   0.633   2.989  0.2944 -0.1344 -0.0057
   53MOL   C20521109   0.306   0.600   3.080  0.4602 -0.0345  0.3981
   53MOL   C20621110   0.310   0.653   3.208 -0.0227 -0.0347 -0.7172
   53MOL   O20721111   0.202   0.626   3.290 -0.0900  0.2156  0.3327
   53MOL   C20821112   0.174   0.714   3.395 -0.4718  0.3085  0.1869
   53MOL   C20921113   0.420   0.736   3.252 -0.2184 -0.1263 -0.5163
   53MOL   C21021114   0.514   0.775   3.153 -0.6125  0.0959  1.0835
   53MOL   C21121115   0.735   0.659   2.969  0.2353 -0.2997 -0.1100
   53MOL   H21221116   0.582   0.715   2.825 -2.2742  0.0172  1.0829
   53MOL   H21321117   0.406   0.601   2.886 -0.4259  2.7162 -0.9178
   53MOL   H21421118   0.221   0.535   3.069  0.4959  0.0655 -0.5408
   53MOL   H21521119   0.071   0.693   3.427 -1.8480  1.9767 -2.9188
   53MOL   H21621120   0.235   0.689   3.482 -3.8027 -1.3799  2.1532
   53MOL   H21721121   0.175   0.819   3.367 -1.0906  0.3553  0.3329
   53MOL   H21821122   0.420   0.752   3.359 -2.1530  1.4376 -0.7176
   53MOL   H21921123   0.597   0.838   3.184 -0.4250 -1.5881  4.1874
   53MOL   H22021124   0.693   0.567   3.009 -0.2552  0.3636  0.9187
   53MOL   H22121125   0.777   0.690   3.065 -0.2686 -1.3007  0.4394
   53MOL   C22221126   0.843   0.628   2.866  0.2391  0.7069  0.0556
   53MOL   C22321127   0.936   0.743   2.851  0.4494 -0.3873  0.6711
   53MOL   C22421128   1.013   0.777   2.963 -0.3534  0.9794 -0.6482
   53MOL   C22521129   1.104   0.880   2.964  0.0861 -1.0318 -0.0203
   53MOL   C22621130   1.123   0.954   2.844  0.4898 -0.4024  0.1174
   53MOL   O22721131   1.197   1.072   2.830  0.3015 -0.1819  0.2555
   53MOL   C22821132   1.261   1.126   2.938 -0.9271  0.1257 -0.2072
   53MOL   C22921133   1.057   0.918   2.726 -0.2991 -0.8820  0.3462
   53MOL   C23021134   0.964   0.816   2.732 -0.2216  0.1794 -0.3676
   53MOL   C23121135   0.914   0.498   2.900 -0.1617 -0.4984  0.2457
   53MOL   H23221136   0.804   0.612   2.766 -3.2753  2.9665  0.9723
   53MOL   H23321137   0.998   0.721   3.054  0.5518  0.4058 -0.8449
   53MOL   H23421138   1.149   0.920   3.053 -1.2719  2.1856 -0.6995
   53MOL   H23521139   1.195   1.157   3.019  0.3234  0.5692  0.6479
   53MOL   H23621140   1.331   1.058   2.986 -0.9244  0.4892  0.3112
   53MOL   H23721141   1.315   1.214   2.903 -0.1272 -0.8609 -1.4980
   53MOL   H23821142   1.074   0.977   2.637  2.0985 -2.1622 -0.0787
   53MOL   H23921143   0.918   0.777   2.642 -1.0362  0.3740 -0.0331
   53MOL   H24021144   0.991   0.478   2.825  0.5840  1.3333  0.5133
   53MOL   H24121145   0.956   0.519   2.999  1.0417 -0.1364 -0.3442
   53MOL   C24221146   0.822   0.373   2.895  0.2992  0.2688 -0.6317
   53MOL   C24321147   0.719   0.365   2.781 -0.6253 -0.3064 -0.2080
   53MOL   C24421148   0.582   0.385   2.807  0.5112  0.5963 -0.1481
   53MOL   C24521149   0.489   0.391   2.702  0.5060 -0.2199  0.0119
   53MOL   C24621150   0.539   0.359   2.574  0.3259 -0.8570  0.0629
   53MOL   O24721151   0.458   0.351   2.459  0.4396 -0.2752  0.0332
   53MOL   C24821152   0.322   0.407   2.458  0.0697  0.7444  0.2059
   53MOL   C24921153   0.676   0.340   2.548  0.2617 -0.1963  0.0188
   53MOL   C25021154   0.768   0.355   2.648  0.6266  0.1249 -0.0986
   53MOL   C25121155   0.888   0.237   2.910 -0.2161  0.3688  0.1920
   53MOL   H25221156   0.774   0.389   2.992 -1.8854 -0.1709 -1.6093
   53MOL   H25321157   0.548   0.414   2.905  1.9053 -1.6706  1.0595
   53MOL   H25421158   0.389   0.414   2.736  1.2640  2.9813  0.2554
   53MOL   H25521159   0.280   0.354   2.372 -2.0409 -0.1027  1.7036
   53MOL   H25621160   0.260   0.375   2.542 -1.1828 -1.0633 -1.3658
   53MOL   H25721161   0.319   0.515   2.443 -2.3528  0.6306 -0.3997
   53MOL   H25821162   0.701   0.327   2.443  0.6170 -2.0682  0.3276
   53MOL   H25921163   0.874   0.363   2.630  0.3268  3.8805 -0.6114
   53MOL   H26021164   0.995   0.238   2.889 -0.5349  2.1111 -1.4478
   53MOL   H26121165   0.845   0.155   2.852 -1.5724  0.9081  0.4177
   53MOL   C26221166   0.875   0.185   3.054 -0.4928  0.2389 -0.2547
   53MOL   C26321167   0.937   0.279   3.161  0.2819 -0.2822  0.2717
   53MOL   C26421168   1.083   0.284   3.177  0.0000  0.0530 -0.3729
   53MOL   C26521169   1.141   0.364   3.274 -0.3927 -0.3268 -0.0309
   53MOL   C26621170   1.062   0.435   3.365 -0.6842  0.4576  0.1723
   53MOL   O26721171   1.130   0.503   3.463 -0.0866 -0.2132 -0.0278
   53MOL   C26821172   1.056   0.571   3.564  0.3883  0.0534 -0.0960
   53MOL   C26921173   0.924   0.439   3.342 -0.9014  0.2994  0.0356
   53MOL   C27021174   0.859   0.357   3.248  0.1886 -0.2326  0.4328
   53MOL   C27121175   0.921   0.036   3.076  0.7270  0.2817  0.3254
   53MOL   H27221176   0.767   0.187   3.071 -0.1819  0.6405  1.7683
   53MOL   H27321177   1.148   0.218   3.121  1.7119 -0.1822  1.8408
   53MOL   H27421178   1.247   0.354   3.293 -0.2191 -0.2469 -0.9290
   53MOL   H27521179   1.136   0.627   3.612  0.4117  1.5578 -1.8698
   53MOL   H27621180   1.014   0.506   3.641  0.4431  0.2858  0.1314
   53MOL   H27721181   0.976   0.640   3.537 -1.1183 -0.8376  1.8779
   53MOL   H27821182   0.856   0.503   3.397 -2.5901 -1.7213  0.3701
   53MOL   H27921183   0.751   0.358   3.254  0.2337  0.4767  1.2552
   53MOL   H28021184   0.883   8.021   2.990 -1.7401  0.4028  1.3028
   53MOL   H28121185   1.030   0.033   3.070  0.8158 -2.6187  2.4265
   53MOL   C28221186   0.887   8.017   3.215 -0.5531 -0.2720  0.2275
   53MOL   C28321187   0.948   7.870   3.214  0.0941  0.1565  0.2322
   53MOL   C28421188   1.064   7.839   3.292  0.3993  0.4056  0.6111
   53MOL   C28521189   1.119   7.711   3.275  1.2311  0.1113 -0.4772
   53MOL   C28621190   1.063   7.615   3.197 -0.5535  0.0748  0.5883
   53MOL   O28721191   1.115   7.488   3.193 -0.4411 -0.0386  0.3504
   53MOL   C28821192   1.024   7.386   3.145 -0.3153 -0.4326 -0.1596
   53MOL   C28921193   0.954   7.648   3.116 -0.5485 -0.4159  0.1490
   53MOL   C29021194   0.892   7.775   3.127  0.2389  0.2009 -0.3709
   53MOL   C29121195   0.732   8.021   3.245 -0.2325  0.1700  0.1664
   53MOL   H29221196   0.939   0.041   3.286 -1.3488 -0.3706  0.9015
   53MOL   H29321197   1.108   7.920   3.348 -0.6840  1.4590 -0.0516
   53MOL   H29421198   1.217   7.699   3.321  0.6419  1.6163  1.2024
   53MOL   H29521199   0.977   7.407   3.049  2.3533 -0.6484 -1.5654
   53MOL   H29621200   1.072   7.289   3.138 -0.1202 -0.2366 -1.7303
   53MOL   H29721201   0.945   7.365   3.217 -0.7999  2.0495  0.0985
   53MOL   H29821202   0.900   7.586   3.046 -1.1245 -0.0339  0.2451
   53MOL   H29921203   0.807   7.801   3.066 -0.7355  0.6303  1.1779
   53MOL   H30021204   0.690   0.080   3.227 -1.6982 -0.6841 -1.1994
   53MOL   H30121205   0.671   7.960   3.179 -0.7118  1.3234 -0.4842
   53MOL   C30221206   0.706   7.973   3.394 -0.3619 -0.5744 -0.8197
   53MOL   C30321207   0.707   0.051   3.489  0.8578  0.8185  0.5521
   53MOL   C30421208   0.824   0.084   3.563  0.4002  0.0272 -0.4043
   53MOL   C30521209   0.835   0.207   3.628  0.3863 -0.2527  0.1946
   53MOL   C30621210   0.726   0.299   3.636  0.0459  0.9982  0.2303
   53MOL   O30721211   0.751   0.419   3.697 -0.2560 -0.1492 -0.2658
   53MOL   C30821212   0.645   0.514   3.696 -1.1649  1.6857  0.2996
   53MOL   C30921213   0.610   0.267   3.562 -0.5085 -0.4748 -0.1441
   53MOL   C31021214   0.601   0.146   3.489  0.4090  0.3401 -0.3693
   53MOL   C31121215   0.584   7.882   3.413  0.1877 -0.4301  0.4790
   53MOL   H31221216   0.784   7.898   3.413  0.0678 -0.6032 -2.5711
   53MOL   H31321217   0.911   0.019   3.558  1.2568  1.0058  1.2605
   53MOL   H31421218   0.934   0.243   3.653 -0.0139  0.9633  0.0174
   53MOL   H31521219   0.672   0.592   3.767  0.8121  0.2338  1.2006
   53MOL   H31621220   0.553   0.461   3.722 -1.7098  2.8446  0.7741
   53MOL   H31721221   0.638   0.568   3.602 -0.7465 -1.6880 -1.7529
   53MOL   H31821222   0.526   0.334   3.553  2.6779  3.6983 -0.4327
   53MOL   H31921223   0.513   0.139   3.426 -1.0709  1.9495  1.4543
   53MOL   H32021224   0.588   7.802   3.339 -0.5517 -0.6954  0.7315
   53MOL   H32121225   0.493   7.941   3.401 -0.4313 -1.4623  0.0459
   53MOL   C32221226   0.576   7.824   3.566 -0.0871  0.1020 -0.1172
   53MOL   C32321227   0.696   7.736   3.608  0.3185  0.4475  0.5815
   53MOL   C32421228   0.737   7.643   3.511 -0.0204  0.1978  0.4910
   53MOL   C32521229   0.850   7.564   3.541 -0.9622 -0.2047 -0.3310
   53MOL   C32621230   0.909   7.569   3.670  1.0098 -0.0144 -0.3176
   53MOL   O32721231   1.022   7.491   3.694 -0.0056  0.0473 -0.0309
   53MOL   C32821232   1.121   7.504   3.590  0.2696  0.3104 -0.7066
   53MOL   C32921233   0.855   7.649   3.771  0.1545 -0.1500  0.4457
   53MOL   C33021234   0.754   7.743   3.734 -0.2122  0.6292  0.3878
   53MOL   C33121235   0.442   7.744   3.595 -0.4587 -1.3021 -0.0880
   53MOL   H33221236   0.570   7.907   3.637 -1.4501  1.3833 -1.6922
   53MOL   H33321237   0.695   7.640   3.412  0.3158  0.2822  0.3452
   53MOL   H33421238   0.882   7.498   3.461  0.3664 -0.9138  0.7746
   53MOL   H33521239   1.213   7.467   3.635 -0.1963  1.9077  1.6843
   53MOL   H33621240   1.142   7.608   3.566  0.8541  0.9296  2.2376
   53MOL   H33721241   1.097   7.447   3.500 -0.1009 -0.0156 -0.4024
   53MOL   H33821242   0.905   7.641   3.866  1.7454 -0.6892 -0.4151
   53MOL   H33921243   0.717   7.816   3.804  0.9466  1.1083  0.5099
   53MOL   H34021244   0.447   7.653   3.536  2.3240  0.6963 -3.1102
   53MOL   H34121245   0.450   7.699   3.694 -0.1274 -1.0538  0.0013
   53MOL   C34221246   0.311   7.828   3.567 -0.4585 -0.1618  0.2375
   53MOL   C34321247   0.307   7.960   3.648 -0.1057  0.6549 -0.2194
   53MOL   C34421248   0.315   7.953   3.787 -0.3089 -0.4969  0.1042
   53MOL   C34521249   0.282   0.030   3.865 -0.5089  0.0236  0.1087
   53MOL   C34621250   0.262   0.156   3.796 -0.5777  0.2722 -0.3420
   53MOL   O34721251   0.208   0.258   3.867 -0.2575 -0.1314 -0.2281
   53MOL   C34821252   0.236   0.393   3.814 -0.1934  0.2752 -0.0588
   53MOL   C34921253   0.266   0.155   3.655 -0.7484  0.4395 -0.6675
   53MOL   C35021254   0.291   0.043   3.582 -0.3078  0.6411  0.0372
   53MOL   C35121255   0.188   7.744   3.610  0.0799  0.7312 -0.0753
   53MOL   H35221256   0.311   7.848   3.460  0.7930 -0.8239  0.1056
   53MOL   H35321257   0.317   7.854   3.829  1.3540 -0.0387  1.1157
   53MOL   H35421258   0.265   0.028   3.972  1.5478  0.0271  0.4579
   53MOL   H35521259   0.187   0.455   3.889 -0.0193  1.6171 -1.0263
   53MOL   H35621260   0.343   0.412   3.802  0.1005 -1.5331 -0.4802
   53MOL   H35721261   0.191   0.410   3.716  0.2345  3.6119  0.2625
   53MOL   H35821262   0.232   0.239   3.595 -1.6705 -0.4979 -1.4698
   53MOL   H35921263   0.290   0.033   3.475 -0.8502  0.4962  0.0554
   53MOL   H36021264   0.193   7.722   3.716  2.5408 -0.5309 -0.4098
   53MOL   H36121265   0.108   7.817   3.597 -0.2440  0.3840 -0.0389
   53MOL   C36221266   0.132   7.626   3.526 -0.1754  0.2815  0.4941
   53MOL   C36321267   0.147   7.637   3.379  0.5259  0.4570 -0.0212
   53MOL   C36421268   0.095   7.741   3.306 -0.1314  0.1761  0.1120
   53MOL   C36521269   0.095   7.746   3.167  0.3264 -0.6948 -0.0728
   53MOL   C36621270   0.175   7.655   3.100 -0.5208 -0.1815  0.2434
   53MOL   O36721271   0.176   7.656   2.956 -0.4250  0.2188  0.1674
   53MOL   C36821272   0.234   7.555   2.879 -0.0668 -0.1757  0.0371
   53MOL   C36921273   0.236   7.544   3.168 -0.3112  0.5825 -0.5317
   53MOL   C37021274   0.224   7.541   3.306  0.1449 -0.0229 -0.0544
   53MOL   C37121275   8.022   7.594   3.567  0.0870  0.6157  0.1978
   53MOL   H37221276   0.190   7.537   3.552  1.9180  1.8887  1.4763
   53MOL   H37321277   0.039   7.818   3.357  1.4025  1.6546 -0.3875
   53MOL   H37421278   0.060   7.834   3.114  2.0881  0.3114  0.4014
   53MOL   H37521279   0.187   7.457   2.890 -0.2707  0.1703  2.4232
   53MOL   H37621280   0.213   7.573   2.773 -2.2263  0.3125  0.5323
   53MOL   H37721281   0.339   7.525   2.881 -0.4562 -1.6999 -1.4838
   53MOL   H37821282   0.294   7.473   3.110  0.9366  2.1148 -1.1918
   53MOL   H37921283   0.295   7.480   3.360  3.0788  2.5152 -0.9126
   53MOL   H38021284   7.963   7.685   3.584 -0.3429  0.4348 -0.3152
   53MOL   H38121285   7.974   7.552   3.479  1.0500 -1.6847  0.7391
   53MOL   C38221286   8.000   7.489   3.680  0.1715 -0.3367 -0.6170
   53MOL   C38321287   0.023   7.351   3.658  0.2610  0.2321  0.2827
   53MOL   C38421288   0.020   7.299   3.530 -0.2126  0.5691 -0.3926
   53MOL   C38521289   0.077   7.165   3.514  0.5928  0.2623  0.4186
   53MOL   C38621290   0.139   7.103   3.622  0.2250  0.1650 -1.1195
   53MOL   O38721291   0.196   6.980   3.598 -0.1680  0.5805  0.4051
   53MOL   C38821292   0.281   6.922   3.694  0.2113  0.5372  0.2965
   53MOL   C38921293   0.134   7.160   3.749  0.1617 -0.3243  0.3919
   53MOL   C39021294   0.068   7.281   3.769 -0.5686 -0.5480  0.1800
   53MOL   C39121295   7.858   7.487   3.734 -0.1257  0.6108 -0.5652
   53MOL   H39221296   0.010   7.538   3.763 -0.3328 -0.6047 -0.1521
   53MOL   H39321297   8.004   7.352   3.455 -0.1059 -0.1307 -0.9736
   53MOL   H39421298   0.082   7.123   3.415  0.7810 -1.9363  1.3419
   53MOL   H39521299   0.214   6.878   3.767 -1.3219  2.4892  0.1234
   53MOL   H39621300   0.342   6.995   3.747 -0.9834  0.6273  1.5983
   53MOL   H39721301   0.351   6.851   3.650 -0.5512  1.3694 -2.3862
   53MOL   H39821302   0.169   7.109   3.838  1.3062 -0.4696 -0.1347
   53MOL   H39921303   0.071   7.324   3.868  0.3239  1.0334 -0.5077
   53MOL   H40021304   7.787   7.473   3.652 -0.7374 -0.5169  0.1352
   53MOL   H40121305   7.838   7.583   3.780 -1.0307 -0.9144  2.3982
   53MOL   H40221306   7.848   7.409   3.810 -1.5255  1.6616  0.3503
   54MOL     C121307   1.763   0.901   5.650  0.4831 -0.4814  0.7979
   54MOL     C221308   1.696   1.026   5.706  0.2627  1.1220  0.1277
   54MOL     C321309   1.604   1.107   5.633  0.0364  0.1441  0.3224
   54MOL     C421310   1.541   1.222   5.690 -0.0237 -0.8409 -0.5537
   54MOL     C521311   1.564   1.252   5.826 -0.2564 -0.5038  0.6497
   54MOL     O621312   1.504   1.367   5.876  1.3687  0.0693 -0.4521
   54MOL     C721313   1.525   1.397   6.011 -0.1264 -0.6509 -0.2495
   54MOL     C821314   1.652   1.168   5.903 -0.3568  0.6039  0.5932
   54MOL     C921315   1.719   1.060   5.840 -0.5496  0.1980 -0.2439
   54MOL    C1021316   1.914   0.921   5.615 -0.2401  0.8989 -0.7712
   54MOL    H1121317   1.695   0.880   5.567  0.1639  2.0930  0.3355
   54MOL    H1221318   1.593   1.084   5.528 -0.4506 -2.3259  0.8826
   54MOL    H1321319   1.472   1.287   5.638 -0.7472 -1.1622 -0.0140
   54MOL    H1421320   1.504   1.309   6.071  0.0246  0.2689  1.1837
   54MOL    H1521321   1.623   1.438   6.035 -0.0267 -0.8854 -0.2579
   54MOL    H1621322   1.445   1.464   6.044 -0.7722 -1.2387 -0.6142
   54MOL    H1721323   1.679   1.195   6.004 -0.5676  3.3742 -0.0527
   54MOL    H1821324   1.793   1.012   5.902  0.1776  1.2235 -0.2936
   54MOL    H1921325   1.927   1.028   5.602 -0.9723  1.2157  0.8929
   54MOL    H2021326   1.980   0.892   5.697 -1.3540  2.7197  0.8122
   54MOL    H2121327   1.755   0.829   5.731  2.1194 -1.5722  0.0267
   54MOL    C2221328   1.953   0.842   5.487  0.3970  0.0784  0.0022
   54MOL    C2321329   1.860   0.881   5.373  0.2475 -0.7157  1.1571
   54MOL    C2421330   1.854   1.017   5.331  1.3309  0.5990  0.5010
   54MOL    C2521331   1.770   1.054   5.223  0.2072  0.0093  0.0636
   54MOL    C2621332   1.686   0.964   5.170  0.2907  0.0639  0.1805
   54MOL    O2721333   1.594   1.009   5.077 -0.2036  0.0202  0.0096
   54MOL    C2821334   1.490   0.921   5.035 -0.2055 -0.0798 -0.6705
   54MOL    C2921335   1.689   0.828   5.211  0.0977  0.1784  0.2889
   54MOL    C3021336   1.783   0.785   5.309 -0.1063 -0.2552  0.1329
   54MOL    C3121337   2.101   0.839   5.453 -0.7330 -0.1911  0.4405
   54MOL    H3221338   1.928   0.744   5.527  0.4414  0.1107  0.1106
   54MOL    H3321339   1.914   1.098   5.371  1.1787  1.6908 -1.4257
   54MOL    H3421340   1.786   1.155   5.189 -1.2915  0.7078  1.3412
   54MOL    H3521341   1.527   0.841   4.972 -1.9240 -1.2143 -0.2639
   54MOL    H3621342   1.416   0.982   4.982 -0.6638  0.3077  0.3921
   54MOL    H3721343   1.432   0.875   5.115  0.0975  0.1954 -0.2863
   54MOL    H3821344   1.612   0.758   5.181 -0.8483  0.9885  0.7944
   54MOL    H3921345   1.788   0.684   5.348 -0.0584 -0.2283  0.1962
   54MOL    H4021346   2.130   0.940   5.423 -2.0227  1.2553  3.7517
   54MOL    H4121347   2.161   0.809   5.539  0.0092  0.2251  0.0729
   54MOL    C4221348   2.155   0.738   5.348  0.2948 -0.2944 -0.4134
   54MOL    C4321349   2.149   0.589   5.392 -0.1380  0.0437 -0.1319
   54MOL    C4421350   2.093   0.491   5.306  0.1782 -0.2181 -0.5234
   54MOL    C4521351   2.090   0.354   5.341 -0.4131 -0.4629 -0.3147
   54MOL    C4621352   2.146   0.315   5.466  0.1274 -0.2760  0.0671
   54MOL    O4721353   2.135   0.182   5.490  0.8175 -0.4311 -0.2356
   54MOL    C4821354   2.183   0.128   5.609 -0.6679  0.0784 -0.1382
   54MOL    C4921355   2.189   0.411   5.557 -0.0478  0.3207  0.3193
   54MOL    C5021356   2.196   0.541   5.518  0.6226  0.3048 -0.3214
   54MOL    C5121357   2.289   0.779   5.304 -0.4342 -0.1911  0.9193
   54MOL    H5221358   2.086   0.750   5.266 -0.1772  0.0986  0.0394
   54MOL    H5321359   2.051   0.513   5.209  0.9735  2.8256 -0.2352
   54MOL    H5421360   2.052   0.280   5.273 -1.2576 -1.0656  0.7818
   54MOL    H5521361   2.115   0.160   5.688  0.3738  0.6999  0.5105
   54MOL    H5621362   2.176   0.019   5.611 -1.5374  0.1376  0.3293
   54MOL    H5721363   2.278   0.169   5.642 -0.4331 -0.8450  0.3520
   54MOL    H5821364   2.229   0.382   5.653  0.1437 -1.8621 -0.3947
   54MOL    H5921365   2.246   0.613   5.580 -0.8075 -0.3662  1.6453
   54MOL    H6021366   2.340   0.686   5.277 -0.9638  0.1995 -1.5210
   54MOL    H6121367   2.355   0.819   5.381 -1.2925 -1.2976  2.2458
   54MOL    C6221368   2.307   0.859   5.169 -0.1049  0.1937  0.1904
   54MOL    C6321369   2.453   0.855   5.135  0.3990  0.2030  1.0209
   54MOL    C6421370   2.501   0.761   5.037  0.4404  0.9654 -0.0627
   54MOL    C6521371   2.632   0.783   4.988  0.0985 -0.0263  0.2662
   54MOL    C6621372   2.716   0.877   5.045 -0.5641 -0.2610  0.1490
   54MOL    O6721373   2.844   0.890   4.991  0.1625  0.3928  0.0052
   54MOL    C6821374   2.923   1.001   5.035 -0.3838  0.3156 -0.0336
   54MOL    C6921375   2.673   0.951   5.153 -0.1593 -0.5420  0.2718
   54MOL    C7021376   2.542   0.943   5.202 -0.0038  0.0432 -0.4187
   54MOL    C7121377   2.242   0.996   5.170 -0.3375 -0.1765 -0.1110
   54MOL    H7221378   2.251   0.794   5.102 -0.3477 -0.3092  0.8769
   54MOL    H7321379   2.444   0.696   4.971  0.3303  1.3543 -0.3578
   54MOL    H7421380   2.661   0.723   4.904 -1.0296 -0.1920 -0.0124
   54MOL    H7521381   2.939   0.992   5.142  0.6644 -1.4443 -0.3076
   54MOL    H7621382   2.883   1.102   5.029  1.3493  0.8730 -3.0941
   54MOL    H7721383   3.021   0.992   4.988 -0.0487  2.2501  0.2670
   54MOL    H7821384   2.737   1.023   5.202  0.5338 -0.7844 -0.2710
   54MOL    H7921385   2.501   1.006   5.279 -1.4264 -2.7838  1.2299
   54MOL    H8021386   2.140   0.994   5.209  0.0619  1.5008  1.0481
   54MOL    H8121387   2.300   1.057   5.240 -0.3501  1.6511 -1.6557
   54MOL    C8221388   2.234   1.049   5.026 -0.2095 -0.2245  0.2543
   54MOL    C8321389   2.144   0.968   4.936 -0.3425  0.1694  0.9578
   54MOL    C8421390   2.024   0.912   4.989 -0.1813 -0.0464  0.6141
   54MOL    C8521391   1.929   0.845   4.910  0.9625  0.3559 -0.4495
   54MOL    C8621392   1.945   0.851   4.770  0.9272  0.1189  0.4753
   54MOL    O8721393   1.843   0.809   4.679 -0.0162  0.2697  0.2916
   54MOL    C8821394   1.724   0.764   4.733 -0.3403 -0.0307  0.5453
   54MOL    C8921395   2.065   0.904   4.716  0.0176 -0.0546 -0.0140
   54MOL    C9021396   2.168   0.965   4.800 -0.1637  0.9460 -0.3832
   54MOL    C9121397   2.173   1.194   5.018 -0.7184 -0.1900 -0.2352
   54MOL    H9221398   2.336   1.049   4.987  0.1064  0.2069  1.0648
   54MOL    H9321399   2.009   0.917   5.096  1.5717 -2.3937  1.0284
   54MOL    H9421400   1.843   0.807   4.961 -1.3330  2.1720 -2.8341
   54MOL    H9521401   1.649   0.842   4.743 -0.6163 -0.5078  2.3709
   54MOL    H9621402   1.741   0.711   4.827  2.8120 -0.6411 -0.3222
   54MOL    H9721403   1.677   0.701   4.658 -2.6593  0.6343  1.4066
   54MOL    H9821404   2.076   0.912   4.609  0.4585  0.3982  0.0649
   54MOL    H9921405   2.247   1.014   4.744  2.5953 -1.7826  0.9882
   54MOL   H10021406   2.134   1.214   4.918 -0.4000  2.4870  0.1423
   54MOL   H10121407   2.081   1.179   5.076  0.4389 -2.6225  1.0298
   54MOL   C10221408   2.250   1.312   5.086  0.1404  0.1021  0.1285
   54MOL   C10321409   2.377   1.350   5.008 -0.0897  0.0152 -0.0380
   54MOL   C10421410   2.502   1.365   5.071  0.6700 -0.0519  0.6499
   54MOL   C10521411   2.616   1.403   5.001  0.5719  0.2944  0.1458
   54MOL   C10621412   2.606   1.442   4.869  0.2400 -0.1421  1.4643
   54MOL   O10721413   2.716   1.480   4.790  0.1402  0.6344 -0.2608
   54MOL   C10821414   2.845   1.429   4.831  0.4994 -0.5745  0.0996
   54MOL   C10921415   2.480   1.437   4.808  0.1012 -0.4369 -0.2191
   54MOL   C11021416   2.364   1.395   4.876  0.4233  0.4207  0.1231
   54MOL   C11121417   2.158   1.433   5.097 -0.4151  0.7078  0.4435
   54MOL   H11221418   2.275   1.277   5.186  0.6435 -0.6684 -0.2616
   54MOL   H11321419   2.510   1.347   5.177  2.9430  0.5114  0.6051
   54MOL   H11421420   2.710   1.410   5.056  1.8921  2.7802 -2.3169
   54MOL   H11521421   2.832   1.321   4.844 -0.8071 -0.1785  2.4282
   54MOL   H11621422   2.924   1.454   4.761  1.2966 -1.8357  0.5193
   54MOL   H11721423   2.880   1.469   4.926  1.9245  0.8835 -1.0314
   54MOL   H11821424   2.478   1.466   4.704 -0.2036 -0.9598 -0.3621
   54MOL   H11921425   2.269   1.397   4.825 -0.4422  2.2371  1.6978
   54MOL   H12021426   2.145   1.469   4.995  3.7490  0.1467 -0.3877
   54MOL   H12121427   2.061   1.395   5.128 -0.0500 -0.8613 -0.2960
   54MOL   C12221428   2.215   1.536   5.196  0.5345  0.1159 -0.2111
   54MOL   C12321429   2.227   1.475   5.333 -0.5125 -0.3434  0.2564
   54MOL   C12421430   2.354   1.483   5.399 -0.0314 -0.6260  0.2480
   54MOL   C12521431   2.370   1.430   5.532 -0.2951  0.2554  0.4796
   54MOL   C12621432   2.251   1.391   5.605 -0.7272 -0.3534  0.1885
   54MOL   O12721433   2.269   1.369   5.736  0.0333 -0.4827 -0.3886
   54MOL   C12821434   2.157   1.329   5.819 -0.1794 -0.3552 -0.0692
   54MOL   C12921435   2.125   1.386   5.538 -0.1612  0.0451  0.4115
   54MOL   C13021436   2.112   1.425   5.402 -0.4295  0.5165  0.1170
   54MOL   C13121437   2.126   1.666   5.203 -0.3888  0.4588  0.4134
   54MOL   H13221438   2.313   1.560   5.155  1.2125  0.0334  1.3139
   54MOL   H13321439   2.440   1.530   5.354 -0.5299  0.3350  0.2845
   54MOL   H13421440   2.467   1.441   5.578  1.1316  0.4239 -2.4707
   54MOL   H13521441   2.128   1.226   5.798  1.0797 -0.5111 -1.1209
   54MOL   H13621442   2.197   1.337   5.920 -2.7725  1.7026  0.8678
   54MOL   H13721443   2.070   1.395   5.811  0.1703  0.1047 -0.0965
   54MOL   H13821444   2.044   1.350   5.599 -0.9923 -3.1755 -2.4259
   54MOL   H13921445   2.015   1.431   5.355 -0.3008 -1.8720 -0.5159
   54MOL   H14021446   2.142   1.711   5.301  1.7948 -0.6936  0.6293
   54MOL   H14121447   2.021   1.638   5.205  0.2269 -2.1880 -1.6175
   54MOL   C14221448   2.168   1.770   5.094  0.4406 -0.1890  0.9059
   54MOL   C14321449   2.105   1.747   4.961  0.6640  0.1036  0.3860
   54MOL   C14421450   2.182   1.711   4.847 -0.6949  0.0529  0.1313
   54MOL   C14521451   2.108   1.690   4.723  0.2990 -0.4790 -0.1702
   54MOL   C14621452   1.967   1.696   4.712 -0.1295 -0.3814 -0.4793
   54MOL   O14721453   1.887   1.661   4.604 -0.3169  0.3482  0.0341
   54MOL   C14821454   1.931   1.688   4.478 -0.0915  1.0116  0.3005
   54MOL   C14921455   1.895   1.729   4.832 -0.4016 -0.0006 -0.5867
   54MOL   C15021456   1.964   1.758   4.950  0.6064 -0.7667 -0.7826
   54MOL   C15121457   2.162   1.916   5.152 -0.0899 -0.4706  0.3532
   54MOL   H15221458   2.274   1.753   5.076  0.5065  2.1482 -1.1480
   54MOL   H15321459   2.290   1.707   4.845 -0.6350  1.3031  0.6171
   54MOL   H15421460   2.150   1.664   4.627  1.1680 -1.0174  0.3548
   54MOL   H15521461   1.850   1.684   4.405  0.1953  2.3974 -0.1222
   54MOL   H15621462   1.953   1.795   4.475  0.4414  0.8815 -0.5019
   54MOL   H15721463   2.019   1.634   4.444 -0.9947 -0.5206  0.3524
   54MOL   H15821464   1.789   1.739   4.814 -0.3589  1.2690 -0.2223
   54MOL   H15921465   1.913   1.776   5.044  1.6725 -0.4807 -0.2398
   54MOL   H16021466   2.217   1.925   5.246 -0.8080 -0.7167  0.8059
   54MOL   H16121467   2.060   1.934   5.188  0.7216  1.5699  1.7199
   54MOL   C16221468   2.212   2.022   5.053  0.4476 -0.3985  0.0183
   54MOL   C16321469   2.355   1.994   5.022 -0.0291 -0.6179  0.1939
   54MOL   C16421470   2.399   2.025   4.887  0.1565  0.3906  0.5179
   54MOL   C16521471   2.519   1.976   4.845 -0.4301 -0.1981  0.1528
   54MOL   C16621472   2.607   1.913   4.936  0.5494 -0.2165  0.0475
   54MOL   O16721473   2.735   1.873   4.903 -0.5648  0.1976 -0.2992
   54MOL   C16821474   2.736   1.817   4.780 -0.0681 -0.5881 -0.3875
   54MOL   C16921475   2.574   1.905   5.072  0.3276  0.7913  0.5749
   54MOL   C17021476   2.443   1.934   5.116  0.2540 -0.1922 -0.3481
   54MOL   C17121477   2.178   2.172   5.083 -0.5491 -0.0750 -0.2501
   54MOL   H17221478   2.160   1.992   4.962  1.4243 -3.3383  0.3757
   54MOL   H17321479   2.335   2.074   4.814  1.6386  0.9101 -0.4618
   54MOL   H17421480   2.555   2.000   4.746  0.4564  0.9072  0.7313
   54MOL   H17521481   2.820   1.749   4.771 -0.6845 -1.5054  0.7063
   54MOL   H17621482   2.741   1.897   4.706 -0.8678 -0.1274  0.0484
   54MOL   H17721483   2.657   1.745   4.760 -0.9880  0.3931 -0.3592
   54MOL   H17821484   2.655   1.868   5.132  1.8042  1.8525 -0.7308
   54MOL   H17921485   2.425   1.914   5.221  0.6244  0.6320 -0.1217
   54MOL   H18021486   2.237   2.226   5.009 -0.8225 -0.0167 -0.4247
   54MOL   H18121487   2.227   2.201   5.176  1.1892 -1.0547 -0.8201
   54MOL   C18221488   2.036   2.205   5.064 -0.0154  0.6121  0.2728
   54MOL   C18321489   1.981   2.164   4.933  0.2698 -0.3226 -0.4800
   54MOL   C18421490   2.044   2.204   4.813 -0.2571 -0.0546  0.2447
   54MOL   C18521491   1.993   2.165   4.690  0.3453  0.0053 -0.2109
   54MOL   C18621492   1.874   2.088   4.675 -0.3230  0.0386 -0.6659
   54MOL   O18721493   1.807   2.055   4.559 -0.1274 -0.5762 -0.5326
   54MOL   C18821494   1.867   2.080   4.435  0.0648  0.3218 -0.4250
   54MOL   C18921495   1.815   2.053   4.796 -0.0787 -0.1075 -0.2912
   54MOL   C19021496   1.863   2.093   4.923 -0.3276 -0.1112 -0.2830
   54MOL   C19121497   2.014   2.353   5.107  0.2410 -0.2470  0.5499
   54MOL   H19221498   1.985   2.143   5.138  0.8589  0.4243  0.7223
   54MOL   H19321499   2.130   2.269   4.817  1.2782 -2.0311 -0.0580
   54MOL   H19421500   2.043   2.200   4.601  0.8487 -0.4509 -0.1117
   54MOL   H19521501   1.809   2.036   4.354  1.0788 -3.1827  0.6560
   54MOL   H19621502   1.959   2.026   4.417  1.0167  2.5739 -2.6053
   54MOL   H19721503   1.878   2.185   4.409  3.3756 -0.3332 -1.8649
   54MOL   H19821504   1.715   2.012   4.798  0.1023 -0.5381  0.0029
   54MOL   H19921505   1.803   2.061   5.008 -0.9280  0.9855 -0.2905
   54MOL   H20021506   2.080   2.419   5.051 -1.0807  1.6029  1.1180
   54MOL   H20121507   1.919   2.384   5.062  1.1793 -0.9719 -2.0529
   54MOL   C20221508   2.014   2.395   5.255  0.2308 -0.0981 -0.1790
   54MOL   C20321509   1.905   2.320   5.346  0.5183 -0.6201  0.3198
   54MOL   C20421510   1.775   2.296   5.299  0.2389  0.0546 -0.1010
   54MOL   C20521511   1.682   2.225   5.386 -0.3587 -0.0704  0.0014
   54MOL   C20621512   1.710   2.186   5.515 -0.2508 -0.0503 -0.3016
   54MOL   O20721513   1.618   2.125   5.594  0.5947  0.8039 -0.0099
   54MOL   C20821514   1.638   2.120   5.735 -0.2043  0.4569  0.2285
   54MOL   C20921515   1.838   2.215   5.559 -0.6945  0.3117 -0.3141
   54MOL   C21021516   1.937   2.277   5.478 -0.1909  0.1231 -0.0930
   54MOL   C21121517   1.984   2.546   5.250  0.3261  1.1479 -0.3966
   54MOL   H21221518   2.109   2.367   5.300  1.1342 -0.3251 -2.2099
   54MOL   H21321519   1.736   2.331   5.204  1.0295  0.2639 -0.3543
   54MOL   H21421520   1.585   2.203   5.345 -0.0779  1.3211 -1.4698
   54MOL   H21521521   1.555   2.074   5.788 -0.6303  2.4280  1.3204
   54MOL   H21621522   1.712   2.041   5.746 -0.4274 -0.3782 -3.8181
   54MOL   H21721523   1.677   2.211   5.783  4.6760 -1.2092 -0.2976
   54MOL   H21821524   1.868   2.186   5.658  1.3236  1.6137 -0.5183
   54MOL   H21921525   2.035   2.298   5.517 -0.0544 -0.0147 -0.3620
   54MOL   H22021526   1.883   2.558   5.212 -0.4588 -1.5733  0.6955
   54MOL   H22121527   2.053   2.598   5.183  2.2484  0.3965  0.9632
   54MOL   C22221528   1.991   2.623   5.390  0.0575  0.7583 -0.3238
   54MOL   C22321529   2.117   2.591   5.471  0.5396 -0.3430  0.4518
   54MOL   C22421530   2.247   2.585   5.415  0.8481  1.1680  0.0209
   54MOL   C22521531   2.359   2.567   5.495 -0.1237  0.2023  0.4785
   54MOL   C22621532   2.346   2.550   5.633  0.3757 -0.3697  0.7268
   54MOL   O22721533   2.463   2.544   5.698 -0.0894  0.6002 -0.2057
   54MOL   C22821534   2.461   2.538   5.843 -0.4823 -0.2997  0.6955
   54MOL   C22921535   2.219   2.551   5.690  1.0459  0.2447  0.1944
   54MOL   C23021536   2.108   2.572   5.612 -0.1582 -0.2003 -1.0662
   54MOL   C23121537   1.972   2.769   5.351 -0.0181  0.0109  0.8869
   54MOL   H23221538   1.904   2.600   5.451 -0.6258  0.5262 -1.3812
   54MOL   H23321539   2.260   2.587   5.307  0.5620 -1.2231 -0.0827
   54MOL   H23421540   2.451   2.562   5.439 -0.1132  1.9997  0.3026
   54MOL   H23521541   2.401   2.457   5.885 -2.2131 -0.0357 -1.1527
   54MOL   H23621542   2.563   2.509   5.868 -0.1424 -1.1538 -1.5761
   54MOL   H23721543   2.430   2.630   5.893 -1.6276 -1.0480  1.3996
   54MOL   H23821544   2.203   2.530   5.795  1.8755 -1.5738 -0.0170
   54MOL   H23921545   2.012   2.558   5.660  0.1892  0.6448 -0.1024
   54MOL   H24021546   2.044   2.794   5.272 -0.3870  1.9268  1.1375
   54MOL   H24121547   1.878   2.775   5.297  0.3559  0.4040  0.2641
   54MOL   C24221548   1.982   2.880   5.467  0.1042 -0.0920  0.3695
   54MOL   C24321549   2.048   3.006   5.416  0.2588  0.3835  0.4580
   54MOL   C24421550   1.970   3.094   5.338 -0.3613 -0.1801  0.0966
   54MOL   C24521551   2.037   3.202   5.265 -0.2720  0.1208 -0.0269
   54MOL   C24621552   2.175   3.226   5.275 -0.3757 -0.1217  0.8356
   54MOL   O24721553   2.247   3.322   5.216  0.2808 -0.4400  0.8304
   54MOL   C24821554   2.173   3.406   5.132 -0.6220  0.2432  0.0949
   54MOL   C24921555   2.246   3.144   5.372 -0.2820 -0.3653  0.5217
   54MOL   C25021556   2.181   3.035   5.439  0.2009 -0.5172 -0.0846
   54MOL   C25121557   1.838   2.904   5.529 -0.2540 -0.0964  0.4348
   54MOL   H25221558   2.050   2.836   5.539 -0.3414  0.1021  0.9163
   54MOL   H25321559   1.865   3.075   5.319 -0.0899 -0.1467 -1.5415
   54MOL   H25421560   1.980   3.261   5.194 -0.1497 -0.6224 -0.7446
   54MOL   H25521561   2.105   3.463   5.195 -2.8529  1.5714 -3.3403
   54MOL   H25621562   2.254   3.465   5.088 -1.5038  2.1980  1.0177
   54MOL   H25721563   2.121   3.347   5.057  0.7499 -0.3647 -0.4027
   54MOL   H25821564   2.352   3.162   5.388 -0.9458  2.1408  2.3764
   54MOL   H25921565   2.244   2.975   5.503  0.4576 -1.3465 -1.1173
   54MOL   H26021566   1.796   2.804   5.533  1.0200 -0.6800 -0.5362
   54MOL   H26121567   1.768   2.939   5.453 -0.3474  1.6324  1.2755
   54MOL   C26221568   1.836   2.981   5.666  0.1318 -0.0363 -0.0695
   54MOL   C26321569   1.929   2.912   5.767  0.0417  0.0618  0.8246
   54MOL   C26421570   2.058   2.971   5.795 -0.2276 -0.6331  0.2416
   54MOL   C26521571   2.153   2.915   5.883  0.9692  0.0346 -0.8606
   54MOL   C26621572   2.123   2.794   5.937 -0.0406  0.4898 -0.0229
   54MOL   O26721573   2.223   2.749   6.019  0.1944  0.2825 -0.0820
   54MOL   C26821574   2.187   2.640   6.113  0.4677 -0.3442 -0.1186
   54MOL   C26921575   2.002   2.724   5.905  0.3465  0.3629  0.1021
   54MOL   C27021576   1.902   2.784   5.823  0.1927  0.0122 -0.2830
   54MOL   C27121577   1.694   3.018   5.708 -0.1953  0.3575 -0.1928
   54MOL   H27221578   1.880   3.077   5.641  0.0128  0.4264  1.4796
   54MOL   H27321579   2.086   3.062   5.743  1.3834 -0.5929  1.1511
   54MOL   H27421580   2.246   2.966   5.902  0.2828  0.9230  0.1724
   54MOL   H27521581   2.085   2.646   6.151  0.3745 -0.5354 -0.3342
   54MOL   H27621582   2.252   2.643   6.200  1.6551 -0.1138 -1.0000
   54MOL   H27721583   2.202   2.542   6.069  1.6450 -0.8818  1.4377
   54MOL   H27821584   1.977   2.626   5.943 -0.8457  1.1832  1.4707
   54MOL   H27921585   1.810   2.728   5.809 -1.1405  2.0510  0.0352
   54MOL   H28021586   1.648   3.064   5.621 -2.2950 -1.2885 -0.0250
   54MOL   H28121587   1.653   2.920   5.737  1.2558 -0.8770 -2.2093
   54MOL   C28221588   1.687   3.104   5.827 -0.5757 -0.0375 -0.1995
   54MOL   C28321589   1.543   3.105   5.879 -0.1185  0.2989  0.4048
   54MOL   C28421590   1.520   3.026   5.990  0.4204  0.0396  0.3129
   54MOL   C28521591   1.389   3.025   6.045  0.8323  0.8088 -0.4101
   54MOL   C28621592   1.284   3.103   5.989  0.5413  1.0249 -0.1624
   54MOL   O28721593   1.159   3.105   6.053 -0.4291 -0.3874  0.5597
   54MOL   C28821594   1.053   3.163   5.988  0.0499  0.3820 -0.0544
   54MOL   C28921595   1.317   3.179   5.876 -0.2775 -0.1686 -0.2909
   54MOL   C29021596   1.441   3.184   5.818  0.4554  0.3816 -0.1050
   54MOL   C29121597   1.749   3.247   5.799  0.3742  0.0909  0.6393
   54MOL   H29221598   1.760   3.065   5.898  1.1637  0.8135 -1.4687
   54MOL   H29321599   1.599   2.972   6.040 -0.1602 -2.3994 -1.3202
   54MOL   H29421600   1.361   2.982   6.140  3.2935  1.4959  0.6763
   54MOL   H29521601   1.052   3.272   5.990 -0.5079  0.3821 -0.3030
   54MOL   H29621602   1.051   3.130   5.884 -1.9030  1.2706 -0.3169
   54MOL   H29721603   0.964   3.131   6.042  1.2888 -0.9287  1.2783
   54MOL   H29821604   1.243   3.239   5.826  0.5775  0.6326 -0.6091
   54MOL   H29921605   1.465   3.241   5.730  2.8299 -0.9254 -0.3583
   54MOL   H30021606   1.855   3.244   5.773  0.5714  0.8611  1.3607
   54MOL   H30121607   1.704   3.296   5.713 -0.9822 -0.1669  1.1947
   54MOL   C30221608   1.727   3.338   5.933  0.0201 -0.5325  0.3929
   54MOL   C30321609   1.794   3.274   6.057 -0.1271 -0.2748  0.2558
   54MOL   C30421610   1.931   3.230   6.060  0.6326 -0.3902 -0.0071
   54MOL   C30521611   1.992   3.182   6.174  0.1938 -0.4462 -0.1041
   54MOL   C30621612   1.925   3.172   6.293  0.0310 -0.1700 -0.8683
   54MOL   O30721613   1.974   3.123   6.412 -0.2961  0.3137  0.4969
   54MOL   C30821614   2.085   3.030   6.408 -0.2087 -0.4624 -0.1974
   54MOL   C30921615   1.786   3.213   6.292 -0.2189  0.4196 -0.3101
   54MOL   C31021616   1.727   3.259   6.173 -0.0836  0.1182 -0.3041
   54MOL   C31121617   1.769   3.489   5.915 -0.4078 -0.4007  0.1297
   54MOL   H31221618   1.621   3.330   5.958  0.2149 -0.9827  1.0875
   54MOL   H31321619   1.992   3.239   5.972 -0.9410 -0.4192 -1.1211
   54MOL   H31421620   2.090   3.140   6.161  0.2439 -0.4793  0.3763
   54MOL   H31521621   2.175   3.061   6.355 -0.2139  0.7078  0.4695
   54MOL   H31621622   2.051   2.934   6.368 -1.7936  0.3610 -0.8780
   54MOL   H31721623   2.105   3.029   6.515  1.5407 -0.2776 -0.4921
   54MOL   H31821624   1.728   3.211   6.383 -0.2159  0.2904 -0.3105
   54MOL   H31921625   1.624   3.293   6.169 -0.6233 -1.4332  0.2454
   54MOL   H32021626   1.736   3.516   5.814  1.1877  0.8049 -0.0965
   54MOL   H32121627   1.876   3.504   5.899 -0.6480 -1.2792 -2.4753
   54MOL   C32221628   1.708   3.586   6.019  0.4234  0.0592  0.5597
   54MOL   C32321629   1.562   3.614   5.991  0.9049 -0.0200 -0.4106
   54MOL   C32421630   1.509   3.673   5.874  0.0297  0.3227  0.3585
   54MOL   C32521631   1.371   3.691   5.852 -0.3647 -0.2291 -0.5894
   54MOL   C32621632   1.277   3.644   5.944 -0.4919 -0.1044 -0.3087
   54MOL   O32721633   1.143   3.644   5.931 -0.2085  0.5079  0.1515
   54MOL   C32821634   1.093   3.685   5.808  0.4413  0.7708 -0.7272
   54MOL   C32921635   1.325   3.587   6.064  0.5738  0.4342 -0.1651
   54MOL   C33021636   1.465   3.566   6.084 -0.3509  0.1294 -0.5439
   54MOL   C33121637   1.794   3.700   6.029  0.5034 -1.0174 -0.4613
   54MOL   H33221638   1.723   3.529   6.111 -0.7726 -2.0100 -0.4828
   54MOL   H33321639   1.576   3.701   5.794  1.4544 -0.5778  1.2132
   54MOL   H33421640   1.337   3.728   5.756  1.0549 -1.1335 -1.4530
   54MOL   H33521641   1.140   3.645   5.718  1.5894 -1.8351  0.9844
   54MOL   H33621642   1.102   3.793   5.798 -2.1968  0.9615 -1.5809
   54MOL   H33721643   0.989   3.654   5.798 -0.0679  1.9735  0.6384
   54MOL   H33821644   1.251   3.553   6.135  1.8028  3.0013  2.4156
   54MOL   H33921645   1.498   3.513   6.173  0.3686  1.5022  0.0212
   54MOL   H34021646   1.896   3.672   6.058  0.9503  0.8426 -0.1609
   54MOL   H34121647   1.801   3.747   5.931  3.1399 -1.4730 -0.5350
   54MOL   C34221648   1.752   3.803   6.139 -0.3894  0.2695 -0.2309
   54MOL   C34321649   1.816   3.937   6.117  0.7205  0.4850  0.4341
   54MOL   C34421650   1.738   4.056   6.106  0.0468  0.4992 -0.5762
   54MOL   C34521651   1.798   4.175   6.064 -0.2959  0.5961  0.2430
   54MOL   C34621652   1.933   4.177   6.034  0.1541 -0.1087 -0.4538
   54MOL   O34721653   1.992   4.298   5.999 -0.0024  0.0974  0.0185
   54MOL   C34821654   1.921   4.413   5.957 -0.2391 -0.4721 -0.1598
   54MOL   C34921655   2.013   4.067   6.048 -0.1444  0.1534 -0.3550
   54MOL   C35021656   1.951   3.940   6.082  0.3700  0.0970  0.0983
   54MOL   C35121657   1.782   3.759   6.284  0.2386  0.1813 -0.0094
   54MOL   H35221658   1.646   3.828   6.132 -0.4003  1.0048  1.9984
   54MOL   H35321659   1.630   4.060   6.116  0.1261  0.9589  0.1566
   54MOL   H35421660   1.744   4.267   6.048  0.3459  0.9701  0.2018
   54MOL   H35521661   1.882   4.409   5.855 -1.0885 -2.0523  0.2062
   54MOL   H35621662   1.836   4.447   6.017  1.0961  2.5440  0.1085
   54MOL   H35721663   1.993   4.495   5.957 -0.6687 -0.0793 -1.3477
   54MOL   H35821664   2.120   4.075   6.031  0.2127 -2.0212  0.7275
   54MOL   H35921665   2.005   3.846   6.073 -2.1879 -1.2284 -2.3356
   54MOL   H36021666   1.860   3.685   6.264  1.1881  1.1432  0.0355
   54MOL   H36121667   1.840   3.836   6.335 -0.0117 -0.1093  0.7081
   54MOL   C36221668   1.668   3.712   6.379 -0.4684  0.6909 -0.2661
   54MOL   C36321669   1.575   3.821   6.420  1.0637  1.0135 -0.9081
   54MOL   C36421670   1.447   3.845   6.356 -0.4795  0.0980 -0.2103
   54MOL   C36521671   1.380   3.960   6.384  0.3774  0.7004  0.5675
   54MOL   C36621672   1.430   4.060   6.473  0.5112 -0.4364 -0.4834
   54MOL   O36721673   1.364   4.175   6.503 -0.8847  0.0476  0.4203
   54MOL   C36821674   1.232   4.199   6.470 -0.2390  0.0719 -0.2807
   54MOL   C36921675   1.554   4.036   6.537 -0.1218 -0.4451  0.3746
   54MOL   C37021676   1.618   3.919   6.514  0.5054  0.2447  0.9313
   54MOL   C37121677   1.713   3.607   6.487  0.6603  0.2898 -0.4851
   54MOL   H37221678   1.606   3.655   6.311  0.4601 -0.8823  0.1937
   54MOL   H37321679   1.405   3.777   6.283 -1.3254  1.2946 -0.8673
   54MOL   H37421680   1.281   3.960   6.342  1.0293 -1.3189 -1.0159
   54MOL   H37521681   1.230   4.246   6.372 -1.9259 -0.8860 -0.7415
   54MOL   H37621682   1.156   4.120   6.477  0.1124 -0.2116  0.3759
   54MOL   H37721683   1.196   4.283   6.530 -2.3631  0.6192 -2.2257
   54MOL   H37821684   1.586   4.114   6.605 -0.4878  0.2156 -0.2032
   54MOL   H37921685   1.707   3.897   6.572  1.6873 -0.5272 -1.0953
   54MOL   H38021686   1.786   3.536   6.447  0.1141 -0.4892 -0.1135
   54MOL   H38121687   1.758   3.667   6.566  3.0905 -1.2092 -0.6999
   54MOL   C38221688   1.603   3.514   6.554 -0.4240  0.4159  0.5255
   54MOL   C38321689   1.668   3.420   6.663  0.7920  0.3330 -0.1693
   54MOL   C38421690   1.601   3.420   6.788  0.0375  0.0586  0.9897
   54MOL   C38521691   1.654   3.335   6.891 -0.4754 -0.8564 -0.2594
   54MOL   C38621692   1.769   3.256   6.868 -0.0472 -0.5513 -0.0894
   54MOL   O38721693   1.815   3.186   6.977  0.8029  0.2894  0.7976
   54MOL   C38821694   1.920   3.097   6.964 -0.6437  0.7169 -0.3842
   54MOL   C38921695   1.831   3.256   6.745 -0.3927 -0.3376 -0.4030
   54MOL   C39021696   1.779   3.336   6.641 -0.1390 -0.0347 -0.1700
   54MOL   C39121697   1.512   3.438   6.450  0.0698 -0.3663  0.4702
   54MOL   H39221698   1.533   3.578   6.607  1.8675  0.6606  3.3836
   54MOL   H39321699   1.519   3.487   6.810  1.4695  2.2554 -0.2232
   54MOL   H39421700   1.625   3.350   6.994 -1.4418 -0.9429 -0.5120
   54MOL   H39521701   1.905   3.040   6.873 -1.0073  1.6663 -0.9229
   54MOL   H39621702   1.898   3.030   7.047  1.6374 -1.9193 -1.8181
   54MOL   H39721703   2.017   3.147   6.960 -0.5997  0.9540  2.5710
   54MOL   H39821704   1.916   3.195   6.719 -0.1568  0.6780 -2.1783
   54MOL   H39921705   1.830   3.338   6.545 -1.1866  2.5642 -0.7055
   54MOL   H40021706   1.432   3.379   6.494  0.1115  0.4475  1.6764
   54MOL   H40121707   1.568   3.372   6.386  1.6402  2.0337 -0.7156
   54MOL   H40221708   1.463   3.510   6.384  2.4255  1.8126  1.0149
   55MOL     C121709   5.796   4.123   1.691  0.2952  0.4221  0.3352
   55MOL     C221710   5.757   4.131   1.836 -0.2737 -0.7089 -0.2874
   55MOL     C321711   5.712   4.254   1.883 -0.0660 -0.8881  0.0044
   55MOL     C421712   5.649   4.259   2.007 -0.6296 -0.1861 -0.6471
   55MOL     C521713   5.640   4.150   2.095  0.7452 -1.3302  1.0766
   55MOL     O621714   5.578   4.165   2.215 -0.0997  0.4763 -0.6811
   55MOL     C721715   5.607   4.077   2.325 -0.5079 -0.1285  0.0355
   55MOL     C821716   5.693   4.026   2.053 -0.2613 -0.7114  0.0646
   55MOL     C921717   5.750   4.022   1.920 -0.4109 -0.4308  0.5648
   55MOL    C1021718   5.672   4.137   1.598  0.0461 -0.3313 -0.0879
   55MOL    H1121719   5.849   4.031   1.668 -1.6589 -0.3297 -1.3134
   55MOL    H1221720   5.712   4.346   1.826 -2.8026 -0.2233  1.0037
   55MOL    H1321721   5.602   4.350   2.042  1.9965  0.9672  0.0154
   55MOL    H1421722   5.707   4.086   2.367  0.0504 -1.4631 -0.9769
   55MOL    H1521723   5.532   4.104   2.400  0.3808  1.7770  0.2650
   55MOL    H1621724   5.600   3.971   2.300 -1.4084 -0.4014  1.3967
   55MOL    H1721725   5.709   3.943   2.120  0.5617 -0.7075 -0.1280
   55MOL    H1821726   5.782   3.923   1.890  0.5675  0.3847 -1.1737
   55MOL    H1921727   5.600   4.065   1.639  0.7104 -0.3709  1.0379
   55MOL    H2021728   5.633   4.238   1.612  2.4028  0.3477  1.7918
   55MOL    H2121729   5.866   4.203   1.668  0.9410  0.5595  2.6353
   55MOL    C2221730   5.696   4.096   1.445  0.4325 -0.2296  0.4051
   55MOL    C2321731   5.740   3.951   1.432  0.3559  0.1683  0.3124
   55MOL    C2421732   5.672   3.841   1.489  0.1008 -0.1274  0.3826
   55MOL    C2521733   5.707   3.712   1.449  0.0198 -0.6456  0.0770
   55MOL    C2621734   5.821   3.694   1.363  0.5924 -0.0445  0.3933
   55MOL    O2721735   5.881   3.570   1.351  0.0135  0.9096  0.0720
   55MOL    C2821736   5.807   3.458   1.398  0.1128  0.0694 -0.3399
   55MOL    C2921737   5.882   3.808   1.304 -0.4438  0.1288  0.3945
   55MOL    C3021738   5.846   3.934   1.342  0.5372 -1.1789  0.9908
   55MOL    C3121739   5.570   4.139   1.360 -0.2972  0.1498  0.0907
   55MOL    H3221740   5.774   4.168   1.420 -1.1762  0.7312 -2.0509
   55MOL    H3321741   5.601   3.856   1.569 -0.5780 -2.4827  0.2662
   55MOL    H3421742   5.658   3.629   1.498 -3.2858  1.8117  1.1158
   55MOL    H3521743   5.865   3.367   1.383  0.0223 -0.0334 -0.0532
   55MOL    H3621744   5.714   3.431   1.347  0.3025 -2.0085  0.3783
   55MOL    H3721745   5.804   3.455   1.507 -1.7048  1.1212 -0.3382
   55MOL    H3821746   5.957   3.789   1.229  1.4676 -2.1397  2.7687
   55MOL    H3921747   5.900   4.010   1.287 -1.8176  0.0155  0.2503
   55MOL    H4021748   5.569   4.069   1.276 -0.0256 -0.2225  0.3995
   55MOL    H4121749   5.482   4.122   1.421 -0.5037  0.2600 -0.1736
   55MOL    C4221750   5.576   4.281   1.305  0.7529 -0.2135 -0.4018
   55MOL    C4321751   5.569   4.386   1.412  0.4304  0.1931  0.8040
   55MOL    C4421752   5.688   4.466   1.434  0.4613 -0.9732  0.3369
   55MOL    C4521753   5.693   4.550   1.545  0.0071 -0.2002 -0.5414
   55MOL    C4621754   5.579   4.589   1.608  0.9589  0.2280 -0.9253
   55MOL    O4721755   5.594   4.686   1.696 -0.0426  0.2352 -0.0759
   55MOL    C4821756   5.474   4.734   1.765  0.2390 -0.2467 -0.2785
   55MOL    C4921757   5.458   4.529   1.576  0.5055 -0.6861  0.3418
   55MOL    C5021758   5.449   4.422   1.485  0.1032 -0.8207 -0.1685
   55MOL    C5121759   5.475   4.299   1.191  0.5988 -0.1762  0.0369
   55MOL    H5221760   5.671   4.297   1.253  1.0990 -0.5515  0.1197
   55MOL    H5321761   5.780   4.445   1.381 -0.4577 -1.3104 -1.1586
   55MOL    H5421762   5.783   4.604   1.569 -0.3920  0.3068 -0.1536
   55MOL    H5521763   5.395   4.759   1.695  0.1887 -1.3824 -0.6366
   55MOL    H5621764   5.443   4.649   1.825  1.5937 -1.4348 -1.2123
   55MOL    H5721765   5.484   4.823   1.827 -1.4227 -0.6008  0.5200
   55MOL    H5821766   5.363   4.556   1.619  0.7188 -0.2702  0.5522
   55MOL    H5921767   5.365   4.358   1.465  0.6790 -1.4814 -0.4996
   55MOL    H6021768   5.382   4.286   1.246  1.2872  0.4343  1.3857
   55MOL    H6121769   5.499   4.218   1.122  3.3321 -0.2523  1.0009
   55MOL    C6221770   5.462   4.438   1.122 -0.2079  0.4320  0.4384
   55MOL    C6321771   5.334   4.445   1.035  0.5976  0.6836  0.0992
   55MOL    C6421772   5.313   4.354   0.927 -0.3420  0.2628  0.0783
   55MOL    C6521773   5.191   4.341   0.856 -0.3003 -0.5424  0.1750
   55MOL    C6621774   5.087   4.429   0.898 -0.4208 -0.1180 -0.4421
   55MOL    O6721775   4.969   4.410   0.830  0.1791 -0.6755 -0.2513
   55MOL    C6821776   4.864   4.495   0.865  0.3129 -0.7167 -0.6704
   55MOL    C6921777   5.103   4.526   1.000  0.0989 -0.6006  0.2142
   55MOL    C7021778   5.234   4.542   1.060  0.0968 -0.4211 -0.2654
   55MOL    C7121779   5.586   4.471   1.031  0.1374  0.1738  0.3795
   55MOL    H7221780   5.457   4.517   1.197  1.0730 -0.1168  1.1150
   55MOL    H7321781   5.388   4.278   0.907 -0.8431 -0.3664  0.5649
   55MOL    H7421782   5.172   4.255   0.793  0.5260 -0.8872  0.3862
   55MOL    H7521783   4.890   4.600   0.872  1.6832 -1.1414  0.8982
   55MOL    H7621784   4.820   4.473   0.962 -0.2830  2.2922 -0.2154
   55MOL    H7721785   4.780   4.480   0.797 -1.2680  0.5153  0.9919
   55MOL    H7821786   5.036   4.607   1.023 -2.0139 -2.0246 -0.7934
   55MOL    H7921787   5.258   4.622   1.128 -0.5886 -1.1169  0.8144
   55MOL    H8021788   5.676   4.478   1.093  1.1922  0.6954 -1.1566
   55MOL    H8121789   5.590   4.389   0.960 -1.2475 -0.4998  1.0670
   55MOL    C8221790   5.571   4.610   0.977 -0.3343  0.1886 -0.3318
   55MOL    C8321791   5.561   4.713   1.088 -0.0231 -0.1530  0.8286
   55MOL    C8421792   5.662   4.746   1.188  0.0481 -0.0965 -0.0194
   55MOL    C8521793   5.640   4.832   1.296  0.2477  0.8127  0.3170
   55MOL    C8621794   5.521   4.907   1.307 -0.5986 -0.3682  0.3875
   55MOL    O8721795   5.502   5.000   1.410  0.2544  0.3569 -0.3206
   55MOL    C8821796   5.598   5.020   1.506 -0.2084 -0.1140 -0.4132
   55MOL    C8921797   5.425   4.886   1.203 -0.3247  0.0093 -0.2290
   55MOL    C9021798   5.448   4.790   1.101  0.2292 -0.0221  0.4717
   55MOL    C9121799   5.678   4.657   0.879 -0.2377 -0.1793 -0.2408
   55MOL    H9221800   5.479   4.612   0.917 -1.0868  2.5637  0.8350
   55MOL    H9321801   5.762   4.713   1.165  0.0332  0.2948 -0.6714
   55MOL    H9421802   5.717   4.826   1.371  1.7160 -0.6587 -1.2579
   55MOL    H9521803   5.563   5.083   1.588 -2.7480 -2.2264  0.2089
   55MOL    H9621804   5.698   5.051   1.476  0.7485  0.8661  3.5566
   55MOL    H9721805   5.634   4.935   1.563  2.1404  0.8582 -0.3994
   55MOL    H9821806   5.330   4.939   1.201 -0.0088  0.5330 -2.5703
   55MOL    H9921807   5.380   4.783   1.017  0.1280 -0.2462  0.5724
   55MOL   H10021808   5.632   4.743   0.829 -1.1665 -0.1921  0.5703
   55MOL   H10121809   5.756   4.712   0.931 -0.6571 -0.0602  0.2694
   55MOL   C10221810   5.735   4.554   0.782 -0.0922 -0.1093  0.0069
   55MOL   C10321811   5.637   4.483   0.688 -0.4336  0.2935  0.4953
   55MOL   C10421812   5.536   4.554   0.618  0.3704 -0.0672 -0.0632
   55MOL   C10521813   5.460   4.484   0.528  0.1068  0.2060 -0.2147
   55MOL   C10621814   5.475   4.345   0.510  0.4553  0.0040 -0.4575
   55MOL   O10721815   5.413   4.264   0.417  0.2599  0.2404  0.2971
   55MOL   C10821816   5.370   4.327   0.296 -0.4347 -0.8913 -0.8060
   55MOL   C10921817   5.565   4.274   0.595  0.1161 -0.1585  0.1475
   55MOL   C11021818   5.651   4.339   0.683 -0.3065 -0.2160  0.2139
   55MOL   C11121819   5.845   4.619   0.699  0.1862 -0.1802 -0.6040
   55MOL   H11221820   5.798   4.476   0.825  0.9962  0.4374 -0.5677
   55MOL   H11321821   5.520   4.661   0.623  2.0903  0.2366 -0.8748
   55MOL   H11421822   5.392   4.549   0.475  2.6240  2.0245 -1.3449
   55MOL   H11521823   5.435   4.297   0.214  0.9439 -1.9825  0.6565
   55MOL   H11621824   5.267   4.309   0.265 -0.8971 -0.5669  0.4870
   55MOL   H11721825   5.387   4.434   0.288  0.8406 -0.9023  1.2834
   55MOL   H11821826   5.592   4.170   0.584 -1.5655 -0.5561 -0.2538
   55MOL   H11921827   5.727   4.286   0.738 -0.5973 -0.9059 -0.0548
   55MOL   H12021828   5.843   4.559   0.607 -0.8311 -0.6433 -0.2869
   55MOL   H12121829   5.816   4.721   0.676  1.1441 -0.2704 -2.3074
   55MOL   C12221830   5.990   4.607   0.740  0.0159 -0.7825 -0.8398
   55MOL   C12321831   6.007   4.698   0.862  0.4859 -0.0168 -0.3561
   55MOL   C12421832   6.013   4.645   0.988 -0.2852  0.0814 -0.4227
   55MOL   C12521833   6.023   4.720   1.105 -0.1740  0.3188  0.4891
   55MOL   C12621834   6.028   4.859   1.092  0.0424  0.4444 -0.2339
   55MOL   O12721835   6.039   4.930   1.208  0.1152 -0.7968 -0.8571
   55MOL   C12821836   6.033   5.070   1.213  0.2313  0.2159  0.3609
   55MOL   C12921837   6.025   4.919   0.966 -0.5087 -0.2010 -0.1819
   55MOL   C13021838   6.018   4.837   0.851  0.1306 -0.3188 -0.7236
   55MOL   C13121839   6.098   4.631   0.635  0.7701  0.1508  0.2235
   55MOL   H13221840   5.999   4.504   0.773  2.6237 -0.1254  0.5986
   55MOL   H13321841   6.010   4.538   0.996  1.6394  0.0397 -0.0979
   55MOL   H13421842   6.028   4.671   1.201  0.7585 -0.7077 -0.0745
   55MOL   H13521843   5.938   5.114   1.184 -0.0355 -0.1566  0.6675
   55MOL   H13621844   6.051   5.116   1.311  0.2407 -0.1693  0.5405
   55MOL   H13721845   6.111   5.109   1.148  0.4198  0.3381  0.6552
   55MOL   H13821846   6.027   5.026   0.952  0.1566 -0.3307 -1.1328
   55MOL   H13921847   6.033   4.891   0.759 -0.5162 -2.2968 -2.0280
   55MOL   H14021848   6.070   4.728   0.595  0.2223  0.3352  1.0562
   55MOL   H14121849   6.074   4.561   0.554  2.3871  0.1452 -0.2611
   55MOL   C14221850   6.241   4.626   0.685 -1.2778  0.6652 -0.3694
   55MOL   C14321851   6.277   4.486   0.735  0.4353  0.5387 -0.1340
   55MOL   C14421852   6.280   4.454   0.876  0.6432  0.5234  0.4047
   55MOL   C14521853   6.305   4.318   0.915 -0.4225 -0.4334 -0.1237
   55MOL   C14621854   6.343   4.222   0.819  0.8542  0.1397 -0.8280
   55MOL   O14721855   6.386   4.101   0.870  0.7870  0.5280 -1.1388
   55MOL   C14821856   6.517   4.061   0.836  0.4081 -0.1216 -0.0343
   55MOL   C14921857   6.348   4.257   0.685  0.4856 -0.7290  0.2440
   55MOL   C15021858   6.313   4.385   0.637 -0.0937 -0.1366 -0.4367
   55MOL   C15121859   6.350   4.690   0.586  0.2023  0.2631  0.0168
   55MOL   H15221860   6.240   4.688   0.774 -1.9903  1.8539 -1.1929
   55MOL   H15321861   6.255   4.523   0.955 -0.9896 -0.8961  1.1654
   55MOL   H15421862   6.311   4.297   1.021 -0.1118  0.7919  0.1132
   55MOL   H15521863   6.599   4.132   0.825  2.3761 -2.0365  1.7626
   55MOL   H15621864   6.534   3.990   0.917 -2.0391  1.6739  2.1504
   55MOL   H15721865   6.512   3.998   0.748  1.6643 -1.3243  0.7301
   55MOL   H15821866   6.396   4.188   0.616 -0.7227  0.6918 -2.0594
   55MOL   H15921867   6.314   4.400   0.530  1.2768 -2.9658 -0.8365
   55MOL   H16021868   6.299   4.706   0.491  2.5910 -1.0596 -1.5674
   55MOL   H16121869   6.430   4.618   0.567  0.7417  0.0653  2.8494
   55MOL   C16221870   6.410   4.823   0.644  1.0134  0.2393  0.4107
   55MOL   C16321871   6.449   4.918   0.532 -0.0476  0.2200  0.3579
   55MOL   C16421872   6.535   4.870   0.432 -0.2986 -0.3224 -0.1673
   55MOL   C16521873   6.599   4.953   0.341 -0.4247 -0.1441 -0.0481
   55MOL   C16621874   6.566   5.092   0.338 -0.0544  0.4294 -0.0676
   55MOL   O16721875   6.642   5.177   0.260 -0.5341 -0.0118  0.1485
   55MOL   C16821876   6.607   5.315   0.258 -0.4640 -0.3377  0.1002
   55MOL   C16921877   6.471   5.143   0.432 -0.4473 -0.9425  0.0706
   55MOL   C17021878   6.416   5.055   0.528  0.4035 -0.3447 -0.1274
   55MOL   C17121879   6.531   4.786   0.737  0.0172  0.1098 -0.0784
   55MOL   H17221880   6.337   4.881   0.701  0.1874  0.5240 -0.8968
   55MOL   H17321881   6.573   4.769   0.432  0.9572  0.1354 -1.6753
   55MOL   H17421882   6.672   4.901   0.280 -1.5161 -1.1646 -0.5136
   55MOL   H17521883   6.632   5.347   0.359 -1.1879 -2.9944  1.1597
   55MOL   H17621884   6.508   5.342   0.222  0.2903 -0.2327 -1.9839
   55MOL   H17721885   6.663   5.379   0.190 -1.6577  2.9512  2.0716
   55MOL   H17821886   6.448   5.245   0.459 -0.6634 -1.2574  1.1170
   55MOL   H17921887   6.347   5.098   0.599 -0.3478 -0.6354 -0.6818
   55MOL   H18021888   6.624   4.837   0.710 -0.6158  2.6328  2.2564
   55MOL   H18121889   6.556   4.682   0.718  1.1527  0.3722 -0.0698
   55MOL   C18221890   6.505   4.797   0.890 -0.1404  0.4383  0.1595
   55MOL   C18321891   6.514   4.941   0.934  0.2239  0.5545 -0.1061
   55MOL   C18421892   6.635   5.015   0.943  0.1125  0.2981 -0.6715
   55MOL   C18521893   6.628   5.147   0.998 -0.3861 -0.3939  0.0293
   55MOL   C18621894   6.512   5.203   1.049  0.2825 -0.4821  0.1893
   55MOL   O18721895   6.517   5.330   1.102 -0.4061 -0.0679 -0.7564
   55MOL   C18821896   6.399   5.388   1.158  0.3930  0.4271  0.5521
   55MOL   C18921897   6.388   5.131   1.036  0.2575  0.4123 -0.1901
   55MOL   C19021898   6.397   5.001   0.980  0.3643  0.6934  0.0781
   55MOL   C19121899   6.607   4.706   0.970  0.9243 -0.0680 -0.0469
   55MOL   H19221900   6.403   4.764   0.910  0.4422 -0.7460  1.3159
   55MOL   H19321901   6.732   4.979   0.913  1.0941  0.5890  1.9921
   55MOL   H19421902   6.724   5.195   1.007 -1.5586  1.6022  2.6596
   55MOL   H19521903   6.322   5.376   1.082  2.5395 -2.0330 -1.3443
   55MOL   H19621904   6.408   5.493   1.187 -3.5071  0.8278  0.5628
   55MOL   H19721905   6.364   5.321   1.236  0.2373 -0.2838 -0.1217
   55MOL   H19821906   6.296   5.154   1.087  1.0173  0.8100  1.0366
   55MOL   H19921907   6.302   4.950   0.972  0.2668  0.7451  0.8505
   55MOL   H20021908   6.593   4.600   0.945 -1.7792  0.0275  0.9357
   55MOL   H20121909   6.702   4.730   0.923  0.4326  1.5581 -0.2160
   55MOL   C20221910   6.597   4.708   1.120 -0.4983 -0.9832 -0.2583
   55MOL   C20321911   6.727   4.656   1.172 -0.3293 -0.4008 -0.0830
   55MOL   C20421912   6.752   4.522   1.166 -0.0729  0.3480  0.5931
   55MOL   C20521913   6.871   4.466   1.216  0.0684 -0.2373 -0.6955
   55MOL   C20621914   6.966   4.554   1.276 -0.2727  0.1744 -0.1712
   55MOL   O20721915   7.092   4.517   1.314  0.2950  0.1362  0.2148
   55MOL   C20821916   7.119   4.373   1.325  0.2595 -0.7086 -0.8232
   55MOL   C20921917   6.945   4.691   1.281 -0.6322  0.1638 -0.0509
   55MOL   C21021918   6.825   4.738   1.225 -0.5748  0.1169  0.3443
   55MOL   C21121919   6.472   4.640   1.170  0.6608 -0.7013 -1.2331
   55MOL   H21221920   6.590   4.813   1.146  0.3803 -0.9828  0.0064
   55MOL   H21321921   6.692   4.454   1.109  3.3512 -1.3156 -1.2009
   55MOL   H21421922   6.888   4.361   1.198 -0.2020 -0.3164 -0.5030
   55MOL   H21521923   7.223   4.355   1.351 -0.3662 -2.3673  0.6848
   55MOL   H21621924   7.057   4.324   1.400  0.0011  1.6876  0.5880
   55MOL   H21721925   7.100   4.328   1.228  0.1144  1.1819 -1.6802
   55MOL   H21821926   7.024   4.752   1.322 -1.1807  0.1149  1.1127
   55MOL   H21921927   6.800   4.843   1.230  0.4256  0.5339 -2.3322
   55MOL   H22021928   6.455   4.540   1.131 -0.1559 -0.5861 -1.1751
   55MOL   H22121929   6.392   4.704   1.132 -0.0327  0.9576  2.7905
   55MOL   C22221930   6.469   4.642   1.325 -0.0335  0.0320 -0.1230
   55MOL   C22321931   6.463   4.785   1.377 -0.0630 -0.0200 -0.1901
   55MOL   C22421932   6.369   4.878   1.330  0.4210  0.6979  0.1647
   55MOL   C22521933   6.376   5.010   1.369 -0.3324 -0.2255 -0.3955
   55MOL   C22621934   6.474   5.056   1.463 -0.0381  0.4744 -0.3413
   55MOL   O22721935   6.470   5.184   1.502  0.3800 -0.4077 -0.3937
   55MOL   C22821936   6.516   5.214   1.635 -0.0460 -0.9859 -0.5291
   55MOL   C22921937   6.556   4.954   1.525  0.1579 -0.2735 -0.9468
   55MOL   C23021938   6.548   4.818   1.487 -0.6251 -0.4130 -0.6934
   55MOL   C23121939   6.347   4.567   1.395 -0.1645 -0.3057 -0.6641
   55MOL   H23221940   6.555   4.600   1.377 -0.2441  2.1403  2.0094
   55MOL   H23321941   6.289   4.851   1.262 -0.1415  0.3618  0.9537
   55MOL   H23421942   6.313   5.092   1.337  2.0767  2.0233  0.3813
   55MOL   H23521943   6.625   5.220   1.641 -0.1279 -0.9729  1.0610
   55MOL   H23621944   6.481   5.306   1.682  0.0130 -0.9811 -0.4950
   55MOL   H23721945   6.476   5.148   1.712 -0.4057  0.9403  0.9660
   55MOL   H23821946   6.630   4.982   1.599  0.5635 -1.3504 -0.9375
   55MOL   H23921947   6.608   4.747   1.542 -0.7740 -0.1199 -0.1432
   55MOL   H24021948   6.353   4.587   1.502 -0.4204  4.2271 -1.3836
   55MOL   H24121949   6.247   4.603   1.367 -0.0542  0.8444  0.3634
   55MOL   C24221950   6.346   4.406   1.375 -0.5325 -0.3216 -0.2234
   55MOL   C24321951   6.480   4.337   1.399  1.2587 -1.1717  0.6666
   55MOL   C24421952   6.539   4.244   1.312  1.0437  0.5956 -0.2632
   55MOL   C24521953   6.664   4.186   1.338  0.0870  0.1060 -0.2994
   55MOL   C24621954   6.733   4.215   1.456 -0.1922 -0.1875 -0.0528
   55MOL   O24721955   6.863   4.160   1.466  0.1813 -0.6748 -0.2321
   55MOL   C24821956   6.919   4.164   1.599  0.5486 -0.6139  0.1511
   55MOL   C24921957   6.671   4.299   1.552 -0.7591  0.6107  0.3526
   55MOL   C25021958   6.549   4.362   1.519  0.4909 -0.0424  0.2461
   55MOL   C25121959   6.236   4.354   1.469 -0.3753 -0.6714 -0.1988
   55MOL   H25221960   6.324   4.392   1.269 -0.6606  1.1121 -0.3925
   55MOL   H25321961   6.491   4.221   1.218  0.9912  0.3471 -0.1746
   55MOL   H25421962   6.716   4.114   1.277 -0.3313 -0.3023 -0.1795
   55MOL   H25521963   6.889   4.082   1.665  1.8665 -1.0941  0.1608
   55MOL   H25621964   7.024   4.149   1.579 -0.4145 -1.3754 -4.9461
   55MOL   H25721965   6.916   4.262   1.647 -0.5104 -0.6121  0.1037
   55MOL   H25821966   6.708   4.313   1.653  0.9436  0.0315 -0.1708
   55MOL   H25921967   6.505   4.419   1.600  1.2563  0.5353  0.2562
   55MOL   H26021968   6.146   4.415   1.474  0.3892  0.4675 -0.2642
   55MOL   H26121969   6.276   4.354   1.570  1.1493  3.4458 -0.7007
   55MOL   C26221970   6.196   4.206   1.439 -0.1775  0.0840 -0.1010
   55MOL   C26321971   6.125   4.197   1.302 -0.0768 -0.3937  0.8841
   55MOL   C26421972   6.160   4.097   1.213  0.5402  0.4035 -0.0087
   55MOL   C26521973   6.108   4.096   1.083 -0.3966 -0.3766  1.0504
   55MOL   C26621974   6.015   4.195   1.040  0.3818  0.0092 -0.3508
   55MOL   O26721975   5.954   4.203   0.919  0.6986 -0.0730  0.6665
   55MOL   C26821976   5.995   4.115   0.810  0.2755  0.2861 -0.1921
   55MOL   C26921977   5.975   4.289   1.132 -0.3068  0.4724 -0.1716
   55MOL   C27021978   6.030   4.292   1.261  0.3294  0.5847 -0.2848
   55MOL   C27121979   6.124   4.130   1.551  0.1566  0.7965  0.0412
   55MOL   H27221980   6.295   4.161   1.425 -0.5375 -0.8989  0.4765
   55MOL   H27321981   6.229   4.022   1.248 -2.2722 -1.0713  2.5815
   55MOL   H27421982   6.149   4.024   1.014  3.2099  1.7327  0.8312
   55MOL   H27521983   6.096   4.140   0.774  0.7505 -0.3656  0.6826
   55MOL   H27621984   5.928   4.111   0.724  1.8817 -0.3674 -1.4544
   55MOL   H27721985   6.024   4.017   0.846 -0.5956  0.4283  0.8964
   55MOL   H27821986   5.905   4.366   1.101 -0.7172 -0.5041 -1.7320
   55MOL   H27921987   5.989   4.362   1.332 -1.6288 -0.1084 -0.7031
   55MOL   H28021988   6.090   4.215   1.610  0.2113  1.4322 -0.8298
   55MOL   H28121989   6.044   4.061   1.527  0.3285  0.8465 -0.7027
   55MOL   C28221990   6.235   4.069   1.639 -0.6184 -0.1292 -0.0917
   55MOL   C28321991   6.291   3.937   1.579 -0.7518 -0.2072 -0.0378
   55MOL   C28421992   6.422   3.926   1.531 -0.2871  0.1688  0.0740
   55MOL   C28521993   6.474   3.802   1.484 -0.5621  0.8742  0.1442
   55MOL   C28621994   6.393   3.685   1.500  0.1106  0.2943  0.1682
   55MOL   O28721995   6.437   3.562   1.448  0.0075 -0.1204 -0.2726
   55MOL   C28821996   6.395   3.449   1.532 -0.4188 -0.1416  0.2237
   55MOL   C28921997   6.256   3.697   1.537 -0.3781 -0.2227 -0.0395
   55MOL   C29021998   6.208   3.829   1.579  0.1433 -0.0483  0.5007
   55MOL   C29121999   6.218   4.060   1.792 -0.2566 -0.3589 -0.2312
   55MOL   H29222000   6.322   4.134   1.629 -0.1167 -0.6872  0.5659
   55MOL   H29322001   6.485   4.013   1.528  1.8915 -1.4194 -1.6824
   55MOL   H29422002   6.578   3.804   1.458 -0.3247  0.3672  1.0767
   55MOL   H29522003   6.416   3.472   1.637  0.2338 -4.0034  1.0288
   55MOL   H29622004   6.286   3.438   1.530 -0.7226  2.6048 -0.0267
   55MOL   H29722005   6.448   3.356   1.514 -2.8774 -1.9635  2.0381
   55MOL   H29822006   6.189   3.615   1.516  0.3274 -1.0458  0.8871
   55MOL   H29922007   6.102   3.846   1.582 -0.1939 -0.9743 -3.4278
   55MOL   H30022008   6.137   3.990   1.811  0.4518 -1.7462 -2.1459
   55MOL   H30122009   6.309   4.016   1.833  0.2925 -1.4151 -2.5204
   55MOL   C30222010   6.171   4.187   1.878 -0.9953  1.1894 -0.4739
   55MOL   C30322011   6.138   4.146   2.022 -0.2564  0.4715 -0.4459
   55MOL   C30422012   6.227   4.082   2.110  0.2223 -0.4034 -0.7621
   55MOL   C30522013   6.198   4.035   2.239 -0.1117 -0.6096 -0.2560
   55MOL   C30622014   6.066   4.062   2.287 -0.0976 -0.0521  0.0758
   55MOL   O30722015   6.027   4.025   2.410 -0.8407 -0.3194 -0.2865
   55MOL   C30822016   6.126   3.960   2.495 -0.7752 -0.6521  0.6594
   55MOL   C30922017   5.970   4.127   2.199 -0.2483  0.4241 -0.4991
   55MOL   C31022018   6.004   4.172   2.071  0.5227 -0.1357 -0.4887
   55MOL   C31122019   6.286   4.294   1.884 -0.1013  0.2676 -0.3000
   55MOL   H31222020   6.082   4.240   1.846 -0.1751  4.9359  3.0246
   55MOL   H31322021   6.324   4.062   2.067  1.1732 -0.3487  1.3359
   55MOL   H31422022   6.280   3.994   2.295 -0.6311 -0.3368  0.7205
   55MOL   H31522023   6.203   4.034   2.515  0.2198 -1.8329  1.2429
   55MOL   H31622024   6.156   3.868   2.444 -2.1150  0.8276 -3.0118
   55MOL   H31722025   6.078   3.943   2.591 -3.0889  0.8206 -0.1911
   55MOL   H31822026   5.873   4.162   2.233  1.0580  2.0329  1.7699
   55MOL   H31922027   5.932   4.220   2.007 -0.9325 -0.5603  0.8118
   55MOL   H32022028   6.331   4.311   1.786 -0.3024  0.4307 -0.3645
   55MOL   H32122029   6.383   4.269   1.926 -1.3529 -2.2883  1.2085
   55MOL   C32222030   6.250   4.433   1.955 -0.0294  0.7622  0.0060
   55MOL   C32322031   6.171   4.527   1.861  0.6334  0.3007 -0.1848
   55MOL   C32422032   6.240   4.604   1.763  0.4377  0.0633  0.1265
   55MOL   C32522033   6.172   4.682   1.670  0.1055  0.2608 -0.0886
   55MOL   C32622034   6.031   4.685   1.674  0.2507 -0.0652  0.1238
   55MOL   O32722035   5.959   4.762   1.582  0.4101  0.3065 -0.2115
   55MOL   C32822036   6.009   4.892   1.542 -0.5045 -0.6274 -0.3947
   55MOL   C32922037   5.964   4.614   1.776 -0.3886  0.1318 -0.4935
   55MOL   C33022038   6.031   4.531   1.865 -0.0959  0.8034  0.0818
   55MOL   C33122039   6.367   4.503   2.029  0.7056 -0.1200 -0.2388
   55MOL   H33222040   6.180   4.402   2.032  0.9642 -1.5435  0.0121
   55MOL   H33322041   6.348   4.599   1.766  0.3970 -1.6274 -0.8279
   55MOL   H33422042   6.224   4.739   1.594 -0.8728 -1.3791 -2.0291
   55MOL   H33522043   5.943   4.968   1.584 -0.6080 -0.3497 -1.0525
   55MOL   H33622044   5.984   4.899   1.436  0.2673  0.7203 -0.4872
   55MOL   H33722045   6.111   4.915   1.572 -0.1510  0.0020 -2.0184
   55MOL   H33822046   5.858   4.603   1.796 -0.5567  0.4153 -1.1791
   55MOL   H33922047   5.978   4.456   1.922 -0.9872  1.1361 -0.3032
   55MOL   H34022048   6.415   4.423   2.086 -0.5376  0.7305  2.0705
   55MOL   H34122049   6.431   4.551   1.954  1.8900  0.4310  1.0949
   55MOL   C34222050   6.320   4.607   2.128 -0.4362  0.5288 -0.2048
   55MOL   C34322051   6.287   4.745   2.061  0.6393  0.0699 -0.0973
   55MOL   C34422052   6.154   4.798   2.054 -0.3669 -0.3842  0.2367
   55MOL   C34522053   6.130   4.923   1.980 -0.1522 -0.5978 -0.6956
   55MOL   C34622054   6.234   4.993   1.917 -0.1774  0.0119  0.8396
   55MOL   O34722055   6.218   5.103   1.829  0.2848 -0.0319 -1.1166
   55MOL   C34822056   6.087   5.127   1.786  0.5936  0.0723 -0.2380
   55MOL   C34922057   6.364   4.943   1.936  0.8461  0.6228  0.5037
   55MOL   C35022058   6.388   4.823   2.009 -0.1361  0.1247  0.4280
   55MOL   C35122059   6.438   4.628   2.232  0.1416  0.4657  0.3622
   55MOL   H35222060   6.231   4.574   2.180 -1.1851  0.3762 -1.5572
   55MOL   H35322061   6.066   4.747   2.090 -0.3112 -0.2493  0.5592
   55MOL   H35422062   6.029   4.962   1.981 -0.8743 -2.3585 -1.7732
   55MOL   H35522063   6.032   5.034   1.772 -0.0715  0.2258  1.2801
   55MOL   H35622064   6.022   5.197   1.838  2.5511  2.7237 -1.2037
   55MOL   H35722065   6.115   5.173   1.691  1.5774 -2.4517 -1.2234
   55MOL   H35822066   6.440   4.997   1.881  1.0087 -1.5431 -1.4584
   55MOL   H35922067   6.486   4.778   2.012 -0.4000 -0.5059 -0.3482
   55MOL   H36022068   6.528   4.643   2.172  0.3881  0.4913  0.7388
   55MOL   H36122069   6.414   4.722   2.282 -1.4078 -0.4099  1.2711
   55MOL   C36222070   6.457   4.524   2.347  0.3605  0.2470 -1.0877
   55MOL   C36322071   6.331   4.497   2.425  0.8254  0.1181  0.2095
   55MOL   C36422072   6.250   4.387   2.387  0.0366 -0.0615  0.3090
   55MOL   C36522073   6.119   4.375   2.440  0.1187  0.4851  0.5655
   55MOL   C36622074   6.074   4.458   2.543  0.1777 -0.4417 -0.3258
   55MOL   O36722075   5.953   4.441   2.603  0.0445 -0.4901  0.5546
   55MOL   C36822076   5.917   4.305   2.621 -0.3673 -0.7873 -0.0339
   55MOL   C36922077   6.157   4.572   2.585  0.1299  0.4526 -0.0343
   55MOL   C37022078   6.286   4.590   2.527  0.5558  0.0013  0.2651
   55MOL   C37122079   6.584   4.561   2.436 -0.6119  0.7635  0.1778
   55MOL   H37222080   6.469   4.425   2.303 -1.6059 -0.1786 -0.7113
   55MOL   H37322081   6.293   4.322   2.312 -0.5809 -0.9700  0.7364
   55MOL   H37422082   6.058   4.291   2.411  1.2185 -0.1089 -0.0799
   55MOL   H37522083   5.837   4.280   2.551 -1.8028  2.2470  0.4377
   55MOL   H37622084   5.993   4.228   2.635 -0.6871 -0.8724  1.3241
   55MOL   H37722085   5.867   4.327   2.716  0.5417 -0.0871  0.2823
   55MOL   H37822086   6.124   4.638   2.665 -3.2733  0.1384 -1.0856
   55MOL   H37922087   6.338   4.682   2.549  0.6615 -0.2998  1.3052
   55MOL   H38022088   6.661   4.595   2.367  0.5809  0.5577  1.3936
   55MOL   H38122089   6.571   4.651   2.497 -1.2843 -0.9922  2.7152
   55MOL   C38222090   6.630   4.441   2.524 -0.6423  0.0464 -0.0378
   55MOL   C38322091   6.626   4.300   2.467 -0.2765 -0.4167 -0.1896
   55MOL   C38422092   6.543   4.196   2.520  0.1967 -0.3288 -0.5098
   55MOL   C38522093   6.555   4.068   2.466  0.3018 -0.3840  0.4614
   55MOL   C38622094   6.649   4.036   2.368 -0.5795 -0.5598  0.7186
   55MOL   O38722095   6.643   3.919   2.296 -0.5607  0.3503  0.2048
   55MOL   C38822096   6.693   3.802   2.365 -0.0090 -0.4671 -0.1207
   55MOL   C38922097   6.736   4.130   2.319 -0.5187 -0.7820  0.3981
   55MOL   C39022098   6.724   4.263   2.366 -0.4129  0.1795 -0.1003
   55MOL   C39122099   6.584   4.448   2.671 -0.4331  0.5713  0.3376
   55MOL   H39222100   6.735   4.465   2.543 -1.1038 -0.2061  2.9791
   55MOL   H39322101   6.467   4.221   2.593  1.2871 -0.0945  0.5729
   55MOL   H39422102   6.476   3.998   2.490  0.1211  0.6756  3.1312
   55MOL   H39522103   6.779   3.835   2.424 -2.2011  2.3479  1.6772
   55MOL   H39622104   6.727   3.730   2.291  1.5996  3.0375 -2.9359
   55MOL   H39722105   6.625   3.746   2.430 -1.3969 -0.3805 -1.4750
   55MOL   H39822106   6.807   4.109   2.240  0.4688  2.2229  0.4331
   55MOL   H39922107   6.792   4.338   2.329 -0.5611  0.9512  1.1269
   55MOL   H40022108   6.596   4.545   2.719  0.8202 -1.2744  3.9229
   55MOL   H40122109   6.644   4.375   2.725 -0.7630  0.1546  0.1431
   55MOL   H40222110   6.478   4.435   2.693 -0.0858 -0.8728  1.2194
   56MOL     C122111   5.276   6.497   3.005  0.4787 -0.8036 -0.4265
   56MOL     C222112   5.325   6.363   2.955  0.7202  0.7318  0.5227
   56MOL     C322113   5.235   6.260   2.925 -0.4756  0.0020 -0.3905
   56MOL     C422114   5.280   6.140   2.866  0.2999  0.5548 -0.0594
   56MOL     C522115   5.418   6.125   2.821 -0.2872  0.2010 -0.1005
   56MOL     O622116   5.472   6.011   2.764  0.3086 -0.0733 -0.3737
   56MOL     C722117   5.386   5.903   2.777 -0.0535  0.3109  0.1623
   56MOL     C822118   5.509   6.234   2.847 -0.1483  0.1572  1.0596
   56MOL     C922119   5.458   6.350   2.909 -0.1596 -0.1380  0.3185
   56MOL    C1022120   5.350   6.532   3.140  0.7582  0.5765 -0.1347
   56MOL    H1122121   5.170   6.483   3.021 -0.1106  1.8105 -1.7969
   56MOL    H1222122   5.131   6.262   2.955  0.2821  1.4267  2.2676
   56MOL    H1322123   5.208   6.065   2.839  0.6542  0.5378 -0.9705
   56MOL    H1422124   5.429   5.806   2.750 -1.0661 -0.1418  0.1333
   56MOL    H1522125   5.342   5.888   2.876 -0.3931 -0.8530 -0.1574
   56MOL    H1622126   5.304   5.911   2.706  1.3491 -1.6481 -1.7109
   56MOL    H1722127   5.610   6.227   2.810 -0.7700  0.6577 -0.7900
   56MOL    H1822128   5.534   6.426   2.921 -0.5132  0.2690 -0.0008
   56MOL    H1922129   5.347   6.456   3.217  0.2862  0.4745 -0.2539
   56MOL    H2022130   5.458   6.533   3.125  1.2518 -4.5056  2.2600
   56MOL    H2122131   5.299   6.569   2.926  1.7439  0.1051  0.7541
   56MOL    C2222132   5.299   6.658   3.216  0.3050 -0.3517 -0.9503
   56MOL    C2322133   5.324   6.664   3.372  0.2478  0.2952  0.3414
   56MOL    C2422134   5.216   6.640   3.460  0.3315 -0.1342 -0.3638
   56MOL    C2522135   5.227   6.639   3.601  0.7629 -0.5850 -0.1897
   56MOL    C2622136   5.351   6.664   3.655 -0.7006  0.5768 -0.0818
   56MOL    O2722137   5.382   6.652   3.792 -0.4568 -0.1181  0.1316
   56MOL    C2822138   5.279   6.666   3.884 -0.7204 -0.0309  0.1144
   56MOL    C2922139   5.461   6.687   3.572  0.4346 -0.9427  0.4807
   56MOL    C3022140   5.450   6.699   3.433  0.4438 -0.5863  0.5491
   56MOL    C3122141   5.343   6.788   3.142  0.3788  0.1126 -0.8116
   56MOL    H3222142   5.194   6.634   3.200 -0.5542  1.8071  1.1963
   56MOL    H3322143   5.121   6.611   3.419  0.2907  1.5122 -1.4745
   56MOL    H3422144   5.140   6.622   3.663 -0.0082  1.0058 -0.8137
   56MOL    H3522145   5.231   6.576   3.923 -0.0397  0.2724  1.7121
   56MOL    H3622146   5.197   6.728   3.849  1.0681  2.1266 -0.3616
   56MOL    H3722147   5.315   6.719   3.973  0.5010  0.2870 -0.5567
   56MOL    H3822148   5.556   6.701   3.621 -0.1300 -0.6684  1.5146
   56MOL    H3922149   5.533   6.718   3.367 -0.9501 -0.2152 -1.1509
   56MOL    H4022150   5.427   6.825   3.202  1.9343 -1.8371 -1.7339
   56MOL    H4122151   5.381   6.761   3.044 -0.3786  0.5623 -1.2374
   56MOL    C4222152   5.229   6.894   3.127  0.1521  0.1547  0.1152
   56MOL    C4322153   5.107   6.831   3.056  0.5512 -0.0653  0.4727
   56MOL    C4422154   5.117   6.802   2.913 -0.3879 -0.3885 -0.1829
   56MOL    C4522155   5.007   6.755   2.840 -0.2862  0.4497 -0.4478
   56MOL    C4622156   4.883   6.726   2.908  1.0162  0.7898 -0.4844
   56MOL    O4722157   4.783   6.675   2.835 -0.1552 -0.2110  0.1642
   56MOL    C4822158   4.685   6.592   2.902 -0.3024  0.1904  0.2180
   56MOL    C4922159   4.877   6.754   3.047  0.0667 -0.7056  0.0572
   56MOL    C5022160   4.985   6.814   3.116 -0.3015 -0.2859 -0.1687
   56MOL    C5122161   5.265   7.025   3.058 -0.2292  0.0619  0.3283
   56MOL    H5222162   5.198   6.915   3.229  0.3057 -0.6338  0.3291
   56MOL    H5322163   5.212   6.822   2.865  0.3907  0.4659  1.6547
   56MOL    H5422164   5.001   6.730   2.735  1.6295  1.1697 -0.7514
   56MOL    H5522165   4.621   6.657   2.961  0.8107  2.0231 -0.5417
   56MOL    H5622166   4.635   6.518   2.839  0.3799  0.3547 -0.5386
   56MOL    H5722167   4.749   6.531   2.966  1.7493  0.6338 -1.3579
   56MOL    H5822168   4.780   6.750   3.095 -0.1073  0.2974 -0.1990
   56MOL    H5922169   4.970   6.847   3.218 -1.5994  0.2384 -0.5214
   56MOL    H6022170   5.173   7.081   3.041 -0.4812 -0.3634  0.2916
   56MOL    H6122171   5.300   6.997   2.959 -1.1361 -1.3861  0.4113
   56MOL    C6222172   5.368   7.124   3.132  0.0482  0.0121 -0.5713
   56MOL    C6322173   5.337   7.138   3.280 -0.3243  0.3593 -0.3818
   56MOL    C6422174   5.219   7.195   3.332 -0.0653 -0.4141 -0.8267
   56MOL    C6522175   5.195   7.195   3.474 -0.1352 -0.5126 -0.0999
   56MOL    C6622176   5.279   7.129   3.562 -0.0735  1.1768 -0.0572
   56MOL    O6722177   5.241   7.122   3.696 -0.0009 -0.5030  0.0966
   56MOL    C6822178   5.280   7.015   3.780 -1.1365  0.3439  0.8376
   56MOL    C6922179   5.396   7.066   3.511  0.2301 -0.8058 -0.1195
   56MOL    C7022180   5.421   7.072   3.373  0.0519  0.0515 -0.1045
   56MOL    C7122181   5.392   7.263   3.066 -0.5907  0.0171 -0.4037
   56MOL    H7222182   5.464   7.073   3.130  0.6568  1.0334  1.0591
   56MOL    H7322183   5.156   7.247   3.261 -1.7502 -0.8404  0.3279
   56MOL    H7422184   5.110   7.242   3.521  0.2030 -0.1793  0.1780
   56MOL    H7522185   5.322   6.935   3.719 -0.1664  0.7256  0.9951
   56MOL    H7622186   5.194   6.977   3.834 -1.8454 -0.4521 -0.8262
   56MOL    H7722187   5.347   7.059   3.854 -0.4645 -1.7326  1.4849
   56MOL    H7822188   5.473   7.014   3.567  1.6220 -1.3351 -2.4701
   56MOL    H7922189   5.514   7.023   3.348 -0.7454  0.1722 -3.5919
   56MOL    H8022190   5.297   7.313   3.048 -0.3444  0.9518  0.9259
   56MOL    H8122191   5.440   7.331   3.135  1.4621  0.1860 -1.9664
   56MOL    C8222192   5.476   7.260   2.938 -0.7124  0.4358  0.9107
   56MOL    C8322193   5.390   7.216   2.811  0.0657  0.2302 -0.6716
   56MOL    C8422194   5.293   7.299   2.760 -0.1132  0.1989  0.8458
   56MOL    C8522195   5.218   7.253   2.652  0.1044 -0.5931  0.1816
   56MOL    C8622196   5.253   7.131   2.588 -0.0785  0.3190 -0.6100
   56MOL    O8722197   5.186   7.080   2.481 -0.2755  0.2770  0.1642
   56MOL    C8822198   5.142   7.183   2.387 -0.3427  0.7118  0.0950
   56MOL    C8922199   5.348   7.048   2.645 -0.0593  0.5865 -0.2408
   56MOL    C9022200   5.427   7.094   2.745  0.2692  0.1797 -0.0502
   56MOL    C9122201   5.568   7.385   2.915 -0.4945 -0.7472 -0.0152
   56MOL    H9222202   5.549   7.179   2.947  1.0757  1.7484 -1.0975
   56MOL    H9322203   5.270   7.396   2.801 -0.8080 -0.1588  1.3006
   56MOL    H9422204   5.149   7.318   2.600 -0.6735 -0.5887  1.1953
   56MOL    H9522205   5.038   7.214   2.389 -1.1681 -1.8157 -1.8938
   56MOL    H9622206   5.162   7.147   2.286  1.8011  3.4076 -0.5245
   56MOL    H9722207   5.199   7.277   2.385  1.7156 -0.4222  2.4617
   56MOL    H9822208   5.367   6.954   2.597 -1.5194  0.6285 -0.9346
   56MOL    H9922209   5.497   7.021   2.782  0.8965 -0.5381 -2.5664
   56MOL   H10022210   5.503   7.461   2.871 -0.5118  0.0812  1.3875
   56MOL   H10122211   5.611   7.420   3.009 -0.9843 -0.7618  0.2135
   56MOL   C10222212   5.683   7.364   2.812 -0.4297  0.3252 -0.7799
   56MOL   C10322213   5.757   7.494   2.791 -0.0400 -0.7670  0.0555
   56MOL   C10422214   5.844   7.541   2.886 -0.2190  0.2018  0.0400
   56MOL   C10522215   5.911   7.664   2.875  0.3261  0.3840  0.0880
   56MOL   C10622216   5.902   7.741   2.760  0.1138 -0.2023  0.3463
   56MOL   O10722217   5.984   7.851   2.759  0.3739  0.1005 -0.2054
   56MOL   C10822218   6.049   7.874   2.633 -0.2088 -0.3271  0.2384
   56MOL   C10922219   5.812   7.699   2.658 -0.7918 -0.0533  0.1625
   56MOL   C11022220   5.734   7.579   2.680 -0.3388 -0.1772  0.5625
   56MOL   C11122221   5.780   7.248   2.837 -0.2153  0.2973 -0.3046
   56MOL   H11222222   5.621   7.338   2.726 -4.8465  0.6683  2.1164
   56MOL   H11322223   5.864   7.482   2.975 -2.1611 -3.7215 -1.9803
   56MOL   H11422224   5.983   7.694   2.949  0.1133 -1.9759  1.2916
   56MOL   H11522225   5.990   7.926   2.557 -0.8153  2.7868  2.7567
   56MOL   H11622226   6.123   7.948   2.660  0.2505 -0.9700  0.7557
   56MOL   H11722227   6.087   7.785   2.583 -1.7669 -1.1026  0.3877
   56MOL   H11822228   5.824   7.751   2.564  1.0617 -1.3445 -0.3568
   56MOL   H11922229   5.666   7.543   2.605  1.1205 -2.5935  0.3650
   56MOL   H12022230   5.847   7.261   2.922  0.4186  1.3699 -0.9549
   56MOL   H12122231   5.726   7.155   2.855  1.3201 -0.4940  0.2846
   56MOL   C12222232   5.885   7.227   2.724  0.5225 -0.6721  0.0066
   56MOL   C12322233   5.820   7.211   2.581 -0.0172  0.7089  0.2231
   56MOL   C12422234   5.721   7.119   2.561  0.0513  0.2105 -0.2384
   56MOL   C12522235   5.654   7.107   2.437 -0.6961  0.9324  0.3902
   56MOL   C12622236   5.696   7.188   2.332 -0.4371 -0.2647 -0.0049
   56MOL   O12722237   5.633   7.202   2.209 -0.0500  0.5921  0.6980
   56MOL   C12822238   5.509   7.141   2.200  0.4288  0.4073 -0.1256
   56MOL   C12922239   5.814   7.260   2.348  0.9905  0.0789 -0.1659
   56MOL   C13022240   5.871   7.285   2.477  1.3027  0.7841 -0.0089
   56MOL   C13122241   5.971   7.099   2.754  0.2884 -0.3538  0.4482
   56MOL   H13222242   5.951   7.314   2.721 -0.7425  0.3116  0.2331
   56MOL   H13322243   5.671   7.076   2.646  1.0871  0.6919  0.6195
   56MOL   H13422244   5.572   7.036   2.432  2.4810 -3.0022  1.5340
   56MOL   H13522245   5.519   7.033   2.215 -0.4868  0.6103  1.9761
   56MOL   H13622246   5.441   7.173   2.278  0.6087 -1.5187  0.8470
   56MOL   H13722247   5.449   7.153   2.110  2.4663 -1.5857 -1.8321
   56MOL   H13822248   5.857   7.316   2.266  0.2946  0.9446  0.0624
   56MOL   H13922249   5.953   7.354   2.492  1.4395  0.5682  0.2358
   56MOL   H14022250   5.909   7.009   2.751  2.2104 -1.7354  1.0832
   56MOL   H14122251   6.018   7.109   2.852 -0.7330  0.1216  0.9008
   56MOL   C14222252   6.089   7.076   2.657 -0.1234  0.0407 -0.4420
   56MOL   C14322253   6.198   7.181   2.670  0.5517  0.0814 -0.1128
   56MOL   C14422254   6.266   7.199   2.792 -0.1050 -0.4343  0.0599
   56MOL   C14522255   6.367   7.300   2.802 -0.3922  0.3874  0.3511
   56MOL   C14622256   6.399   7.383   2.690 -0.1109  0.5456 -0.1080
   56MOL   O14722257   6.494   7.483   2.689 -0.6085 -0.7289  0.4262
   56MOL   C14822258   6.591   7.490   2.795  0.1575 -0.0484  0.0336
   56MOL   C14922259   6.326   7.366   2.571  0.2181  0.3249 -0.5569
   56MOL   C15022260   6.229   7.268   2.562 -0.3866  0.5003 -0.5278
   56MOL   C15122261   6.149   6.932   2.671 -0.1989 -0.5212 -0.2672
   56MOL   H15222262   6.053   7.077   2.554  0.2697  0.5773 -0.5768
   56MOL   H15322263   6.234   7.140   2.876 -0.2473  2.3943  2.0663
   56MOL   H15422264   6.397   7.334   2.900 -2.5317  2.6356  0.2942
   56MOL   H15522265   6.554   7.519   2.893  0.7476 -1.7738  0.7883
   56MOL   H15622266   6.657   7.406   2.817  1.6664  0.9921 -0.4183
   56MOL   H15722267   6.663   7.568   2.770  1.2336 -0.2612  2.3858
   56MOL   H15822268   6.346   7.437   2.492  1.4314  0.6087 -0.0080
   56MOL   H15922269   6.183   7.253   2.465 -1.3914  0.6065 -0.0639
   56MOL   H16022270   6.083   6.853   2.705 -1.9931  0.8152 -0.5936
   56MOL   H16122271   6.226   6.943   2.748  1.2061 -0.4584 -1.6455
   56MOL   C16222272   6.218   6.887   2.540  0.2629 -0.0281  1.0638
   56MOL   C16322273   6.132   6.884   2.416  0.1541 -0.0773 -0.7887
   56MOL   C16422274   6.011   6.801   2.416  0.5167  0.6529  0.5968
   56MOL   C16522275   5.932   6.797   2.299  0.0848 -0.5678  0.5827
   56MOL   C16622276   5.959   6.875   2.186 -0.2759 -0.6373 -0.2650
   56MOL   O16722277   5.885   6.875   2.074  0.0410 -0.0731  0.0850
   56MOL   C16822278   5.747   6.896   2.085  0.4416  0.7599  0.0974
   56MOL   C16922279   6.067   6.964   2.193 -0.4425  0.0204 -0.1491
   56MOL   C17022280   6.155   6.971   2.304 -0.0683  0.0297  1.0088
   56MOL   C17122281   6.291   6.749   2.552  0.0318  0.7812 -0.4727
   56MOL   H17222282   6.294   6.960   2.512  0.9891 -1.2064 -0.1219
   56MOL   H17322283   5.987   6.725   2.489  1.7431 -1.5453 -1.2206
   56MOL   H17422284   5.844   6.733   2.304  0.4125 -1.2085 -1.5345
   56MOL   H17522285   5.689   6.881   1.994  0.3590  2.2891 -0.1205
   56MOL   H17622286   5.723   7.000   2.109  0.5917  0.4236  1.8177
   56MOL   H17722287   5.718   6.827   2.164 -0.4810  1.5054  0.4187
   56MOL   H17822288   6.089   7.029   2.110  1.1653 -1.2932 -0.7951
   56MOL   H17922289   6.245   7.031   2.299  0.9034 -1.4230  0.5446
   56MOL   H18022290   6.348   6.729   2.461  0.1652  0.2838 -0.2784
   56MOL   H18122291   6.214   6.672   2.560  1.5198 -0.7718 -0.7943
   56MOL   C18222292   6.403   6.734   2.658 -0.4968  0.2651  0.0571
   56MOL   C18322293   6.515   6.840   2.628  0.0560 -0.3675  0.4170
   56MOL   C18422294   6.621   6.811   2.541 -0.4975 -0.2170  0.4154
   56MOL   C18522295   6.708   6.916   2.506 -0.1120 -0.4551  0.3655
   56MOL   C18622296   6.696   7.041   2.561 -0.4370  0.0230  0.4794
   56MOL   O18722297   6.786   7.135   2.510  0.5968  0.2311  0.3708
   56MOL   C18822298   6.757   7.268   2.544 -0.7784  0.1946  0.4254
   56MOL   C18922299   6.598   7.066   2.658 -0.2045 -0.4561 -0.4091
   56MOL   C19022300   6.506   6.972   2.692 -0.1811  0.3615 -0.9373
   56MOL   C19122301   6.448   6.592   2.664  1.3238  0.2954  0.3785
   56MOL   H19222302   6.356   6.751   2.755 -1.7479 -0.4404 -0.4118
   56MOL   H19322303   6.635   6.712   2.501 -0.6816  0.0197 -0.2447
   56MOL   H19422304   6.788   6.903   2.434  0.1592 -1.9640  0.9299
   56MOL   H19522305   6.672   7.314   2.494  0.6842  0.9666 -1.4369
   56MOL   H19622306   6.841   7.331   2.513 -0.4270 -0.6330 -0.3327
   56MOL   H19722307   6.742   7.281   2.651 -0.5380  0.5734  0.4161
   56MOL   H19822308   6.589   7.159   2.713  1.0953 -0.7727  0.3561
   56MOL   H19922309   6.436   6.987   2.772  0.1257  0.4295 -0.6801
   56MOL   H20022310   6.360   6.527   2.668  0.3457  1.6909  2.4177
   56MOL   H20122311   6.501   6.569   2.571 -2.5365 -0.0866 -1.8385
   56MOL   C20222312   6.542   6.556   2.784  0.1792  0.2391  0.3065
   56MOL   C20322313   6.608   6.417   2.766  0.3875 -0.3878 -0.2414
   56MOL   C20422314   6.522   6.319   2.735  0.2072 -0.1977 -0.5400
   56MOL   C20522315   6.560   6.186   2.734 -0.0896 -0.1939  0.0872
   56MOL   C20622316   6.701   6.154   2.758 -0.2888  0.1184  0.4088
   56MOL   O20722317   6.732   6.025   2.777 -0.2538 -0.1114  0.6384
   56MOL   C20822318   6.862   5.980   2.795 -0.5602 -0.5048  0.5803
   56MOL   C20922319   6.791   6.262   2.782  0.4394 -0.9958 -0.2885
   56MOL   C21022320   6.742   6.395   2.780 -0.2509 -0.4465  0.0535
   56MOL   C21122321   6.474   6.573   2.917  0.1102 -0.3866  0.8484
   56MOL   H21222322   6.620   6.631   2.771 -1.0900  1.6079  0.5907
   56MOL   H21322323   6.417   6.343   2.744  0.0848 -0.2327 -1.7465
   56MOL   H21422324   6.486   6.108   2.727 -1.3580  1.0394 -0.5156
   56MOL   H21522325   6.926   6.033   2.866  0.6573 -1.5547  0.2944
   56MOL   H21622326   6.865   5.872   2.812 -0.0420 -0.9497 -2.1435
   56MOL   H21722327   6.923   6.006   2.709  0.0935 -1.3951  0.7652
   56MOL   H21822328   6.892   6.235   2.808 -0.1013 -0.1314  2.8378
   56MOL   H21922329   6.816   6.472   2.798  1.7664 -2.2141 -0.3775
   56MOL   H22022330   6.382   6.516   2.906 -0.0783 -0.7044  3.6628
   56MOL   H22122331   6.433   6.674   2.915  1.6979  0.2515 -0.3737
   56MOL   C22222332   6.537   6.535   3.056  0.1954 -0.6396 -1.0041
   56MOL   C22322333   6.630   6.648   3.104  0.5311  1.0147 -0.8192
   56MOL   C22422334   6.761   6.646   3.068 -0.5934 -0.3776 -0.3534
   56MOL   C22522335   6.844   6.757   3.092 -0.6202 -0.2520 -0.3846
   56MOL   C22622336   6.794   6.871   3.163  0.8805 -0.4011  0.3453
   56MOL   O22722337   6.861   6.985   3.202  0.1344 -0.3485 -0.4443
   56MOL   C22822338   6.998   7.000   3.166  0.6919  0.0284  0.2192
   56MOL   C22922339   6.654   6.865   3.202 -0.3461 -0.4701 -0.1247
   56MOL   C23022340   6.579   6.761   3.172  0.6780 -0.2951 -0.1948
   56MOL   C23122341   6.438   6.505   3.168  0.0211 -0.3385 -0.5209
   56MOL   H23222342   6.613   6.457   3.043  2.5488  1.0616  1.9566
   56MOL   H23322343   6.797   6.562   3.011 -2.3934 -0.2127 -1.7771
   56MOL   H23422344   6.948   6.757   3.062 -0.3313 -2.9711  0.5079
   56MOL   H23522345   7.065   6.978   3.249 -0.5036 -1.7465  0.7580
   56MOL   H23622346   7.042   6.955   3.076 -1.6253  0.8231 -1.3802
   56MOL   H23722347   6.997   7.106   3.143  0.8221 -0.2095 -0.9367
   56MOL   H23822348   6.619   6.948   3.262  0.4099 -2.5367  3.3412
   56MOL   H23922349   6.478   6.750   3.208  0.3349  0.2364 -0.9915
   56MOL   H24022350   6.501   6.525   3.255 -1.8449  0.5099  0.6646
   56MOL   H24122351   6.362   6.582   3.168 -0.8732 -1.2026 -1.4014
   56MOL   C24222352   6.380   6.364   3.154  0.3220 -0.0868  0.5169
   56MOL   C24322353   6.485   6.256   3.179  0.2394  0.2456 -0.2569
   56MOL   C24422354   6.535   6.233   3.309  0.1476 -0.7893  0.1521
   56MOL   C24522355   6.640   6.144   3.324 -0.2348 -0.3125  0.1971
   56MOL   C24622356   6.687   6.064   3.217 -0.6960 -0.1993  0.4754
   56MOL   O24722357   6.787   5.975   3.243 -0.4809 -0.4815 -0.5470
   56MOL   C24822358   6.852   5.890   3.146 -0.1915 -0.8783  0.5540
   56MOL   C24922359   6.631   6.079   3.090 -0.0935  0.1269  0.5548
   56MOL   C25022360   6.528   6.177   3.073 -0.0731  0.4304 -0.1328
   56MOL   C25122361   6.258   6.338   3.233 -0.6751  0.4473 -0.8962
   56MOL   H25222362   6.351   6.359   3.049  1.4113  0.7922  0.1657
   56MOL   H25322363   6.517   6.289   3.399  0.5109 -0.1880 -0.1456
   56MOL   H25422364   6.684   6.136   3.422  2.6962 -0.7963 -1.0836
   56MOL   H25522365   6.908   5.948   3.073 -1.2203 -0.6442 -0.0468
   56MOL   H25622366   6.920   5.822   3.199  0.4994  0.0488  0.8779
   56MOL   H25722367   6.777   5.831   3.093 -1.9727  0.0436  2.0231
   56MOL   H25822368   6.685   6.025   3.014 -2.9557 -1.3152 -0.5531
   56MOL   H25922369   6.487   6.205   2.976 -0.7855  1.2070  0.3825
   56MOL   H26022370   6.204   6.433   3.236  1.9509  1.9731 -0.3641
   56MOL   H26122371   6.283   6.334   3.339  0.3411 -1.6807 -1.1844
   56MOL   C26222372   6.176   6.221   3.176 -0.0349 -0.1154 -0.5951
   56MOL   C26322373   6.098   6.269   3.049 -0.0088  0.0042 -0.3850
   56MOL   C26422374   6.129   6.212   2.925  0.3185 -0.8277  0.0950
   56MOL   C26522375   6.055   6.239   2.809  0.4226  0.5351 -0.1552
   56MOL   C26622376   5.949   6.337   2.817 -0.4411 -0.2353 -0.3444
   56MOL   O26722377   5.873   6.383   2.713 -0.5832 -0.5283  0.1035
   56MOL   C26822378   5.869   6.287   2.605 -0.0329  0.2442  0.3023
   56MOL   C26922379   5.919   6.394   2.936 -0.2643 -0.4381  0.2268
   56MOL   C27022380   5.994   6.365   3.054 -0.3123 -0.4998  0.4485
   56MOL   C27122381   6.075   6.159   3.274  0.0122  0.0091 -0.5073
   56MOL   H27222382   6.251   6.149   3.143 -1.7702 -2.2017 -0.0861
   56MOL   H27322383   6.200   6.131   2.923 -0.1427 -1.2531  0.6474
   56MOL   H27422384   6.077   6.186   2.717  2.3545  0.0568  0.5702
   56MOL   H27522385   5.783   6.300   2.540  2.7782  1.2850 -3.4051
   56MOL   H27622386   5.853   6.188   2.646 -0.5750  1.2244  2.5421
   56MOL   H27722387   5.962   6.284   2.548 -1.0507  0.5332 -1.4033
   56MOL   H27822388   5.836   6.463   2.934 -0.7072 -1.0191 -3.0035
   56MOL   H27922389   5.972   6.419   3.144  0.5039  1.9759 -0.7883
   56MOL   H28022390   6.076   6.205   3.372 -0.1459  0.5268 -0.7472
   56MOL   H28122391   5.972   6.170   3.238 -0.2163  1.9038  0.6728
   56MOL   C28222392   6.097   6.003   3.300 -0.4536  0.7130 -0.2733
   56MOL   C28322393   5.978   5.922   3.365 -0.2459  0.0479  0.5732
   56MOL   C28422394   5.899   5.972   3.472 -0.4541 -0.3098  0.4000
   56MOL   C28522395   5.801   5.896   3.533 -0.6038  0.1257 -0.2971
   56MOL   C28622396   5.777   5.769   3.489  0.2235 -0.0568  0.0218
   56MOL   O28722397   5.695   5.685   3.564  0.3690  0.9225  0.4832
   56MOL   C28822398   5.699   5.543   3.539 -0.3398 -0.9099  0.4763
   56MOL   C28922399   5.844   5.723   3.376  0.0285  0.2681  0.1679
   56MOL   C29022400   5.950   5.795   3.317  0.6941 -0.5325  0.1913
   56MOL   C29122401   6.220   5.993   3.394 -0.3064  0.4083  0.2546
   56MOL   H29222402   6.128   5.966   3.202 -1.6466  0.2402 -0.4750
   56MOL   H29322403   5.929   6.065   3.519 -0.4683 -0.5463  0.8803
   56MOL   H29422404   5.748   5.946   3.612  0.2890  2.4262 -1.1131
   56MOL   H29522405   5.650   5.489   3.620  0.3483 -0.5252  1.1710
   56MOL   H29622406   5.656   5.521   3.442  2.3245 -0.2490 -0.9213
   56MOL   H29722407   5.800   5.501   3.544 -0.4329 -1.4947 -2.2505
   56MOL   H29822408   5.832   5.623   3.338 -0.8105  0.5825 -0.4027
   56MOL   H29922409   6.010   5.753   3.238  1.2242 -0.1051  0.3634
   56MOL   H30022410   6.300   6.054   3.354 -0.9891  1.2547  0.1743
   56MOL   H30122411   6.198   6.050   3.484 -0.4677  1.4135 -0.4225
   56MOL   C30222412   6.271   5.850   3.416 -0.8722  0.4672  0.8827
   56MOL   C30322413   6.297   5.774   3.280 -0.1024 -0.1319 -0.4433
   56MOL   C30422414   6.233   5.654   3.245 -0.2991 -0.8769 -0.7671
   56MOL   C30522415   6.263   5.581   3.133 -0.1250  0.0849 -0.5319
   56MOL   C30622416   6.361   5.634   3.043  0.7014  0.6319  0.7455
   56MOL   O30722417   6.381   5.567   2.929  0.2154  0.0120 -0.0760
   56MOL   C30822418   6.489   5.600   2.853  0.2088  0.0327  0.7423
   56MOL   C30922419   6.421   5.758   3.073  0.7375  0.2659 -0.1761
   56MOL   C31022420   6.404   5.817   3.200 -0.7099 -0.0418  0.3812
   56MOL   C31122421   6.395   5.858   3.507 -1.1304  0.8019 -0.3757
   56MOL   H31222422   6.204   5.795   3.481  0.8186 -2.8681 -0.0794
   56MOL   H31322423   6.159   5.620   3.317 -2.8448  0.1569 -2.8278
   56MOL   H31422424   6.225   5.480   3.128 -1.3104  0.4261  1.2975
   56MOL   H31522425   6.469   5.698   2.809 -3.3107 -0.7979  0.3164
   56MOL   H31622426   6.500   5.530   2.771  2.2296  0.8476  0.2928
   56MOL   H31722427   6.580   5.602   2.914 -1.0287  1.9335  2.6235
   56MOL   H31822428   6.492   5.805   3.006 -0.0088  1.4526 -0.1323
   56MOL   H31922429   6.456   5.908   3.226  1.4097 -1.5413  1.4800
   56MOL   H32022430   6.368   5.895   3.606 -1.1205  2.2723 -0.8950
   56MOL   H32122431   6.465   5.936   3.476 -2.1839  1.7731 -0.3598
   56MOL   C32222432   6.475   5.729   3.508 -0.3500  0.2230  0.4382
   56MOL   C32322433   6.407   5.623   3.595 -0.4091 -0.2021 -0.0833
   56MOL   C32422434   6.405   5.636   3.733 -0.0681  0.3135  0.5080
   56MOL   C32522435   6.337   5.548   3.817  0.7646 -0.4554  0.1618
   56MOL   C32622436   6.269   5.439   3.756  0.2117 -0.4261 -0.0795
   56MOL   O32722437   6.196   5.336   3.820 -0.7962 -0.0922  0.4676
   56MOL   C32822438   6.171   5.355   3.957  0.2905 -0.6179 -0.3717
   56MOL   C32922439   6.277   5.422   3.618  0.3163  0.0012 -0.2470
   56MOL   C33022440   6.342   5.520   3.535  0.4739 -0.8718  0.0740
   56MOL   C33122441   6.624   5.755   3.551 -0.2810 -0.4218  0.4219
   56MOL   H33222442   6.485   5.685   3.408  0.1530 -0.2012  0.6706
   56MOL   H33322443   6.457   5.715   3.786 -2.9288  1.3971  1.7817
   56MOL   H33422444   6.332   5.570   3.923 -0.5252  0.7447 -0.1465
   56MOL   H33522445   6.133   5.262   3.999  0.3132 -0.7143 -0.5658
   56MOL   H33622446   6.085   5.421   3.974  0.4593 -0.1694 -1.2344
   56MOL   H33722447   6.258   5.371   4.021 -1.0954 -0.6330  1.5652
   56MOL   H33822448   6.222   5.336   3.582  0.2050  0.4002 -1.0212
   56MOL   H33922449   6.332   5.521   3.427  0.4441  1.6744  0.0827
   56MOL   H34022450   6.661   5.836   3.487  0.4442  1.2783  2.9230
   56MOL   H34122451   6.635   5.801   3.649  0.3548  0.3571 -0.0090
   56MOL   C34222452   6.715   5.638   3.531  0.6579 -0.2423  0.2197
   56MOL   C34322453   6.863   5.679   3.563 -0.0267  0.2722 -0.3390
   56MOL   C34422454   6.919   5.787   3.499  0.0512 -0.5364 -0.7905
   56MOL   C34522455   7.056   5.836   3.519 -0.0418 -0.4195 -0.3033
   56MOL   C34622456   7.138   5.765   3.606 -0.0806  0.8855 -0.3506
   56MOL   O34722457   7.268   5.792   3.635  0.1878 -0.2477  0.1221
   56MOL   C34822458   7.313   5.924   3.614  0.3636 -0.6414 -0.2772
   56MOL   C34922459   7.085   5.653   3.672  0.2960 -0.5634  0.0118
   56MOL   C35022460   6.953   5.606   3.644  0.4487 -0.7216  0.1068
   56MOL   C35122461   6.702   5.579   3.389  0.4047 -0.2027 -0.1018
   56MOL   H35222462   6.698   5.555   3.599 -0.3059 -0.0081  0.2673
   56MOL   H35322463   6.855   5.840   3.430 -0.5642  1.5384  1.3040
   56MOL   H35422464   7.090   5.924   3.467 -1.5186  0.2250 -0.2005
   56MOL   H35522465   7.333   5.938   3.507  0.6134  0.1381 -0.1284
   56MOL   H35622466   7.238   5.999   3.639 -0.1681 -1.2022 -0.1827
   56MOL   H35722467   7.406   5.943   3.668  1.3499 -0.0702 -2.1238
   56MOL   H35822468   7.151   5.599   3.739  0.6497  1.1068  1.0503
   56MOL   H35922469   6.928   5.515   3.697 -1.9478 -0.0224  0.2303
   56MOL   H36022470   6.609   5.524   3.378  1.0691 -1.5819  1.0444
   56MOL   H36122471   6.699   5.659   3.315  0.1106  1.4105  1.6118
   56MOL   C36222472   6.813   5.479   3.354  0.1251 -0.3637  0.8901
   56MOL   C36322473   6.791   5.446   3.202 -0.1619 -0.6232 -0.3652
   56MOL   C36422474   6.900   5.456   3.106  0.3485  0.2541 -0.0003
   56MOL   C36522475   6.879   5.404   2.976 -0.4282  0.2354 -0.9042
   56MOL   C36622476   6.760   5.348   2.942  0.1048 -0.4468 -0.5455
   56MOL   O36722477   6.729   5.304   2.816 -0.2254  0.4738 -0.4507
   56MOL   C36822478   6.820   5.322   2.713  0.0555  0.1445 -0.3279
   56MOL   C36922479   6.650   5.342   3.038 -0.4878 -0.2154 -0.2386
   56MOL   C37022480   6.669   5.391   3.164  0.5242 -0.1933  0.1436
   56MOL   C37122481   6.810   5.343   3.434  0.1903  0.4995 -0.3507
   56MOL   H37222482   6.909   5.527   3.375 -0.0399 -0.8548  2.8397
   56MOL   H37322483   6.995   5.497   3.137  1.5769  0.1991 -3.4962
   56MOL   H37422484   6.968   5.412   2.915  1.5672 -2.1637  1.5634
   56MOL   H37522485   6.919   5.288   2.744  0.4159  0.5953 -0.9712
   56MOL   H37622486   6.777   5.254   2.640  1.9675 -1.3156 -0.1481
   56MOL   H37722487   6.816   5.423   2.674 -0.5865 -0.4008 -1.6733
   56MOL   H37822488   6.552   5.306   3.011 -0.2270 -0.1414 -1.3074
   56MOL   H37922489   6.586   5.390   3.233  0.4363 -0.1069  0.0387
   56MOL   H38022490   6.803   5.346   3.543  0.3747 -0.6149 -0.3127
   56MOL   H38122491   6.717   5.294   3.405  0.3001  0.1201 -0.0629
   56MOL   C38222492   6.931   5.247   3.408  0.5006  0.4487 -0.1236
   56MOL   C38322493   6.884   5.102   3.423 -0.2314 -0.2875 -0.2316
   56MOL   C38422494   6.835   5.066   3.552  0.1542  0.2816 -0.1526
   56MOL   C38522495   6.796   4.924   3.572 -0.3845  0.1342  0.6796
   56MOL   C38622496   6.781   4.846   3.458  0.9210  0.4882  0.4829
   56MOL   O38722497   6.727   4.724   3.482 -0.7859  0.4758  0.2045
   56MOL   C38822498   6.620   4.702   3.398  0.1442 -0.1090  0.1589
   56MOL   C38922499   6.817   4.890   3.329 -0.4826  0.3666  0.4272
   56MOL   C39022500   6.881   5.015   3.316 -0.1198  0.3271 -0.1167
   56MOL   C39122501   7.054   5.271   3.507 -0.0053  0.3112  0.0295
   56MOL   H39222502   6.962   5.272   3.307  1.0483 -1.7319 -0.5090
   56MOL   H39322503   6.828   5.137   3.633  1.1222 -0.6306  0.7586
   56MOL   H39422504   6.767   4.882   3.667 -0.9395 -2.5599 -0.6412
   56MOL   H39522505   6.533   4.753   3.439  0.7850  0.3550  0.9528
   56MOL   H39622506   6.604   4.595   3.410  1.2515 -0.1779  1.1041
   56MOL   H39722507   6.634   4.726   3.293  1.0792 -0.7070  0.1422
   56MOL   H39822508   6.812   4.824   3.244 -1.6619 -1.6365  2.0388
   56MOL   H39922509   6.920   5.049   3.221 -0.0350  0.0782 -0.1710
   56MOL   H40022510   7.037   5.245   3.612  0.1764  0.1475  0.0180
   56MOL   H40122511   7.084   5.374   3.485  0.0444  0.7774  2.1040
   56MOL   H40222512   7.132   5.203   3.473  1.4407  0.9608  1.9090
   57MOL     C122513   4.302   0.388   4.224  0.4004  0.7675  0.3251
   57MOL     C222514   4.163   0.435   4.184 -0.4848 -1.2550  0.3051
   57MOL     C322515   4.043   0.363   4.216  0.5791 -0.0251 -0.3908
   57MOL     C422516   3.917   0.425   4.191 -0.1371  0.3626  0.2153
   57MOL     C522517   3.914   0.545   4.118 -0.3334 -0.6412 -0.1160
   57MOL     O622518   3.797   0.599   4.076 -0.1058  0.1012  0.0060
   57MOL     C722519   3.675   0.524   4.095 -0.6499 -0.2781 -0.5494
   57MOL     C822520   4.030   0.615   4.086  0.4673  0.1945 -0.4291
   57MOL     C922521   4.158   0.560   4.119  0.3565 -0.6313 -0.1868
   57MOL    C1022522   4.386   0.352   4.104  0.5854  0.3460  0.4860
   57MOL    H1122523   4.296   0.304   4.293 -2.0033 -1.4753 -2.4571
   57MOL    H1222524   4.043   0.269   4.269 -1.3660  0.4448  0.4698
   57MOL    H1322525   3.826   0.368   4.208  1.1318 -2.3865 -1.7596
   57MOL    H1422526   3.661   0.503   4.201  1.0655  1.4760  0.0652
   57MOL    H1522527   3.595   0.594   4.070  1.0201  2.1401  0.6904
   57MOL    H1622528   3.676   0.433   4.036  3.3617  0.2869 -1.4654
   57MOL    H1722529   4.025   0.714   4.042  2.7411  1.0528  1.1643
   57MOL    H1822530   4.246   0.620   4.101  0.5896 -0.6986  0.7012
   57MOL    H1922531   4.408   0.446   4.054  0.5824 -0.0658 -0.2992
   57MOL    H2022532   4.483   0.319   4.142  0.0840 -1.5745  0.1487
   57MOL    H2122533   4.343   0.467   4.286 -0.0347  1.9102 -0.8150
   57MOL    C2222534   4.322   0.248   4.010 -1.0806 -0.7487  0.1110
   57MOL    C2322535   4.410   0.240   3.888  0.1097 -0.8847  0.2830
   57MOL    C2422536   4.534   0.184   3.891  0.3855  0.2329 -1.0823
   57MOL    C2522537   4.611   0.164   3.777  0.6206  0.2059 -0.1360
   57MOL    C2622538   4.564   0.214   3.652  0.6667 -0.0243 -0.5347
   57MOL    O2722539   4.629   0.199   3.531  0.3471 -0.1113 -0.1939
   57MOL    C2822540   4.734   0.102   3.529  0.0952 -0.2144 -0.5583
   57MOL    C2922541   4.428   0.270   3.652 -0.0200  0.5859  0.5853
   57MOL    C3022542   4.353   0.279   3.769  0.0184 -0.3769  0.1421
   57MOL    C3122543   4.280   0.114   4.070  0.2527  0.4560  0.2639
   57MOL    H3222544   4.230   0.301   3.983 -1.2027 -0.5395  0.9262
   57MOL    H3322545   4.568   0.160   3.991  2.0671  1.1381 -1.4175
   57MOL    H3422546   4.707   0.115   3.790  0.7677  0.7913  1.0649
   57MOL    H3522547   4.702   8.039   3.538 -1.2045  0.2984  0.7028
   57MOL    H3622548   4.807   0.115   3.609 -0.6497 -0.0950  0.1015
   57MOL    H3722549   4.768   0.124   3.427 -2.9420  0.9120 -1.3694
   57MOL    H3822550   4.385   0.304   3.559  0.6422  0.0457  0.0834
   57MOL    H3922551   4.256   0.324   3.752 -0.8674 -2.0956  0.4999
   57MOL    H4022552   4.356   0.043   4.102  0.5910  0.4717 -0.4833
   57MOL    H4122553   4.224   0.135   4.161 -1.8151  1.1991 -1.1178
   57MOL    C4222554   4.168   0.033   3.990  0.0010  0.1091 -0.0213
   57MOL    C4322555   4.109   7.983   4.086  0.2880  0.2120  0.2658
   57MOL    C4422556   4.199   7.891   4.157  0.4177  0.5753 -0.4853
   57MOL    C4522557   4.138   7.800   4.253  0.3530  0.2395 -0.1521
   57MOL    C4622558   3.996   7.804   4.278 -0.1959 -0.1550  0.3176
   57MOL    O4722559   3.956   7.719   4.377 -0.5276 -0.6581 -0.3003
   57MOL    C4822560   3.825   7.711   4.409  0.1302  0.3701  0.1086
   57MOL    C4922561   3.916   7.892   4.208 -0.0315  0.5941  0.9206
   57MOL    C5022562   3.968   7.982   4.112  0.1689  0.5395 -0.2051
   57MOL    C5122563   4.228   8.000   3.873  0.3564  0.1005 -0.2555
   57MOL    H5222564   4.097   0.098   3.939  0.1837 -1.0033 -1.7517
   57MOL    H5322565   4.304   7.878   4.140  0.4560 -1.1058  0.8543
   57MOL    H5422566   4.204   7.736   4.310 -1.1702  1.7031  3.4454
   57MOL    H5522567   3.811   7.811   4.450  0.5086  0.0907  0.9405
   57MOL    H5622568   3.770   7.704   4.316  0.5935 -1.1155 -0.0651
   57MOL    H5722569   3.808   7.640   4.489  2.2945  0.4832  0.7168
   57MOL    H5822570   3.809   7.886   4.225 -0.4901 -1.9641 -2.4214
   57MOL    H5922571   3.911   0.017   4.059  1.2647  0.1856 -1.9090
   57MOL    H6022572   4.318   7.947   3.906  1.0148  0.5705 -1.2635
   57MOL    H6122573   4.265   0.032   3.799  0.3658  0.2942 -0.0605
   57MOL    C6222574   4.144   7.893   3.796 -0.0447 -0.4030  0.1444
   57MOL    C6322575   4.218   7.801   3.699 -0.4385  0.0157 -0.7808
   57MOL    C6422576   4.220   7.659   3.715  0.3673  0.3172  0.1957
   57MOL    C6522577   4.293   7.582   3.622 -0.3741  0.2130  0.3374
   57MOL    C6622578   4.372   7.641   3.524  0.5716 -0.1011  0.5502
   57MOL    O6722579   4.439   7.556   3.442  0.1790 -0.0926 -1.3145
   57MOL    C6822580   4.470   7.605   3.322  0.0129  0.0981 -0.5233
   57MOL    C6922581   4.380   7.783   3.516 -0.3310  0.3350 -0.1479
   57MOL    C7022582   4.300   7.864   3.603 -0.5846 -0.3724  0.0206
   57MOL    C7122583   4.013   7.955   3.735 -0.4201 -0.3212  0.8673
   57MOL    H7222584   4.101   7.832   3.876 -1.4868  0.8102  0.3363
   57MOL    H7322585   4.166   7.611   3.795  0.0467  1.5167  0.7149
   57MOL    H7422586   4.294   7.474   3.625  1.4759  0.2416  3.3009
   57MOL    H7522587   4.382   7.625   3.262  0.7655  1.9631 -1.0180
   57MOL    H7622588   4.514   7.517   3.276 -3.0575 -2.1130  0.5510
   57MOL    H7722589   4.542   7.686   3.310  2.6445 -1.8212  1.4957
   57MOL    H7822590   4.438   7.842   3.447 -0.3187  0.3195 -0.1503
   57MOL    H7922591   4.298   7.971   3.606  1.4655 -0.3309  0.6307
   57MOL    H8022592   3.969   8.013   3.816  0.8842 -0.9441  2.0507
   57MOL    H8122593   4.053   8.029   3.665  0.7148  0.2153  2.0393
   57MOL    C8222594   3.917   7.861   3.672 -0.2470  0.5578 -0.5386
   57MOL    C8322595   3.848   7.756   3.763  0.7391  0.0448 -0.4505
   57MOL    C8422596   3.860   7.617   3.731  0.6547  0.8010  0.2899
   57MOL    C8522597   3.806   7.515   3.813 -0.4959 -0.4906  0.2275
   57MOL    C8622598   3.739   7.552   3.929  0.3586 -0.8078  0.5702
   57MOL    O8722599   3.681   7.458   4.014  0.2257  0.1521 -0.0921
   57MOL    C8822600   3.646   7.330   3.954 -0.6053  0.5159  0.0327
   57MOL    C8922601   3.725   7.687   3.968  0.0451  0.4163 -0.0013
   57MOL    C9022602   3.778   7.788   3.883  0.3352 -0.0025  0.0874
   57MOL    C9122603   3.810   7.929   3.578  0.2285 -0.0879  0.2045
   57MOL    H9222604   3.981   7.796   3.613  1.9346  1.3932  0.8714
   57MOL    H9322605   3.906   7.597   3.635 -1.1854  3.0138 -1.1252
   57MOL    H9422606   3.811   7.414   3.776  0.8721  0.1147 -1.3098
   57MOL    H9522607   3.594   7.351   3.861  0.9864  2.5562 -0.4335
   57MOL    H9622608   3.567   7.288   4.015  0.4025 -1.5193 -0.0177
   57MOL    H9722609   3.733   7.267   3.936 -1.5471 -0.5159 -0.9211
   57MOL    H9822610   3.681   7.702   4.065  0.9931 -2.1048  0.8542
   57MOL    H9922611   3.771   7.894   3.907 -0.7855  0.0207 -0.3350
   57MOL   H10022612   3.764   7.845   3.526  1.9582 -0.1492 -1.2578
   57MOL   H10122613   3.742   7.985   3.643 -0.6111 -1.7890  0.8200
   57MOL   C10222614   3.857   8.039   3.482 -0.4119  0.2571 -0.2834
   57MOL   C10322615   3.960   7.985   3.383 -0.8021 -0.3636  0.8097
   57MOL   C10422616   4.081   0.016   3.355 -0.4928  0.0114  0.3460
   57MOL   C10522617   4.179   7.992   3.280 -0.2747 -0.1120 -0.2975
   57MOL   C10622618   4.165   7.866   3.222 -0.1892  0.9636 -0.9447
   57MOL   O10722619   4.251   7.798   3.142 -0.1515 -0.6857 -0.5778
   57MOL   C10822620   4.374   7.865   3.108 -0.3084 -0.4561  0.0435
   57MOL   C10922621   4.041   7.806   3.238  0.4889 -0.2207  0.0635
   57MOL   C11022622   3.940   7.862   3.320 -1.0039  0.3077 -0.7970
   57MOL   C11122623   3.732   0.060   3.400 -0.1684 -0.7054  0.3074
   57MOL   H11222624   3.900   0.077   3.546  2.1994 -0.1649 -1.4634
   57MOL   H11322625   4.106   0.112   3.398  2.8632 -0.5066 -0.2899
   57MOL   H11422626   4.272   0.004   3.258 -0.4252 -0.1064 -0.9368
   57MOL   H11522627   4.433   7.879   3.198  2.1338 -0.8257 -1.4657
   57MOL   H11622628   4.428   7.796   3.043  0.7367 -1.2183  1.7040
   57MOL   H11722629   4.362   7.954   3.046  0.8708  1.0305  1.9157
   57MOL   H11822630   4.029   7.711   3.190  0.9445 -1.1112  1.6708
   57MOL   H11922631   3.857   7.796   3.343 -0.2399  0.7671  3.7098
   57MOL   H12022632   3.687   8.021   3.339 -0.7671  1.4625 -2.1541
   57MOL   H12122633   3.650   0.081   3.468  1.0765  0.7214  1.3882
   57MOL   C12222634   3.769   0.187   3.315  0.0433  0.7173 -0.0114
   57MOL   C12322635   3.851   0.293   3.390  0.6525  0.1206 -0.8235
   57MOL   C12422636   3.817   0.328   3.523 -0.2950  0.4718  0.4802
   57MOL   C12522637   3.891   0.427   3.587  0.0154 -0.0948  0.4707
   57MOL   C12622638   3.985   0.506   3.510  0.0042 -0.9125 -0.0668
   57MOL   O12722639   4.051   0.620   3.558 -0.0629 -0.4081 -0.0723
   57MOL   C12822640   4.025   0.667   3.693  0.1597 -0.8988  0.2012
   57MOL   C12922641   4.020   0.469   3.381  0.0556  0.2720  0.5029
   57MOL   C13022642   3.951   0.361   3.324  0.2305  0.2016 -0.3473
   57MOL   C13122643   3.650   0.241   3.228  0.8381 -0.0199  0.2292
   57MOL   H13222644   3.828   0.153   3.230  0.1639 -2.1273  1.1689
   57MOL   H13322645   3.733   0.275   3.564 -0.9715  0.6473 -0.6657
   57MOL   H13422646   3.861   0.452   3.687  2.7543 -0.9685  1.5367
   57MOL   H13522647   4.068   0.766   3.700 -2.5675  0.1546  3.1373
   57MOL   H13622648   3.920   0.678   3.719 -0.0801 -0.7695 -0.8173
   57MOL   H13722649   4.084   0.612   3.767  0.0745 -0.4432  0.6048
   57MOL   H13822650   4.094   0.523   3.323  0.4245 -0.1199  0.5997
   57MOL   H13922651   3.967   0.329   3.222 -0.3663  0.6223 -0.5740
   57MOL   H14022652   3.688   0.309   3.151  0.6807  1.3393  1.3325
   57MOL   H14122653   3.584   0.308   3.284  0.4433 -0.2872  0.0913
   57MOL   C14222654   3.554   0.155   3.141  0.2194 -0.2594  0.3519
   57MOL   C14322655   3.430   0.238   3.102 -0.1189 -0.1897  0.1379
   57MOL   C14422656   3.437   0.354   3.028 -0.4725  0.2284  0.4854
   57MOL   C14522657   3.322   0.431   3.017  0.3735  0.9258  0.3684
   57MOL   C14622658   3.195   0.388   3.049 -0.2717 -0.5395  0.0876
   57MOL   O14722659   3.088   0.471   3.016  0.2417 -0.3180 -0.1466
   57MOL   C14822660   2.954   0.416   3.039  0.3752 -0.5608  0.3128
   57MOL   C14922661   3.184   0.263   3.119  0.2955  0.5387 -0.5779
   57MOL   C15022662   3.302   0.188   3.149 -0.7791 -0.4315 -0.5946
   57MOL   C15122663   3.631   0.093   3.020  0.3850  0.1998  0.2975
   57MOL   H15222664   3.518   0.081   3.211 -1.9537  2.0586  1.7640
   57MOL   H15322665   3.530   0.397   2.992 -1.1880 -2.0276 -4.4415
   57MOL   H15422666   3.326   0.524   2.962 -0.9608  1.0560  0.4780
   57MOL   H15522667   2.934   0.383   3.141  2.1380 -2.3174  0.1161
   57MOL   H15622668   2.871   0.482   3.011 -0.4400 -1.4486  0.6154
   57MOL   H15722669   2.936   0.324   2.984  1.1858 -1.1175  0.9861
   57MOL   H15822670   3.086   0.230   3.150  1.5622 -1.6018  1.2679
   57MOL   H15922671   3.286   0.096   3.205  0.3417 -1.4757 -1.9562
   57MOL   H16022672   3.720   0.039   3.052  0.2915 -0.9366 -1.2898
   57MOL   H16122673   3.665   0.181   2.966 -3.0686  2.1239  1.1338
   57MOL   C16222674   3.543   0.002   2.923  0.3147 -0.1574 -0.1594
   57MOL   C16322675   3.498   7.912   2.991 -0.6491  0.3474 -0.4154
   57MOL   C16422676   3.591   7.815   3.039 -0.0450  0.0268 -0.5526
   57MOL   C16522677   3.543   7.698   3.103 -0.1012 -0.0403 -0.4225
   57MOL   C16622678   3.405   7.686   3.141 -0.6325 -0.1013 -0.1484
   57MOL   O16722679   3.380   7.582   3.222  0.0942  0.0467 -0.0182
   57MOL   C16822680   3.258   7.578   3.295 -0.4969 -0.0281  0.0543
   57MOL   C16922681   3.319   7.787   3.104  0.3998  0.5787  0.7257
   57MOL   C17022682   3.361   7.892   3.016  0.6759  0.1791  0.4565
   57MOL   C17122683   3.622   8.005   2.791 -0.3488  0.4468  0.3632
   57MOL   H17222684   3.460   0.066   2.894 -0.9545 -0.9923  1.5656
   57MOL   H17322685   3.697   7.820   3.019 -0.2817 -2.2176 -2.5561
   57MOL   H17422686   3.619   7.622   3.113  1.1413  1.5805  2.9368
   57MOL   H17522687   3.169   7.578   3.232 -1.8465  0.1683  1.9111
   57MOL   H17622688   3.250   7.662   3.364 -0.4609 -0.9185  1.1547
   57MOL   H17722689   3.244   7.485   3.350 -0.3007  1.2373  2.2949
   57MOL   H17822690   3.213   7.767   3.114  0.5916 -2.1608 -1.7189
   57MOL   H17922691   3.285   7.960   2.981 -1.0020 -1.2354  1.3267
   57MOL   H18022692   3.554   7.949   2.727 -0.0234  1.3238 -0.7800
   57MOL   H18122693   3.699   7.930   2.811 -0.7075 -0.3111 -1.0016
   57MOL   C18222694   3.683   0.077   2.712 -0.1573  0.5295 -0.3703
   57MOL   C18322695   3.590   0.195   2.684  0.0956 -0.2628  0.4819
   57MOL   C18422696   3.469   0.170   2.614  0.0882 -0.6206 -1.0616
   57MOL   C18522697   3.381   0.278   2.584 -0.8448 -0.4660 -0.9973
   57MOL   C18622698   3.418   0.412   2.620 -0.7321  0.1712 -0.6672
   57MOL   O18722699   3.343   0.512   2.566 -0.0364 -0.4751 -0.2254
   57MOL   C18822700   3.396   0.646   2.557 -0.4770  0.7567  0.1831
   57MOL   C18922701   3.544   0.432   2.682  0.9650  0.3627  0.8413
   57MOL   C19022702   3.630   0.326   2.712 -0.3856 -0.2094  0.7824
   57MOL   C19122703   3.731   0.018   2.576  0.3496 -0.6545  0.9877
   57MOL   H19222704   3.774   0.109   2.764 -0.3095 -2.0982  1.6328
   57MOL   H19322705   3.439   0.071   2.584  1.0098 -1.2284 -0.0064
   57MOL   H19422706   3.294   0.256   2.524 -0.9200  0.6620 -1.3229
   57MOL   H19522707   3.426   0.682   2.655  2.3922 -2.5254  0.6031
   57MOL   H19622708   3.324   0.711   2.507 -1.9190 -0.6147  0.4069
   57MOL   H19722709   3.476   0.639   2.483 -1.4339 -0.5994 -0.7689
   57MOL   H19822710   3.572   0.536   2.692 -0.7624  0.9749 -0.4964
   57MOL   H19922711   3.732   0.346   2.740 -0.1980  0.5020 -0.3841
   57MOL   H20022712   3.792   7.975   2.613  1.5809 -0.1609  0.0774
   57MOL   H20122713   3.642   8.023   2.523  0.1449  0.1515  0.7975
   57MOL   C20222714   3.816   0.103   2.475  0.7022 -0.1648  0.1578
   57MOL   C20322715   3.806   0.046   2.334 -0.0943 -0.3280  0.1552
   57MOL   C20422716   3.707   0.100   2.249  0.0075 -0.2224 -0.4141
   57MOL   C20522717   3.686   0.051   2.120  0.3291 -0.2396 -0.5425
   57MOL   C20622718   3.782   7.999   2.063  0.1112 -0.4443 -0.1496
   57MOL   O20722719   3.766   7.968   1.931  0.0056  0.1999  0.7554
   57MOL   C20822720   3.884   7.933   1.850 -0.1616 -0.3874  0.0724
   57MOL   C20922721   3.885   7.943   2.144 -0.2378 -0.6745 -0.4190
   57MOL   C21022722   3.895   7.990   2.278 -1.1129 -0.1117 -0.2284
   57MOL   C21122723   3.964   0.123   2.517 -0.6806 -0.3407  0.6114
   57MOL   H21222724   3.784   0.207   2.473 -1.4540 -0.7895  0.7895
   57MOL   H21322725   3.644   0.174   2.295  0.9054 -0.0533  0.5666
   57MOL   H21422726   3.618   0.103   2.054  1.5863  1.5388 -0.4561
   57MOL   H21522727   3.925   7.842   1.893 -1.4059 -0.7012  0.6099
   57MOL   H21622728   3.859   7.896   1.750  0.7063  0.0890 -0.3350
   57MOL   H21722729   3.964   8.007   1.844 -1.2302  0.6941 -1.0764
   57MOL   H21822730   3.953   7.867   2.110  0.5792 -1.0771  1.9959
   57MOL   H21922731   3.967   7.938   2.339 -0.5319  0.4215 -0.4622
   57MOL   H22022732   4.007   0.025   2.498  0.1160  0.0893  0.1578
   57MOL   H22122733   3.969   0.128   2.625 -1.6142 -1.7591  0.7289
   57MOL   C22222734   4.029   0.239   2.443 -0.1176 -0.8078  0.0913
   57MOL   C22322735   3.977   0.369   2.496 -0.0241  0.1690 -0.1485
   57MOL   C22422736   3.916   0.463   2.409  0.4056 -0.2809  0.3324
   57MOL   C22522737   3.854   0.580   2.455 -0.6968  0.1564  0.6111
   57MOL   C22622738   3.868   0.613   2.590 -0.0419  0.6926 -0.3040
   57MOL   O22722739   3.804   0.712   2.648  0.5891 -0.2776  0.1733
   57MOL   C22822740   3.756   0.825   2.576 -0.2694 -0.3600  0.4498
   57MOL   C22922741   3.942   0.522   2.673 -0.0903  0.2239  0.0882
   57MOL   C23022742   3.997   0.402   2.629  0.2703 -0.0420  0.0333
   57MOL   C23122743   4.187   0.228   2.448 -0.2316 -0.0400 -0.0755
   57MOL   H23222744   3.993   0.239   2.340 -0.4081  1.1087  0.1709
   57MOL   H23322745   3.913   0.445   2.303 -1.4988  1.2875  0.0820
   57MOL   H23422746   3.800   0.638   2.381  0.5549 -0.3779 -0.7536
   57MOL   H23522747   3.659   0.814   2.528 -0.4204  0.6571  0.5165
   57MOL   H23622748   3.737   0.901   2.652  1.1219  1.8949 -1.3835
   57MOL   H23722749   3.833   0.858   2.507 -1.4153 -0.7343 -1.0428
   57MOL   H23822750   3.973   0.565   2.767 -1.6417  2.6615 -0.4692
   57MOL   H23922751   4.061   0.344   2.693  0.0353 -1.3834 -0.9100
   57MOL   H24022752   4.227   0.303   2.516  1.7805  1.6422 -3.0042
   57MOL   H24122753   4.217   0.131   2.488  0.1591  0.6334  1.2669
   57MOL   C24222754   4.249   0.247   2.312  0.1729 -0.1372 -0.3320
   57MOL   C24322755   4.393   0.307   2.314  0.4951 -0.0170 -0.1456
   57MOL   C24422756   4.408   0.447   2.313 -0.3885  0.4125 -0.5924
   57MOL   C24522757   4.539   0.497   2.303  0.5932 -0.7569 -0.0684
   57MOL   C24622758   4.651   0.414   2.316 -0.7634  0.4764 -0.2565
   57MOL   O24722759   4.784   0.460   2.321 -0.0971 -0.0362 -0.2732
   57MOL   C24822760   4.808   0.598   2.351 -0.5683 -0.2574 -0.1566
   57MOL   C24922761   4.629   0.272   2.322 -0.4276  0.4378 -0.4851
   57MOL   C25022762   4.501   0.221   2.318 -0.1358  0.2254  0.1713
   57MOL   C25122763   4.231   0.122   2.211  0.0017 -0.3655  0.4417
   57MOL   H25222764   4.194   0.327   2.264 -0.1674  0.2245  0.6629
   57MOL   H25322765   4.331   0.522   2.311 -0.2530  0.6163  1.1272
   57MOL   H25422766   4.550   0.603   2.284  0.3233 -0.9590 -1.3332
   57MOL   H25522767   4.779   0.664   2.269 -0.8042  0.1927  0.2914
   57MOL   H25622768   4.741   0.628   2.431 -3.4092  2.3130 -3.3142
   57MOL   H25722769   4.912   0.609   2.380 -1.2284  0.8356  1.8196
   57MOL   H25822770   4.714   0.206   2.321 -1.0601 -0.3714 -1.2044
   57MOL   H25922771   4.489   0.115   2.302 -1.4689  0.3359  0.3775
   57MOL   H26022772   4.125   0.098   2.203  0.0012 -0.2184  0.0003
   57MOL   H26122773   4.280   0.038   2.258 -0.1622 -0.1420  1.0157
   57MOL   C26222774   4.287   0.128   2.072 -0.6333  0.1451 -0.0655
   57MOL   C26322775   4.242   0.255   2.004 -0.0199 -0.1183 -0.2924
   57MOL   C26422776   4.333   0.353   1.953 -0.0881 -0.4188 -0.5855
   57MOL   C26522777   4.286   0.469   1.894  0.5829  0.2692 -0.1586
   57MOL   C26622778   4.152   0.489   1.872  0.2691  0.1432 -0.1853
   57MOL   O26722779   4.096   0.602   1.817  0.6120 -0.2516  0.3927
   57MOL   C26822780   4.185   0.679   1.736  0.0435  0.0959 -0.4119
   57MOL   C26922781   4.062   0.386   1.912 -0.0708 -0.7795  0.3416
   57MOL   C27022782   4.105   0.269   1.976 -0.8874 -0.4352  0.6790
   57MOL   C27122783   4.250   8.040   1.997  0.5013  0.4180  0.3742
   57MOL   H27222784   4.396   0.132   2.076 -0.5276 -0.1886 -2.1457
   57MOL   H27322785   4.439   0.345   1.968  0.0907  0.4298 -1.3450
   57MOL   H27422786   4.352   0.550   1.866  1.1339  0.5114  1.7564
   57MOL   H27522787   4.230   0.610   1.664 -0.2973  0.6980 -1.2212
   57MOL   H27622788   4.261   0.740   1.786 -1.0973  0.8179  0.4495
   57MOL   H27722789   4.125   0.746   1.675  1.1952  0.9839 -0.5912
   57MOL   H27822790   3.957   0.398   1.892 -0.4981 -0.0338  2.8625
   57MOL   H27922791   4.032   0.193   1.995  0.1359 -1.5574  0.1645
   57MOL   H28022792   4.228   7.958   2.066 -2.3114  1.3738  0.6774
   57MOL   H28122793   4.164   0.027   1.936  1.3188  0.8580 -0.5863
   57MOL   C28222794   4.360   7.994   1.897  0.2558 -1.0458  0.5929
   57MOL   C28322795   4.304   7.895   1.796  0.5037  0.6088 -0.2440
   57MOL   C28422796   4.237   7.786   1.852  0.5126  0.5470  0.1094
   57MOL   C28522797   4.159   7.697   1.772 -0.0029 -0.6015 -0.3124
   57MOL   C28622798   4.161   7.712   1.632 -0.1577  0.6393 -0.4472
   57MOL   O28722799   4.081   7.623   1.564 -0.2099 -0.0296 -0.0598
   57MOL   C28822800   4.103   7.609   1.423 -0.0736 -0.0428 -0.0856
   57MOL   C28922801   4.247   7.811   1.573  1.4461  0.1451  0.5283
   57MOL   C29022802   4.311   7.904   1.655  0.1866 -0.1917  0.4532
   57MOL   C29122803   4.475   7.929   1.982  0.6244  0.1795  0.0430
   57MOL   H29222804   4.390   0.038   1.834 -2.0538 -1.3334 -0.9676
   57MOL   H29322805   4.233   7.767   1.958  1.8059  1.3762  0.3143
   57MOL   H29422806   4.119   7.607   1.817  0.3834 -0.7120 -0.1897
   57MOL   H29522807   4.002   7.583   1.393  1.2675 -3.6969 -1.6365
   57MOL   H29622808   4.123   7.704   1.372 -0.2826  0.8162  1.4030
   57MOL   H29722809   4.177   7.532   1.402  0.1803  0.6710 -1.9688
   57MOL   H29822810   4.261   7.823   1.466  0.7539 -1.4145  0.2531
   57MOL   H29922811   4.390   7.969   1.620 -0.0289  0.8417  1.8392
   57MOL   H30022812   4.474   7.976   2.080  0.1390 -0.3274  0.2830
   57MOL   H30122813   4.451   7.824   2.002  0.5737 -0.3030 -2.2852
   57MOL   C30222814   4.618   7.943   1.945 -0.0171  0.5089 -0.2608
   57MOL   C30322815   4.658   7.860   1.820  0.0721  0.4542 -0.2170
   57MOL   C30422816   4.664   7.920   1.690 -0.2378 -0.6765  0.3798
   57MOL   C30522817   4.708   7.840   1.584 -0.6589 -0.2963 -0.3382
   57MOL   C30622818   4.743   7.706   1.606  0.5731  0.1029  0.5664
   57MOL   O30722819   4.785   7.626   1.500  0.6077 -0.0160  0.3468
   57MOL   C30822820   4.872   7.697   1.406  0.5856  0.3084  0.3378
   57MOL   C30922821   4.719   7.641   1.728  0.7943  0.5159  0.9049
   57MOL   C31022822   4.689   7.724   1.842 -0.2593 -1.0757 -0.4832
   57MOL   C31122823   4.669   0.048   1.942  0.0426 -0.2556 -0.1548
   57MOL   H31222824   4.664   7.899   2.033  2.5625 -0.2043 -1.9140
   57MOL   H31322825   4.660   8.026   1.669 -2.4625 -0.8646 -0.2778
   57MOL   H31422826   4.710   7.888   1.487  2.0153  1.6038  0.5915
   57MOL   H31522827   4.947   7.767   1.443  1.4428 -0.5592  0.2380
   57MOL   H31622828   4.808   7.748   1.333 -0.2154  2.2212  2.3032
   57MOL   H31722829   4.929   7.623   1.350 -0.5200 -0.5825  0.3607
   57MOL   H31822830   4.723   7.534   1.738  0.1124  0.0760 -2.7096
   57MOL   H31922831   4.667   7.667   1.931  0.2680 -2.5324 -1.2690
   57MOL   H32022832   4.645   0.100   2.035 -3.4904  1.0010 -1.6570
   57MOL   H32122833   4.613   0.099   1.863  0.8372 -0.4441 -0.8381
   57MOL   C32222834   4.821   0.064   1.923  0.2099 -0.0999 -0.3020
   57MOL   C32322835   4.895   8.022   2.029  0.4276 -0.1589 -0.1473
   57MOL   C32422836   4.859   8.038   2.162 -0.2054  0.2619  0.2209
   57MOL   C32522837   4.916   7.949   2.258 -0.1307  0.3009  0.3640
   57MOL   C32622838   5.004   7.851   2.212 -0.7462  0.4324 -0.3976
   57MOL   O32722839   5.054   7.755   2.308  0.7223 -0.6498 -0.0437
   57MOL   C32822840   5.153   7.654   2.278 -0.0158 -0.1901  0.7687
   57MOL   C32922841   5.045   7.844   2.079 -0.6019  0.0144  0.2299
   57MOL   C33022842   4.991   7.929   1.984  0.3570 -0.6869 -0.3211
   57MOL   C33122843   4.862   0.222   1.941  0.0304  0.3613  0.3487
   57MOL   H33222844   4.870   0.034   1.830  0.1856  0.4531 -0.4972
   57MOL   H33322845   4.785   0.073   2.187  0.0545 -0.0182  1.8806
   57MOL   H33422846   4.900   7.952   2.365  0.0516 -0.8701  0.4309
   57MOL   H33522847   5.173   7.584   2.359  0.7688 -0.2704  0.5085
   57MOL   H33622848   5.253   7.691   2.257  0.0165 -0.2208  0.8687
   57MOL   H33722849   5.114   7.593   2.196  1.1874  1.8253 -1.3592
   57MOL   H33822850   5.123   7.780   2.039 -0.3639  0.8575 -0.6842
   57MOL   H33922851   5.012   7.910   1.880  0.0241  0.3302 -0.5808
   57MOL   H34022852   4.834   0.265   2.037 -0.4021 -1.7723  1.2030
   57MOL   H34122853   4.970   0.213   1.947  0.1104  0.8627 -0.2797
   57MOL   C34222854   4.819   0.329   1.836 -0.3715 -0.1516 -0.4195
   57MOL   C34322855   4.820   0.258   1.694 -0.4927 -0.3089  0.2701
   57MOL   C34422856   4.937   0.196   1.642 -0.1213  0.2031  0.6374
   57MOL   C34522857   4.932   0.133   1.517 -0.6181  0.2674 -0.0268
   57MOL   C34622858   4.814   0.134   1.439  0.0142 -0.3333  0.0569
   57MOL   O34722859   4.794   0.079   1.309 -0.0893 -0.2931  0.2989
   57MOL   C34822860   4.908   0.016   1.262  0.0692  0.4431 -0.3000
   57MOL   C34922861   4.699   0.194   1.492  0.2791 -0.3239  0.1481
   57MOL   C35022862   4.697   0.256   1.624 -0.2478  0.0932 -0.1583
   57MOL   C35122863   4.897   0.458   1.847  0.0153 -0.1833  0.1995
   57MOL   H35222864   4.715   0.361   1.843 -0.3652 -0.3267  0.6464
   57MOL   H35322865   5.026   0.205   1.702  0.0455 -0.3209  0.4690
   57MOL   H35422866   5.020   0.090   1.473 -1.7619 -1.3854 -0.7675
   57MOL   H35522867   4.881   8.014   1.165  0.4513 -1.7049  0.5055
   57MOL   H35622868   4.992   0.082   1.239  0.1994 -0.2210 -1.7751
   57MOL   H35722869   4.944   7.980   1.331 -1.5363 -0.7206 -0.7139
   57MOL   H35822870   4.613   0.206   1.428  0.1866  0.1009  0.3468
   57MOL   H35922871   4.614   0.308   1.669 -1.1524 -2.1135  0.7974
   57MOL   H36022872   4.939   0.478   1.945  1.7726 -0.2666 -0.5057
   57MOL   H36122873   4.982   0.430   1.784 -1.0003 -2.3463 -0.2429
   57MOL   C36222874   4.835   0.584   1.785 -0.5473 -0.7064  0.1940
   57MOL   C36322875   4.946   0.686   1.765 -0.2645  0.2403  0.1413
   57MOL   C36422876   4.970   0.738   1.636  0.0385  0.3833  0.0570
   57MOL   C36522877   5.066   0.835   1.613  0.4214 -0.0756 -0.4747
   57MOL   C36622878   5.143   0.892   1.718 -0.0668  0.8055  0.5965
   57MOL   O36722879   5.248   0.986   1.713  0.4077 -0.3430  0.4213
   57MOL   C36822880   5.306   1.015   1.583 -0.4072  0.8122  0.5084
   57MOL   C36922881   5.119   0.839   1.849 -0.3212 -0.2584  0.6747
   57MOL   C37022882   5.023   0.738   1.870 -0.4801 -0.0208 -0.7589
   57MOL   C37122883   4.712   0.626   1.868 -1.0205  0.4404 -0.3309
   57MOL   H37222884   4.807   0.549   1.686  1.5917 -2.8970  0.3075
   57MOL   H37322885   4.925   0.693   1.548  0.5522 -1.4856  0.7233
   57MOL   H37422886   5.083   0.866   1.511  0.4382  0.0378 -0.4364
   57MOL   H37522887   5.396   1.071   1.605 -0.3413 -0.6714  4.5066
   57MOL   H37622888   5.338   0.933   1.518  0.3240  0.3700  1.4179
   57MOL   H37722889   5.226   1.075   1.540 -1.3755 -0.6027  0.2894
   57MOL   H37822890   5.170   0.868   1.939 -1.0306 -0.9322  1.2983
   57MOL   H37922891   4.989   0.710   1.969 -1.5112 -0.9146 -1.3535
   57MOL   H38022892   4.629   0.557   1.877 -1.1979  0.5463 -1.0998
   57MOL   H38122893   4.743   0.637   1.972 -0.3162  1.1708 -0.6110
   57MOL   C38222894   4.644   0.763   1.823 -0.3322  0.3828  0.0938
   57MOL   C38322895   4.540   0.812   1.918  0.5773 -0.6420  0.2641
   57MOL   C38422896   4.481   0.947   1.904  0.1501  0.1239  0.2890
   57MOL   C38522897   4.381   0.987   1.996 -0.0948  0.1395 -0.1880
   57MOL   C38622898   4.340   0.897   2.101  0.0430  0.7009 -0.3562
   57MOL   O38722899   4.249   0.930   2.194 -0.0397 -0.6686  0.1454
   57MOL   C38822900   4.195   1.060   2.191 -0.6482  0.1968 -0.2671
   57MOL   C38922901   4.389   0.767   2.103 -0.2399 -0.0692 -0.3449
   57MOL   C39022902   4.488   0.726   2.013 -0.5120 -0.3217 -0.2641
   57MOL   C39122903   4.588   0.747   1.680 -0.9581 -0.8346 -0.3991
   57MOL   H39222904   4.716   0.844   1.833  0.1245 -0.0308  0.1448
   57MOL   H39322905   4.517   1.025   1.839  0.3301 -2.3862 -2.7542
   57MOL   H39422906   4.337   1.084   1.983  0.0702  0.3414  0.7146
   57MOL   H39522907   4.273   1.134   2.205 -0.4108 -0.1643  0.3512
   57MOL   H39622908   4.115   1.072   2.265 -0.3085  2.2230 -0.2207
   57MOL   H39722909   4.138   1.057   2.098  2.1600 -0.1104 -2.0353
   57MOL   H39822910   4.345   0.704   2.180 -1.7989 -0.4604 -1.5200
   57MOL   H39922911   4.529   0.628   2.035  1.6261  0.5084 -0.3562
   57MOL   H40022912   4.654   0.695   1.610 -1.2300 -2.4627  0.5139
   57MOL   H40122913   4.548   0.835   1.632 -1.5564 -2.7259 -3.4780
   57MOL   H40222914   4.501   0.681   1.686 -1.1839 -0.5628 -0.7443
   58MOL     C122915   6.707   3.178   6.377 -0.0762  0.3915  0.0561
   58MOL     C222916   6.635   3.304   6.423  0.4975 -0.1089 -0.2181
   58MOL     C322917   6.607   3.325   6.556 -0.1891 -0.7267  0.0056
   58MOL     C422918   6.535   3.443   6.594  0.7000 -0.2755  0.6682
   58MOL     C522919   6.502   3.545   6.502 -0.9015  0.3607  0.4675
   58MOL     O622920   6.454   3.669   6.543  0.5710  0.4017  1.0002
   58MOL     C722921   6.439   3.702   6.680  0.2586 -0.0483  0.6416
   58MOL     C822922   6.545   3.525   6.369  0.3708 -0.3532  0.3082
   58MOL     C922923   6.616   3.409   6.331  0.5293  0.5243 -0.0452
   58MOL    C1022924   6.848   3.160   6.429 -0.7430  0.3380 -0.0546
   58MOL    H1122925   6.688   3.158   6.272 -1.0911  0.6094  0.1856
   58MOL    H1222926   6.632   3.252   6.632 -1.1879  2.1823  3.2453
   58MOL    H1322927   6.508   3.445   6.698 -0.0542 -1.4494  0.5091
   58MOL    H1422928   6.455   3.809   6.693  0.8117  0.0787 -0.9588
   58MOL    H1522929   6.335   3.682   6.704 -0.7824  0.8905 -2.7975
   58MOL    H1622930   6.511   3.667   6.754  1.1509 -2.6443 -1.3938
   58MOL    H1722931   6.543   3.607   6.299 -1.7030 -0.8317 -0.2382
   58MOL    H1822932   6.654   3.405   6.230  0.4411  1.9384 -0.1431
   58MOL    H1922933   6.858   3.187   6.534 -1.4519 -3.1070  0.9517
   58MOL    H2022934   6.881   3.058   6.446  0.9422  0.8904  0.0553
   58MOL    H2122935   6.647   3.101   6.426  0.0597  0.4764  0.3596
   58MOL    C2222936   6.944   3.234   6.335 -0.1442 -0.3638 -0.1674
   58MOL    C2322937   7.072   3.285   6.403  0.0635  0.2626  0.3945
   58MOL    C2422938   7.174   3.186   6.430 -0.2297  0.2128  0.3506
   58MOL    C2522939   7.295   3.223   6.487  0.0691  0.2167 -0.0502
   58MOL    C2622940   7.326   3.356   6.519  0.3371 -0.2806 -0.2316
   58MOL    O2722941   7.449   3.399   6.571 -0.7722 -0.0451 -0.0079
   58MOL    C2822942   7.549   3.301   6.592  0.2716 -0.2266  0.4955
   58MOL    C2922943   7.228   3.456   6.490  0.8190  0.0013 -0.5509
   58MOL    C3022944   7.099   3.420   6.431  0.1797  0.7652  0.1968
   58MOL    C3122945   6.974   3.156   6.206 -0.8520  0.2438  0.4059
   58MOL    H3222946   6.899   3.329   6.306  3.6958  0.4166 -4.2566
   58MOL    H3322947   7.159   3.082   6.408 -0.7789  0.3511  0.0422
   58MOL    H3422948   7.366   3.145   6.509  0.9906  0.5114 -1.9033
   58MOL    H3522949   7.556   3.241   6.502 -0.6012  2.7173 -1.5791
   58MOL    H3622950   7.525   3.235   6.676  0.5424 -1.6615 -0.5399
   58MOL    H3722951   7.643   3.355   6.602  0.2137 -0.0545  0.1096
   58MOL    H3822952   7.239   3.559   6.521  0.7863 -0.6243  1.6379
   58MOL    H3922953   7.022   3.494   6.412 -1.2381 -0.7703 -0.1137
   58MOL    H4022954   7.024   3.061   6.222  0.0995  0.6313 -0.2217
   58MOL    H4122955   6.876   3.122   6.172 -0.4327  1.1648 -1.7614
   58MOL    C4222956   7.043   3.236   6.100  0.5882  0.0869  0.5842
   58MOL    C4322957   6.973   3.361   6.058 -0.3492 -0.0267  0.3305
   58MOL    C4422958   7.030   3.483   6.073  0.6503  0.8471 -0.7885
   58MOL    C4522959   6.954   3.600   6.058 -0.8211  0.3699  0.6294
   58MOL    C4622960   6.820   3.589   6.008  0.3404  0.4034 -0.2546
   58MOL    O4722961   6.754   3.708   5.979 -0.3277 -0.1567  0.4033
   58MOL    C4822962   6.652   3.700   5.882 -0.2622 -0.7186  0.5303
   58MOL    C4922963   6.764   3.461   5.979 -0.0276  0.3962  0.1445
   58MOL    C5022964   6.844   3.351   6.011  0.4410 -0.2901 -0.0200
   58MOL    C5122965   7.057   3.143   5.978  0.4678 -0.0861  0.5347
   58MOL    H5222966   7.141   3.255   6.143  0.0935  0.6803  1.4564
   58MOL    H5322967   7.132   3.495   6.107  2.0393 -0.9061 -4.1394
   58MOL    H5422968   6.999   3.696   6.076 -0.4933 -0.0186  1.9630
   58MOL    H5522969   6.599   3.795   5.872  0.7532 -0.1822  0.2345
   58MOL    H5622970   6.691   3.665   5.787  1.1461  1.7459  0.1602
   58MOL    H5722971   6.570   3.635   5.914 -2.0617  0.4381 -1.5838
   58MOL    H5822972   6.665   3.439   5.940  0.7441 -0.0249 -1.6540
   58MOL    H5922973   6.807   3.250   6.000  1.0097 -0.4522 -0.4233
   58MOL    H6022974   7.054   3.180   5.875 -1.4823  0.0473  0.6185
   58MOL    H6122975   6.967   3.084   5.964 -0.2693  0.8201  1.4239
   58MOL    C6222976   7.189   3.060   5.969 -0.1645  0.3669 -0.4514
   58MOL    C6322977   7.285   3.111   5.862  0.4142 -0.7540 -0.6067
   58MOL    C6422978   7.386   3.200   5.901  0.0110  0.5861 -0.3344
   58MOL    C6522979   7.467   3.268   5.803 -0.9082  0.5460  0.5338
   58MOL    C6622980   7.448   3.234   5.666  0.2212  0.6563  0.2047
   58MOL    O6722981   7.523   3.288   5.563 -0.4198 -0.0460  0.5836
   58MOL    C6822982   7.630   3.372   5.596  0.4585 -0.0877 -0.4533
   58MOL    C6922983   7.355   3.133   5.626  0.4798 -0.1511 -0.5514
   58MOL    C7022984   7.268   3.082   5.728 -0.0141 -0.0987  0.3733
   58MOL    C7122985   7.162   2.906   5.959 -0.1272 -0.8141  0.4351
   58MOL    H7222986   7.237   3.061   6.067  1.2752 -0.2456 -1.1348
   58MOL    H7322987   7.392   3.230   6.004 -1.8265 -1.4298  0.4069
   58MOL    H7422988   7.531   3.346   5.841  0.0196 -0.0321  0.1782
   58MOL    H7522989   7.705   3.332   5.665 -0.8409 -0.1034  0.9799
   58MOL    H7622990   7.591   3.470   5.623  0.5707 -0.0736 -0.3384
   58MOL    H7722991   7.676   3.377   5.498 -1.4499 -0.0091 -1.3605
   58MOL    H7822992   7.330   3.114   5.523 -1.8002  1.0439 -0.2617
   58MOL    H7922993   7.188   3.015   5.700  0.3301 -0.8700  1.1895
   58MOL    H8022994   7.101   2.878   6.045  0.2497 -0.1160  0.9395
   58MOL    H8122995   7.117   2.886   5.862 -1.1454 -1.3504  1.0142
   58MOL    C8222996   7.288   2.814   5.970 -0.0967  0.0619  0.9819
   58MOL    C8322997   7.364   2.821   6.104  0.0847  0.0565  0.1767
   58MOL    C8422998   7.505   2.794   6.100  0.2298 -0.4623 -0.4467
   58MOL    C8522999   7.575   2.790   6.221  1.0689 -0.5317 -0.6138
   58MOL    C8623000   7.502   2.806   6.341  0.1052 -0.0460  0.3766
   58MOL    O8723001   7.570   2.807   6.462 -0.0739  0.0924  0.7350
   58MOL    C8823002   7.714   2.795   6.478  0.5593 -0.6065 -0.4099
   58MOL    C8923003   7.365   2.825   6.346  1.0034 -0.7791  0.6637
   58MOL    C9023004   7.294   2.833   6.226  0.3288 -0.1359  0.6557
   58MOL    C9123005   7.263   2.668   5.929 -0.5054 -0.3925 -0.6302
   58MOL    H9223006   7.358   2.848   5.895 -0.7620  0.0393  0.3437
   58MOL    H9323007   7.554   2.779   6.006  0.3816  0.7313 -0.5668
   58MOL    H9423008   7.679   2.760   6.218  1.0853 -0.6347  0.6520
   58MOL    H9523009   7.738   2.899   6.454 -1.7240 -0.4208 -2.1255
   58MOL    H9623010   7.766   2.716   6.426  0.8732 -0.4942 -0.2656
   58MOL    H9723011   7.734   2.791   6.585 -1.2225 -0.3382 -0.0367
   58MOL    H9823012   7.311   2.833   6.439 -1.0201  3.3703 -0.7098
   58MOL    H9923013   7.189   2.858   6.235  1.0598  2.6398  2.1598
   58MOL   H10023014   7.355   2.615   5.954 -0.4143  0.2501  0.4272
   58MOL   H10123015   7.173   2.627   5.977  0.3533  1.1175  2.4284
   58MOL   C10223016   7.261   2.641   5.777 -0.5789 -0.0495  0.7608
   58MOL   C10323017   7.391   2.673   5.708 -0.2254 -0.0513  0.2657
   58MOL   C10423018   7.507   2.585   5.729  0.0664 -0.6334  0.4693
   58MOL   C10523019   7.619   2.617   5.653 -0.1462  0.2694 -0.0478
   58MOL   C10623020   7.624   2.728   5.569 -0.7243  0.2060 -0.7557
   58MOL   O10723021   7.744   2.751   5.504  0.4175 -0.2071  0.3727
   58MOL   C10823022   7.762   2.863   5.416  0.3296 -0.0157  0.9272
   58MOL   C10923023   7.514   2.810   5.550  0.1873 -0.0809 -0.8693
   58MOL   C11023024   7.397   2.781   5.617 -0.3730 -0.6950  0.7021
   58MOL   C11123025   7.213   2.499   5.744  0.0687  0.5273  0.5417
   58MOL   H11223026   7.183   2.709   5.742 -1.1271 -0.9647  0.1897
   58MOL   H11323027   7.502   2.498   5.793 -0.8506 -0.1473  1.0572
   58MOL   H11423028   7.712   2.567   5.679 -0.4322 -0.5322 -0.5399
   58MOL   H11523029   7.701   2.854   5.327  1.2951 -3.9652  0.5677
   58MOL   H11623030   7.740   2.956   5.469 -0.6262 -0.4418  1.2815
   58MOL   H11723031   7.865   2.882   5.386 -0.3337  0.0790 -1.3735
   58MOL   H11823032   7.521   2.896   5.485  1.2374 -0.1985 -0.9214
   58MOL   H11923033   7.310   2.845   5.616 -0.5133 -0.8673  1.3496
   58MOL   H12023034   7.256   2.463   5.650 -2.1820 -1.3873  0.1845
   58MOL   H12123035   7.260   2.433   5.816 -1.0262  0.5284  1.2614
   58MOL   C12223036   7.064   2.464   5.747  0.3603  0.0364 -0.4364
   58MOL   C12323037   7.038   2.310   5.759 -0.8743 -0.7162  0.3930
   58MOL   C12423038   6.966   2.251   5.862 -0.0697 -0.3890 -0.8845
   58MOL   C12523039   6.942   2.118   5.866  0.3897  0.0452 -0.6515
   58MOL   C12623040   6.992   2.031   5.765 -0.5012 -0.0849  0.1567
   58MOL   O12723041   6.984   1.897   5.759  0.8639  0.1729  0.2440
   58MOL   C12823042   6.925   1.835   5.877  0.3014 -0.3465 -0.0035
   58MOL   C12923043   7.069   2.087   5.667  0.0951 -0.3996  0.7354
   58MOL   C13023044   7.093   2.224   5.661  0.1698 -0.2962  0.3276
   58MOL   C13123045   6.989   2.517   5.625  0.1618 -0.0662  0.1043
   58MOL   H13223046   7.019   2.502   5.839  2.2398 -1.3725  1.1162
   58MOL   H13323047   6.927   2.316   5.940  0.1477 -1.2058 -0.0836
   58MOL   H13423048   6.892   2.082   5.955  0.1755 -1.7952 -1.4878
   58MOL   H13523049   6.930   1.729   5.854  0.5514 -0.5627  1.0449
   58MOL   H13623050   6.977   1.864   5.968 -2.0765  0.9434  0.9959
   58MOL   H13723051   6.823   1.873   5.890 -0.2898 -2.0609  0.3974
   58MOL   H13823052   7.104   2.025   5.585  0.8252  0.4784  0.3663
   58MOL   H13923053   7.154   2.263   5.581 -0.4580 -1.1921 -0.5990
   58MOL   H14023054   6.999   2.441   5.548  1.6845 -0.8877  1.0864
   58MOL   H14123055   7.046   2.604   5.593 -0.7576  1.0059  1.3216
   58MOL   C14223056   6.842   2.554   5.662  0.0904  0.1872 -0.0105
   58MOL   C14323057   6.832   2.702   5.690  1.1057  0.5401  0.3885
   58MOL   C14423058   6.797   2.748   5.821  0.3243 -0.1140 -0.9516
   58MOL   C14523059   6.787   2.884   5.849 -0.2185 -0.5188  0.0304
   58MOL   C14623060   6.812   2.981   5.747 -0.5028 -0.1134  0.3467
   58MOL   O14723061   6.801   3.117   5.779  0.0589  0.1617  0.3602
   58MOL   C14823062   6.831   3.215   5.680 -0.7822  0.2922  0.4967
   58MOL   C14923063   6.833   2.936   5.609 -0.2027 -0.4369 -0.6608
   58MOL   C15023064   6.843   2.798   5.585  0.3512  0.4013  0.1000
   58MOL   C15123065   6.736   2.497   5.561  0.5132 -0.3845 -0.4751
   58MOL   H15223066   6.815   2.505   5.756 -0.4590  1.2396  0.3805
   58MOL   H15323067   6.779   2.680   5.902  0.2062 -0.3858 -1.2065
   58MOL   H15423068   6.749   2.918   5.945 -1.4378 -0.7120 -0.3747
   58MOL   H15523069   6.828   3.312   5.729  0.5022 -0.2866  1.7485
   58MOL   H15623070   6.929   3.201   5.634 -1.5405  1.8898 -1.6482
   58MOL   H15723071   6.754   3.217   5.604  2.2170  0.1406 -2.6830
   58MOL   H15823072   6.834   3.009   5.530 -2.3884  0.5192  0.1459
   58MOL   H15923073   6.871   2.768   5.484 -1.6528 -2.7316  0.4107
   58MOL   H16023074   6.774   2.403   5.521  1.1863  0.0075 -0.7627
   58MOL   H16123075   6.732   2.567   5.477 -0.7185 -0.0243 -0.1221
   58MOL   C16223076   6.600   2.482   5.626 -0.1468 -0.4648  0.8311
   58MOL   C16323077   6.587   2.345   5.696  0.2593  0.4899 -0.1110
   58MOL   C16423078   6.595   2.337   5.837  0.1595  0.2412 -0.0100
   58MOL   C16523079   6.586   2.206   5.896  0.0123  0.2420  0.3639
   58MOL   C16623080   6.594   2.089   5.812  0.1039  0.3160  0.1073
   58MOL   O16723081   6.593   1.967   5.878  0.3516 -0.0900  0.3204
   58MOL   C16823082   6.547   1.849   5.799  0.1044  0.2767 -0.4773
   58MOL   C16923083   6.595   2.104   5.670  0.3791 -0.0876  0.2942
   58MOL   C17023084   6.588   2.230   5.615  0.2686  0.4963  0.0869
   58MOL   C17123085   6.473   2.502   5.536 -0.3345 -0.3338 -0.9151
   58MOL   H17223086   6.586   2.555   5.706  0.3222  0.9567 -0.3689
   58MOL   H17323087   6.598   2.420   5.906  0.4354  0.7983 -0.6921
   58MOL   H17423088   6.583   2.189   6.003 -0.6840 -1.1551  0.1306
   58MOL   H17523089   6.613   1.836   5.713  0.0445  0.5604 -0.5646
   58MOL   H17623090   6.447   1.879   5.769 -0.2344  4.3650  4.1280
   58MOL   H17723091   6.547   1.758   5.859 -5.7150  0.3660 -0.0340
   58MOL   H17823092   6.597   2.022   5.599  3.0479  0.0190  0.1801
   58MOL   H17923093   6.589   2.233   5.507 -0.7077  2.7610  0.1034
   58MOL   H18023094   6.382   2.474   5.589 -1.5860  0.5646 -2.5121
   58MOL   H18123095   6.485   2.433   5.453  1.4841 -0.3149 -0.6806
   58MOL   C18223096   6.449   2.647   5.486 -0.5201 -0.1580 -0.6183
   58MOL   C18323097   6.391   2.742   5.587  0.9726 -0.3569  0.2680
   58MOL   C18423098   6.452   2.868   5.617  0.6730  0.4409  0.1837
   58MOL   C18523099   6.396   2.945   5.720  0.2368 -1.0005  0.4817
   58MOL   C18623100   6.277   2.904   5.787  0.1638 -0.5119  0.1548
   58MOL   O18723101   6.209   2.977   5.887 -0.0690  0.2658  0.2696
   58MOL   C18823102   6.255   3.107   5.918 -0.5570 -0.0961 -0.1584
   58MOL   C18923103   6.222   2.778   5.758 -0.0539 -0.7907  0.1915
   58MOL   C19023104   6.272   2.701   5.654 -0.3851 -0.6705 -0.1068
   58MOL   C19123105   6.367   2.649   5.357  0.3974  0.2644  0.6681
   58MOL   H19223106   6.548   2.689   5.473 -1.4433  2.0806 -0.5612
   58MOL   H19323107   6.548   2.884   5.570 -0.7191  0.7804 -2.6643
   58MOL   H19423108   6.454   3.031   5.749 -1.0932 -0.3799  1.3967
   58MOL   H19523109   6.187   3.147   5.994  1.0161 -2.3381  2.5077
   58MOL   H19623110   6.241   3.170   5.830  0.2176 -0.2690 -0.4084
   58MOL   H19723111   6.358   3.112   5.954 -1.7938  1.6513  3.3383
   58MOL   H19823112   6.132   2.736   5.801  2.2277 -4.0266  2.0086
   58MOL   H19923113   6.211   2.616   5.628 -1.5074  0.6316 -1.9075
   58MOL   H20023114   6.282   2.581   5.361  0.5767 -0.0761 -0.8884
   58MOL   H20123115   6.335   2.753   5.348  2.5938  1.2205  3.2180
   58MOL   C20223116   6.463   2.613   5.238 -0.2337 -0.3218 -0.0448
   58MOL   C20323117   6.534   2.730   5.172  0.8841 -0.9172  0.3146
   58MOL   C20423118   6.461   2.828   5.100  0.1818  0.0585  0.3709
   58MOL   C20523119   6.533   2.940   5.048  0.1091 -1.0978  0.2493
   58MOL   C20623120   6.669   2.963   5.072 -0.2391 -0.3138  0.3923
   58MOL   O20723121   6.726   3.075   5.007  0.1044 -0.2559 -0.6098
   58MOL   C20823122   6.864   3.071   4.974  0.3200  0.4084 -0.0794
   58MOL   C20923123   6.738   2.866   5.152 -0.1638 -0.5482  0.1743
   58MOL   C21023124   6.673   2.749   5.199 -0.1613 -0.6062 -0.0626
   58MOL   C21123125   6.406   2.516   5.135  0.1653 -0.1556 -0.7317
   58MOL   H21223126   6.546   2.559   5.285  0.1455  0.6231  0.3972
   58MOL   H21323127   6.354   2.814   5.088  0.1535  0.9644 -0.5705
   58MOL   H21423128   6.476   3.022   5.006  1.9143 -0.2082 -0.4922
   58MOL   H21523129   6.888   3.161   4.919  3.5107 -1.2699 -1.5436
   58MOL   H21623130   6.938   3.071   5.053  0.4522 -1.4065 -0.1851
   58MOL   H21723131   6.890   2.992   4.904 -2.7062 -0.8618  0.1201
   58MOL   H21823132   6.843   2.881   5.168 -0.0285  0.0012 -1.1499
   58MOL   H21923133   6.730   2.680   5.259 -0.8384 -0.9843  0.1503
   58MOL   H22023134   6.342   2.568   5.063 -0.0261 -0.0314 -0.4739
   58MOL   H22123135   6.335   2.447   5.181  0.8149 -0.9928 -0.9754
   58MOL   C22223136   6.505   2.433   5.057  0.6268  0.0894  0.1290
   58MOL   C22323137   6.591   2.339   5.147 -0.1320 -0.4513  0.6201
   58MOL   C22423138   6.720   2.382   5.192  0.7251  0.0006  0.0769
   58MOL   C22523139   6.805   2.297   5.263  0.2577 -0.4300  0.4169
   58MOL   C22623140   6.767   2.160   5.278  0.7796 -0.1135  0.3282
   58MOL   O22723141   6.859   2.081   5.339  0.2271 -0.1245 -0.3785
   58MOL   C22823142   6.842   1.937   5.333  0.3298  0.4117  0.5389
   58MOL   C22923143   6.635   2.114   5.238 -0.0616  0.1871 -0.3931
   58MOL   C23023144   6.545   2.209   5.177 -0.6830 -0.0274  0.1385
   58MOL   C23123145   6.457   2.355   4.935  0.1695  0.1068 -0.0149
   58MOL   H23223146   6.581   2.505   5.028 -0.2207  0.7291 -0.5146
   58MOL   H23323147   6.754   2.482   5.171 -2.1388  1.4571  2.1882
   58MOL   H23423148   6.897   2.335   5.304  0.3111  0.7291 -0.7668
   58MOL   H23523149   6.862   1.902   5.232 -1.7557  1.4633 -0.2473
   58MOL   H23623150   6.929   1.904   5.391  0.5161  4.3816  2.6727
   58MOL   H23723151   6.758   1.887   5.382  0.8297  0.6896  1.6976
   58MOL   H23823152   6.601   2.013   5.255  2.9917 -0.9121 -0.5351
   58MOL   H23923153   6.448   2.170   5.149 -0.4251 -1.0238  0.5874
   58MOL   H24023154   6.383   2.283   4.968 -0.4254  0.2092 -1.0985
   58MOL   H24123155   6.395   2.425   4.880  0.5051  0.2627 -0.2006
   58MOL   C24223156   6.570   2.301   4.840 -0.5960 -0.2540  0.3635
   58MOL   C24323157   6.516   2.214   4.731 -0.6690 -0.7608 -0.1404
   58MOL   C24423158   6.572   2.085   4.701  0.5300  0.4055  0.0714
   58MOL   C24523159   6.531   2.011   4.590  0.4399 -0.3567  0.1829
   58MOL   C24623160   6.431   2.061   4.506  0.0990 -0.8363 -0.0445
   58MOL   O24723161   6.392   1.986   4.398  0.5099  0.3899  0.1275
   58MOL   C24823162   6.325   2.050   4.295 -0.0285  0.2429  0.0740
   58MOL   C24923163   6.368   2.189   4.535  0.4549 -0.5337  0.3293
   58MOL   C25023164   6.411   2.259   4.647 -0.5322  0.1650  0.2142
   58MOL   C25123165   6.660   2.415   4.772 -0.4592 -0.1892  0.8550
   58MOL   H25223166   6.640   2.244   4.902  1.5517  0.8755 -0.9528
   58MOL   H25323167   6.650   2.043   4.762  1.6954  0.0160 -1.6384
   58MOL   H25423168   6.573   1.914   4.567  2.1923  0.8605 -1.9240
   58MOL   H25523169   6.224   2.075   4.328  0.1654  0.9236  0.1561
   58MOL   H25623170   6.381   2.139   4.267  1.3468 -0.1752  1.4083
   58MOL   H25723171   6.331   1.991   4.204  1.0772 -0.8727  0.8443
   58MOL   H25823172   6.290   2.229   4.473 -1.0985 -1.3815  1.6843
   58MOL   H25923173   6.373   2.359   4.660 -0.4034 -0.2035  4.2593
   58MOL   H26023174   6.593   2.500   4.783  1.6872  1.7013 -0.2834
   58MOL   H26123175   6.654   2.403   4.664  0.4855 -0.8687  0.8688
   58MOL   C26223176   6.800   2.458   4.818 -0.1564  0.0591  0.5130
   58MOL   C26323177   6.827   2.587   4.739  0.6901 -0.1203 -0.1934
   58MOL   C26423178   6.910   2.583   4.625  0.4453  0.3360  0.5733
   58MOL   C26523179   6.937   2.700   4.554  0.2888 -0.1118 -0.3376
   58MOL   C26623180   6.888   2.823   4.598 -0.6496 -0.3664  0.1302
   58MOL   O26723181   6.928   2.937   4.534 -0.1751  0.1788  0.0952
   58MOL   C26823182   6.848   2.973   4.417  0.5811  0.0480 -0.5342
   58MOL   C26923183   6.805   2.830   4.709  0.5096 -0.4013  0.4206
   58MOL   C27023184   6.769   2.710   4.777 -0.2507 -0.3486  0.7258
   58MOL   C27123185   6.906   2.344   4.811 -0.7455  0.3511  0.2411
   58MOL   H27223186   6.802   2.494   4.921 -3.3648  0.4875  0.4650
   58MOL   H27323187   6.946   2.493   4.579  1.8159  0.4563  1.3780
   58MOL   H27423188   6.987   2.689   4.459  2.4267 -1.3358  0.8976
   58MOL   H27523189   6.886   3.071   4.389  0.0499  0.4696  0.2072
   58MOL   H27623190   6.743   2.987   4.443  0.3913 -0.1544 -1.1853
   58MOL   H27723191   6.857   2.905   4.332 -1.2093 -0.1780 -0.5670
   58MOL   H27823192   6.766   2.930   4.725  0.2998 -0.6892  1.7951
   58MOL   H27923193   6.711   2.719   4.868  1.0597 -1.0049  1.6496
   58MOL   H28023194   6.877   2.269   4.884 -2.5694  0.1376 -0.6586
   58MOL   H28123195   6.905   2.299   4.712 -0.3606  0.6777  0.0864
   58MOL   C28223196   7.049   2.378   4.842 -0.5477 -0.5087 -1.0348
   58MOL   C28323197   7.133   2.255   4.838 -0.8064  0.0012  0.5745
   58MOL   C28423198   7.231   2.233   4.739 -0.2908  0.1228 -0.5091
   58MOL   C28523199   7.317   2.118   4.749  0.5256 -0.1794 -0.0293
   58MOL   C28623200   7.301   2.019   4.850  0.5520 -0.3881 -0.2470
   58MOL   O28723201   7.401   1.923   4.870 -0.3580 -0.2045 -0.0415
   58MOL   C28823202   7.368   1.818   4.965 -0.5752  0.0420 -0.7320
   58MOL   C28923203   7.184   2.037   4.930 -0.2265  0.5286 -0.0082
   58MOL   C29023204   7.104   2.151   4.929  0.6011 -0.0041  0.5196
   58MOL   C29123205   7.078   2.458   4.974 -0.6011 -0.0191  0.3814
   58MOL   H29223206   7.071   2.436   4.752 -3.5646  0.2281 -1.3311
   58MOL   H29323207   7.247   2.306   4.661  0.6268 -0.1571 -0.5973
   58MOL   H29423208   7.412   2.112   4.697 -0.0174 -0.1773 -1.0266
   58MOL   H29523209   7.286   1.760   4.923 -1.8697  1.3154 -0.0484
   58MOL   H29623210   7.455   1.754   4.981 -0.6531  0.7630  3.1202
   58MOL   H29723211   7.343   1.867   5.059  0.4071 -0.8342  0.0004
   58MOL   H29823212   7.169   1.964   5.008  0.0628  0.7863  0.2937
   58MOL   H29923213   7.030   2.155   5.008  0.7153  0.6703  0.5889
   58MOL   H30023214   6.987   2.509   5.004 -1.1483 -1.7489  1.7504
   58MOL   H30123215   7.122   2.392   5.050 -1.4784 -3.1295 -1.7099
   58MOL   C30223216   7.183   2.568   4.962 -0.5134 -0.0887  0.6416
   58MOL   C30323217   7.170   2.670   5.073 -0.4885 -0.0996 -0.2990
   58MOL   C30423218   7.167   2.616   5.204 -0.6448 -0.8365 -0.7360
   58MOL   C30523219   7.151   2.698   5.317  0.0145  0.7321 -0.6296
   58MOL   C30623220   7.120   2.837   5.303 -0.3762 -0.2291 -0.5799
   58MOL   O30723221   7.106   2.914   5.412  0.0516 -0.4575  0.0494
   58MOL   C30823222   7.064   3.051   5.387 -0.7339  0.8138  0.4717
   58MOL   C30923223   7.126   2.886   5.166 -0.1329 -0.2470  0.2125
   58MOL   C31023224   7.150   2.805   5.054  0.3101  0.5547 -0.1007
   58MOL   C31123225   7.337   2.519   4.957  0.8009 -0.0665  0.2384
   58MOL   H31223226   7.166   2.634   4.876  0.0283  1.7692  1.9181
   58MOL   H31323227   7.186   2.511   5.220 -0.8978 -0.7458  0.2507
   58MOL   H31423228   7.158   2.651   5.414  1.8637  1.9823 -0.1229
   58MOL   H31523229   7.020   3.100   5.474 -1.7616  0.2706  0.2774
   58MOL   H31623230   6.982   3.051   5.314  1.7699 -0.2265 -2.4363
   58MOL   H31723231   7.147   3.107   5.344 -2.3518  2.2317 -0.9184
   58MOL   H31823232   7.113   2.990   5.140  1.0867  0.3013  1.7414
   58MOL   H31923233   7.138   2.845   4.955 -3.3937  0.4383  0.2244
   58MOL   H32023234   7.348   2.417   4.920  1.0933 -0.0599  0.3093
   58MOL   H32123235   7.376   2.513   5.059  0.3126 -1.9834  0.3346
   58MOL   C32223236   7.422   2.621   4.872 -1.1263 -0.2046 -0.3610
   58MOL   C32323237   7.378   2.612   4.722 -0.3216  0.2146  0.1386
   58MOL   C32423238   7.418   2.507   4.638 -0.6132 -0.5041 -0.1084
   58MOL   C32523239   7.384   2.507   4.498  0.2699  0.2366 -0.2061
   58MOL   C32623240   7.297   2.606   4.448 -0.1725 -0.0486 -0.3443
   58MOL   O32723241   7.269   2.602   4.312  0.1380 -0.6166 -0.2575
   58MOL   C32823242   7.234   2.721   4.233  0.6171  1.4869 -0.9899
   58MOL   C32923243   7.253   2.706   4.536  0.5811 -0.2722 -0.7683
   58MOL   C33023244   7.303   2.710   4.669  0.4139 -0.0086  0.2656
   58MOL   C33123245   7.580   2.612   4.887  0.2375 -0.5729 -0.4379
   58MOL   H33223246   7.396   2.721   4.908  0.1441  0.0178 -0.0506
   58MOL   H33323247   7.483   2.432   4.681 -0.1814  0.8913  1.8003
   58MOL   H33423248   7.416   2.422   4.440  0.3875 -0.9135  1.5201
   58MOL   H33523249   7.295   2.809   4.255  0.6247  1.6605 -1.6852
   58MOL   H33623250   7.132   2.750   4.259  0.3086  0.0955 -0.6055
   58MOL   H33723251   7.238   2.699   4.126 -2.3647 -0.1281 -0.8347
   58MOL   H33823252   7.186   2.782   4.499 -0.4319 -0.3541  0.8203
   58MOL   H33923253   7.280   2.800   4.725  0.6571  0.0464  0.2760
   58MOL   H34023254   7.611   2.508   4.879 -2.0699 -1.1831 -1.9242
   58MOL   H34123255   7.633   2.661   4.806 -0.7914 -2.1600 -2.1126
   58MOL   C34223256   7.622   2.661   5.034  0.2115 -0.1028 -0.0969
   58MOL   C34323257   7.608   2.815   5.043  0.0932 -0.0867 -0.3221
   58MOL   C34423258   7.497   2.869   5.110 -0.3199 -0.3951 -0.1979
   58MOL   C34523259   7.490   3.008   5.131  0.3774 -0.3946 -0.8149
   58MOL   C34623260   7.585   3.098   5.078  1.0259 -0.0865 -0.3338
   58MOL   O34723261   7.578   3.226   5.120  0.4954 -0.2412 -0.1932
   58MOL   C34823262   7.680   3.315   5.088 -0.6710  0.0789 -0.3286
   58MOL   C34923263   7.682   3.041   4.992  0.5169 -0.2584 -0.3635
   58MOL   C35023264   7.694   2.904   4.973 -0.3175  0.5809  0.0113
   58MOL   C35123265   7.751   2.614   5.099  0.1384 -1.0836  0.3524
   58MOL   H35223266   7.542   2.628   5.100 -0.8868  2.7299  0.0851
   58MOL   H35323267   7.420   2.802   5.145 -0.9743 -0.7958 -2.3336
   58MOL   H35423268   7.411   3.051   5.190  1.9383  1.6181 -0.1016
   58MOL   H35523269   7.775   3.268   5.114 -1.5051 -0.7050  1.3735
   58MOL   H35623270   7.684   3.347   4.984  0.0648  4.4247  0.9567
   58MOL   H35723271   7.682   3.398   5.158  1.2366 -2.0295  2.2102
   58MOL   H35823272   7.757   3.106   4.947  0.6607  0.4835  0.9395
   58MOL   H35923273   7.771   2.857   4.914  0.6166  3.1963 -0.9258
   58MOL   H36023274   7.840   2.649   5.047  0.7601 -1.4713  1.1379
   58MOL   H36123275   7.760   2.672   5.190  1.4871 -0.0760 -0.4000
   58MOL   C36223276   7.764   2.456   5.125 -0.5563  0.3331  0.2113
   58MOL   C36323277   7.636   2.397   5.187  0.4887 -0.1241 -0.1029
   58MOL   C36423278   7.550   2.310   5.116  0.4449 -0.2101 -0.0830
   58MOL   C36523279   7.429   2.266   5.171 -0.4316 -0.2224  0.9257
   58MOL   C36623280   7.393   2.300   5.305 -0.0337 -0.5565 -0.6267
   58MOL   O36723281   7.283   2.250   5.369 -0.5445 -0.3535  0.3827
   58MOL   C36823282   7.176   2.195   5.300  0.4174  0.0525  0.1281
   58MOL   C36923283   7.474   2.396   5.375  0.4512 -0.0342  0.3681
   58MOL   C37023284   7.597   2.440   5.316 -0.5530 -0.5489  0.0643
   58MOL   C37123285   7.890   2.425   5.210 -0.0448  0.1589 -0.1053
   58MOL   H37223286   7.767   2.404   5.029  1.9405 -0.3796  0.6306
   58MOL   H37323287   7.574   2.285   5.014  0.7427  1.1945 -0.3754
   58MOL   H37423288   7.361   2.208   5.110 -1.3262  0.5499  1.1647
   58MOL   H37523289   7.176   2.092   5.336  0.5676  0.0686  0.1753
   58MOL   H37623290   7.085   2.244   5.334  0.0519  0.0508 -0.8470
   58MOL   H37723291   7.179   2.204   5.192 -0.5564  2.0345  0.2545
   58MOL   H37823292   7.436   2.448   5.462 -0.2932 -0.0968  0.0763
   58MOL   H37923293   7.661   2.514   5.361 -1.0229  0.9177 -1.5964
   58MOL   H38023294   7.880   2.466   5.310  1.2522  2.1452 -0.7492
   58MOL   H38123295   7.890   2.318   5.230 -1.1804  0.2978  0.6059
   58MOL   C38223296   8.030   2.452   5.145 -0.3475 -0.4573  0.0185
   58MOL   C38323297   0.010   2.373   5.011  0.2195 -0.4854 -0.4920
   58MOL   C38423298   0.037   2.448   4.890  0.0836 -0.3820  0.5392
   58MOL   C38523299   0.068   2.372   4.775  0.0020  0.3437  0.0926
   58MOL   C38623300   0.080   2.234   4.781 -0.1371 -0.2626 -0.1433
   58MOL   O38723301   0.108   2.164   4.663 -0.1116  0.4739  0.0074
   58MOL   C38823302   0.067   2.026   4.662 -0.1404 -0.3714 -0.4975
   58MOL   C38923303   0.058   2.166   4.905  0.0229  0.4037 -0.5961
   58MOL   C39023304   0.024   2.237   5.017 -0.7859  0.6994  0.1789
   58MOL   C39123305   0.115   2.427   5.236 -0.1316  0.1277 -0.4701
   58MOL   H39223306   8.034   2.557   5.118  2.2127  0.1905  2.7072
   58MOL   H39323307   0.031   2.555   4.890  1.3098 -0.2350 -3.6489
   58MOL   H39423308   0.078   2.432   4.686 -0.4463  1.3200  0.7002
   58MOL   H39523309   0.065   1.983   4.562 -1.1151 -1.7790  0.1039
   58MOL   H39623310   8.013   2.012   4.715  0.7862  0.3012  1.3887
   58MOL   H39723311   0.147   1.979   4.720  0.3698  0.7731 -0.2649
   58MOL   H39823312   0.075   2.063   4.933 -1.0025  0.5025  0.4272
   58MOL   H39923313   0.020   2.181   5.109  1.9107  3.2590  1.9135
   58MOL   H40023314   0.131   2.322   5.262 -0.1186  0.7781  2.3462
   58MOL   H40123315   0.086   2.460   5.336 -1.5517 -0.0427 -0.8070
   58MOL   H40223316   0.208   2.469   5.198  0.2148 -0.3211 -0.1281
   59MOL     C123317   7.319   2.194   0.047  0.3556 -0.2623 -0.0298
   59MOL     C223318   7.366   2.075   0.124  0.2613 -0.1369  0.1285
   59MOL     C323319   7.363   1.947   0.057 -0.2093  0.3197 -0.3156
   59MOL     C423320   7.403   1.826   0.124 -0.2165 -0.3912 -0.4409
   59MOL     C523321   7.435   1.835   0.260  0.1655 -0.0262 -0.3218
   59MOL     O623322   7.472   1.722   0.322 -0.5189  0.3480 -0.0539
   59MOL     C723323   7.516   1.728   0.464  0.1023 -0.4572  0.8688
   59MOL     C823324   7.437   1.959   0.323 -0.3434  0.3674 -0.3642
   59MOL     C923325   7.402   2.081   0.262  0.1380 -0.2647  0.0664
   59MOL    C1023326   7.180   2.241   0.099 -0.2115  0.4020  0.4100
   59MOL    H1123327   7.315   2.183   7.978  0.2959  1.3877 -0.1983
   59MOL    H1223328   7.335   1.939   7.993  0.0346 -2.6227 -0.2038
   59MOL    H1323329   7.410   1.735   0.068 -2.1735  0.6670 -2.4553
   59MOL    H1423330   7.442   1.743   0.543 -1.3156 -0.3933 -0.4416
   59MOL    H1523331   7.534   1.625   0.495 -0.4745 -1.1759 -1.0855
   59MOL    H1623332   7.597   1.801   0.464  1.0165 -1.4602  1.4381
   59MOL    H1723333   7.466   1.961   0.427 -0.0969  1.8382 -0.4466
   59MOL    H1823334   7.400   2.166   0.329 -0.1571  0.2608 -0.6047
   59MOL    H1923335   7.198   2.255   0.206 -0.1184 -1.6644  0.6846
   59MOL    H2023336   7.152   2.334   0.049  1.3793  1.4051  1.3400
   59MOL    H2123337   7.379   2.282   0.068 -0.3116 -0.0452  0.9946
   59MOL    C2223338   7.061   2.145   0.076  0.0560 -0.1602  0.9441
   59MOL    C2323339   6.936   2.204   0.145 -0.1049 -0.4393  0.2425
   59MOL    C2423340   6.894   2.155   0.266  0.9617 -0.3317  0.5702
   59MOL    C2523341   6.789   2.219   0.332 -0.4862 -0.2428 -0.6922
   59MOL    C2623342   6.725   2.332   0.277  0.0329 -0.2890  0.2571
   59MOL    O2723343   6.618   2.396   0.330 -0.1053 -0.8950  0.2251
   59MOL    C2823344   6.565   2.344   0.448 -0.0675 -0.0518  0.0512
   59MOL    C2923345   6.763   2.376   0.149  0.2084 -0.1155 -0.0301
   59MOL    C3023346   6.877   2.319   0.089  0.9447  0.1783 -0.0807
   59MOL    C3123347   7.032   2.127   7.962  0.1880 -0.2376  0.7258
   59MOL    H3223348   7.085   2.046   0.115 -0.4177  0.2072  2.1646
   59MOL    H3323349   6.935   2.065   0.310 -1.8903 -1.6956  0.6171
   59MOL    H3423350   6.753   2.173   0.422  0.0059  1.4829  0.4098
   59MOL    H3523351   6.517   2.246   0.452  0.8482 -0.5637 -1.3481
   59MOL    H3623352   6.482   2.408   0.481 -0.8102 -0.3334 -1.2515
   59MOL    H3723353   6.642   2.343   0.526  0.1905 -2.6661 -0.2009
   59MOL    H3823354   6.704   2.455   0.105 -1.2367 -0.9479  0.4197
   59MOL    H3923355   6.905   2.361   8.033  1.1240  2.1406  0.8058
   59MOL    H4023356   7.028   2.224   7.912  2.3142 -0.0705  0.8222
   59MOL    H4123357   7.119   2.081   7.916  0.1780  0.8392 -0.4035
   59MOL    C4223358   6.912   2.040   7.927 -1.2135  0.5377 -0.3544
   59MOL    C4323359   6.903   1.914   8.008  0.3761  0.8127 -0.4604
   59MOL    C4423360   6.996   1.808   7.989  0.1011 -0.0332  0.2690
   59MOL    C4523361   6.981   1.686   0.017  0.0469  0.9136  0.3164
   59MOL    C4623362   6.877   1.666   0.101  0.8341 -0.4777 -0.1026
   59MOL    O4723363   6.863   1.537   0.148 -0.3799  0.4555  0.7491
   59MOL    C4823364   6.751   1.502   0.225 -0.5746  0.1189  0.4110
   59MOL    C4923365   6.786   1.768   0.132  0.1695 -0.5215 -0.3681
   59MOL    C5023366   6.801   1.892   0.066 -0.0729 -0.2116  0.4448
   59MOL    C5123367   6.913   2.012   7.777  0.1334  0.4038  0.2455
   59MOL    H5223368   6.823   2.103   7.936 -0.2787  1.7153  0.9383
   59MOL    H5323369   7.072   1.819   7.913  0.5383 -0.8446  0.5847
   59MOL    H5423370   7.031   1.593   8.034 -1.4036  0.5258 -1.4195
   59MOL    H5523371   6.795   1.510   0.325  2.5210 -0.0129 -0.8765
   59MOL    H5623372   6.659   1.557   0.205  0.4963  1.4789 -0.9073
   59MOL    H5723373   6.728   1.396   0.223  1.3725 -0.2971 -1.8435
   59MOL    H5823374   6.700   1.752   0.196 -0.8130 -3.4774 -2.3427
   59MOL    H5923375   6.734   1.971   0.098 -0.8654 -1.0309  0.8087
   59MOL    H6023376   7.004   1.959   7.751  1.9245  3.2117  0.5730
   59MOL    H6123377   6.926   2.104   7.720 -0.6153  0.3860  0.0372
   59MOL    C6223378   6.786   1.940   7.720  0.5363 -0.2862  0.1839
   59MOL    C6323379   6.816   1.865   7.583 -0.1034  0.2021 -0.1904
   59MOL    C6423380   6.828   1.724   7.579  0.2310  0.0569 -0.3766
   59MOL    C6523381   6.815   1.666   7.448  0.2538  0.0701 -0.1833
   59MOL    C6623382   6.816   1.732   7.327  0.5026 -0.6233 -0.0910
   59MOL    O6723383   6.821   1.674   7.205  0.2635 -0.0635 -0.4227
   59MOL    C6823384   6.799   1.539   7.187  0.3020  0.3190 -0.0989
   59MOL    C6923385   6.810   1.872   7.334  0.3580  0.1757 -0.6057
   59MOL    C7023386   6.812   1.938   7.458 -0.0899 -0.2394  0.2333
   59MOL    C7123387   6.652   2.022   7.727 -0.5080  0.0782 -0.0469
   59MOL    H7223388   6.785   1.860   7.795  0.0205 -0.6620 -0.2141
   59MOL    H7323389   6.810   1.657   7.661  1.9897 -2.9217 -2.3566
   59MOL    H7423390   6.805   1.559   7.448 -2.4335  0.2916 -0.2841
   59MOL    H7523391   6.856   1.477   7.257  1.7723  2.3489  0.5742
   59MOL    H7623392   6.818   1.510   7.084 -1.7208 -0.0707 -0.3759
   59MOL    H7723393   6.696   1.518   7.213  0.4342 -1.4105 -0.9624
   59MOL    H7823394   6.807   1.918   7.236  1.4899  0.4069 -0.5313
   59MOL    H7923395   6.816   2.046   7.466 -1.4821 -0.3049  2.1817
   59MOL    H8023396   6.632   2.049   7.831  1.5006  1.0664  0.0936
   59MOL    H8123397   6.664   2.113   7.667  0.7704 -0.0337  0.0282
   59MOL    C8223398   6.537   1.939   7.663 -0.6505 -0.4090 -0.3084
   59MOL    C8323399   6.510   1.802   7.728  0.5864  0.0857 -0.2359
   59MOL    C8423400   6.483   1.796   7.866 -0.0322  1.0414 -0.0016
   59MOL    C8523401   6.471   1.671   7.929 -0.1922 -0.6371  0.2914
   59MOL    C8623402   6.476   1.548   7.852 -0.2908 -0.2866  0.3176
   59MOL    O8723403   6.471   1.417   7.905  0.7172  0.5001  0.1555
   59MOL    C8823404   6.528   1.400   8.037  0.2900 -0.2539  0.0939
   59MOL    C8923405   6.484   1.561   7.712 -0.3774 -0.4960 -0.1104
   59MOL    C9023406   6.496   1.687   7.656 -0.0327  0.0270  0.1251
   59MOL    C9123407   6.417   2.024   7.651 -0.3070  0.0111  0.7639
   59MOL    H9223408   6.551   1.915   7.557 -2.1092  0.8174 -0.7966
   59MOL    H9323409   6.479   1.878   7.937 -2.1271 -0.9492  2.3021
   59MOL    H9423410   6.440   1.667   8.032  0.5306 -0.2534  0.5237
   59MOL    H9523411   6.625   1.351   0.005 -0.4654 -2.0754 -1.3487
   59MOL    H9623412   6.453   1.333   0.040 -0.4928  0.2536 -0.4745
   59MOL    H9723413   6.514   1.478   0.071  0.7298  0.2885 -0.3947
   59MOL    H9823414   6.479   1.479   7.641  0.4360 -0.3935 -0.2854
   59MOL    H9923415   6.500   1.694   7.549 -1.2112 -0.4077  0.0463
   59MOL   H10023416   6.399   2.053   7.754 -3.2300  1.7051 -0.1643
   59MOL   H10123417   6.435   2.124   7.611 -0.4789 -0.8839 -1.6707
   59MOL   C10223418   6.291   1.965   7.593 -0.2225  0.3718 -0.7055
   59MOL   C10323419   6.172   2.043   7.644  0.9451 -0.4686 -0.3275
   59MOL   C10423420   6.084   1.981   7.738  1.3476  0.2337 -0.1710
   59MOL   C10523421   5.977   2.048   7.796 -0.4473 -0.1864 -0.9806
   59MOL   C10623422   5.952   2.187   7.760  0.2797  0.4326  0.8160
   59MOL   O10723423   5.861   2.267   7.816 -0.5124  0.1088 -0.2065
   59MOL   C10823424   5.806   2.233   7.943  0.6985 -0.2756  0.1097
   59MOL   C10923425   6.032   2.245   7.662  0.9349  0.0638 -0.7932
   59MOL   C11023426   6.136   2.173   7.598 -0.4082 -0.4023 -0.1889
   59MOL   C11123427   6.289   1.967   7.435 -0.3346  0.3734 -0.2799
   59MOL   H11223428   6.288   1.859   7.618  1.1309  0.6720  0.7779
   59MOL   H11323429   6.095   1.879   7.770 -0.5429  0.3692  0.9945
   59MOL   H11423430   5.908   2.000   7.864 -0.8482 -0.0674 -1.3013
   59MOL   H11523431   5.724   2.297   7.978  0.6529 -0.7728  0.9076
   59MOL   H11623432   5.749   2.141   7.930 -1.0631  0.6525  1.0801
   59MOL   H11723433   5.876   2.241   8.026  1.1394 -0.5404 -0.2318
   59MOL   H11823434   6.015   2.347   7.631 -0.1983  0.8102  2.1516
   59MOL   H11923435   6.194   2.216   7.517 -0.7638  0.4403 -0.0089
   59MOL   H12023436   6.300   2.070   7.400  1.1671  0.2346 -0.2881
   59MOL   H12123437   6.374   1.916   7.388 -2.4556 -1.2651 -2.4470
   59MOL   C12223438   6.163   1.895   7.371 -0.6277  0.0754 -0.7409
   59MOL   C12323439   6.165   1.746   7.410 -0.0396 -0.3926  0.4398
   59MOL   C12423440   6.073   1.691   7.500  0.1685 -0.1317  0.4005
   59MOL   C12523441   6.082   1.555   7.549  0.0678  0.0555  0.0245
   59MOL   C12623442   6.194   1.476   7.496 -0.2518 -0.3186 -0.8237
   59MOL   O12723443   6.232   1.363   7.554 -0.8094 -0.2675  0.3758
   59MOL   C12823444   6.168   1.321   7.671  0.3093  1.5657 -0.4992
   59MOL   C12923445   6.281   1.539   7.398 -0.1985  0.0158  0.3789
   59MOL   C13023446   6.273   1.666   7.357  0.4416  0.2572 -0.0418
   59MOL   C13123447   6.162   1.918   7.218  0.4890 -0.6671 -0.3169
   59MOL   H13223448   6.078   1.942   7.421  1.0414  2.4934 -0.1074
   59MOL   H13323449   5.997   1.752   7.548 -0.1422 -0.3296  0.1603
   59MOL   H13423450   6.016   1.522   7.627  1.4301 -1.7292  0.4570
   59MOL   H13523451   6.195   1.399   7.742 -0.3699  0.8553  0.5598
   59MOL   H13623452   6.059   1.311   7.670  0.2593  1.8398  0.7980
   59MOL   H13723453   6.218   1.233   7.712 -1.2731  1.2279  0.7436
   59MOL   H13823454   6.367   1.483   7.364 -2.3219 -4.1023  1.5404
   59MOL   H13923455   6.347   1.714   7.295 -0.0252  1.6834  0.4788
   59MOL   H14023456   6.077   1.862   7.179 -0.3458 -0.4270  1.1187
   59MOL   H14123457   6.252   1.872   7.177  1.3048  0.7952 -0.2026
   59MOL   C14223458   6.139   2.060   7.161 -0.3989  0.0200  0.4451
   59MOL   C14323459   6.202   2.075   7.024  0.4677 -0.6159  0.4169
   59MOL   C14423460   6.324   2.151   7.002 -0.5714  0.3806  0.3004
   59MOL   C14523461   6.377   2.173   6.871 -0.5681 -0.6043 -0.0124
   59MOL   C14623462   6.314   2.111   6.759 -0.1307 -0.2435 -0.8290
   59MOL   O14723463   6.371   2.143   6.637  0.0848 -0.7292  0.4652
   59MOL   C14823464   6.287   2.136   6.524 -0.0280 -0.1326  0.2844
   59MOL   C14923465   6.195   2.033   6.781  0.4093 -0.9392 -0.1621
   59MOL   C15023466   6.134   2.026   6.906 -0.0152 -0.0273  0.4707
   59MOL   C15123467   5.988   2.100   7.176 -0.2233 -0.0904  0.1183
   59MOL   H15223468   6.200   2.128   7.220  1.5750 -0.2748 -1.1781
   59MOL   H15323469   6.370   2.204   7.085 -0.9759 -1.2986  1.6237
   59MOL   H15423470   6.462   2.236   6.852 -1.2632 -0.2903 -2.1653
   59MOL   H15523471   6.293   2.042   6.468 -0.9349  0.5443 -0.9735
   59MOL   H15623472   6.181   2.147   6.549 -0.3897 -2.8597  0.2017
   59MOL   H15723473   6.316   2.213   6.453 -0.9049  0.9969  1.1485
   59MOL   H15823474   6.167   1.970   6.699  0.1224 -1.2037  0.1365
   59MOL   H15923475   6.043   1.967   6.911  0.6084 -0.9780  0.6182
   59MOL   H16023476   5.975   2.098   7.284  1.2617  2.8288  0.4160
   59MOL   H16123477   5.929   2.021   7.130  0.9770 -0.3833 -0.9634
   59MOL   C16223478   5.953   2.244   7.125  0.1013 -0.0605  0.3160
   59MOL   C16323479   6.044   2.352   7.181  0.3855 -0.1343 -0.0696
   59MOL   C16423480   6.045   2.391   7.315  0.1635  0.1320 -0.1734
   59MOL   C16523481   6.135   2.492   7.363 -0.1123  0.0529 -0.2730
   59MOL   C16623482   6.226   2.558   7.282  0.7189  0.2021 -0.4965
   59MOL   O16723483   6.301   2.656   7.332 -0.1278 -0.2916  0.1215
   59MOL   C16823484   6.375   2.730   7.239  0.1045 -0.3170  0.9545
   59MOL   C16923485   6.219   2.522   7.140  0.1488  0.1974 -0.2262
   59MOL   C17023486   6.132   2.426   7.092  0.0420  0.5290  0.4661
   59MOL   C17123487   5.808   2.280   7.159 -0.0906  0.7290 -0.0417
   59MOL   H17223488   5.964   2.242   7.017  0.7324  0.3541  0.3700
   59MOL   H17323489   5.997   2.326   7.387 -0.8159  2.0100  0.8928
   59MOL   H17423490   6.135   2.515   7.468  0.6372  1.1489 -0.5024
   59MOL   H17523491   6.316   2.793   7.172  0.2739 -0.5540  0.5839
   59MOL   H17623492   6.451   2.668   7.192 -0.9165 -0.9404  0.0942
   59MOL   H17723493   6.441   2.796   7.294  0.1923  0.2536  0.1728
   59MOL   H17823494   6.282   2.578   7.072  1.3349 -1.4402 -0.4926
   59MOL   H17923495   6.119   2.401   6.987  0.5615  2.7219 -0.1539
   59MOL   H18023496   5.791   2.278   7.266 -1.2272  0.0002 -0.2270
   59MOL   H18123497   5.746   2.196   7.128  0.3003 -0.2021  1.6321
   59MOL   C18223498   5.743   2.397   7.090  0.5449 -0.1349  0.0514
   59MOL   C18323499   5.660   2.483   7.176  0.9549 -1.1872 -0.2194
   59MOL   C18423500   5.654   2.622   7.146 -0.4034 -0.5491  0.1002
   59MOL   C18523501   5.560   2.709   7.208  0.4322  0.2056  0.0030
   59MOL   C18623502   5.461   2.655   7.299  0.3261  0.2785  0.9044
   59MOL   O18723503   5.369   2.721   7.376  0.1770  0.1519  0.2887
   59MOL   C18823504   5.341   2.846   7.334  0.0419 -0.3706  0.2197
   59MOL   C18923505   5.471   2.521   7.331 -0.3626  0.4708  0.4236
   59MOL   C19023506   5.574   2.435   7.279  0.0553 -0.4837 -0.1950
   59MOL   C19123507   5.670   2.353   6.961  0.4014 -0.2770  0.0756
   59MOL   H19223508   5.830   2.458   7.064 -1.4145  2.2998 -0.9158
   59MOL   H19323509   5.724   2.667   7.077 -0.2223  0.1631  0.7429
   59MOL   H19423510   5.568   2.813   7.180 -1.3979  0.9246  2.0212
   59MOL   H19523511   5.280   2.841   7.244 -0.4920 -0.7990  0.5999
   59MOL   H19623512   5.428   2.908   7.314  0.8287 -1.7651 -0.7255
   59MOL   H19723513   5.284   2.885   7.418 -0.9500 -0.2262 -0.5143
   59MOL   H19823514   5.404   2.479   7.405 -1.8852 -1.1160 -1.7811
   59MOL   H19923515   5.569   2.329   7.300  0.6825 -0.0406  2.4095
   59MOL   H20023516   5.592   2.280   6.984 -0.2864  0.2712 -0.4756
   59MOL   H20123517   5.604   2.437   6.938  0.3463 -0.0132  1.1820
   59MOL   C20223518   5.756   2.309   6.837 -0.7703 -0.4030  0.5643
   59MOL   C20323519   5.869   2.410   6.790  0.3035  0.0171  0.0124
   59MOL   C20423520   5.859   2.553   6.791 -1.1167 -0.0207  0.0546
   59MOL   C20523521   5.966   2.631   6.733  0.3918 -0.6937  0.7646
   59MOL   C20623522   6.083   2.573   6.687 -0.4139  0.1085 -0.6633
   59MOL   O20723523   6.172   2.662   6.632 -0.1892  0.8515  0.5574
   59MOL   C20823524   6.302   2.613   6.590 -0.0795  0.1488 -0.3066
   59MOL   C20923525   6.099   2.432   6.694 -0.0854  0.2971  0.3858
   59MOL   C21023526   5.993   2.352   6.741  0.4311 -0.3939  0.1614
   59MOL   C21123527   5.661   2.283   6.726 -0.1445  0.4036 -0.0247
   59MOL   H21223528   5.807   2.222   6.879 -2.4987 -2.3784 -1.2679
   59MOL   H21323529   5.768   2.607   6.815 -1.1607  1.3870 -3.0105
   59MOL   H21423530   5.958   2.738   6.719 -2.2058 -1.1401 -1.3836
   59MOL   H21523531   6.347   2.678   6.514  1.2866  1.8161  1.8494
   59MOL   H21623532   6.378   2.616   6.669 -0.6644  1.0261  0.2281
   59MOL   H21723533   6.299   2.508   6.561  1.8127 -0.7063  2.3783
   59MOL   H21823534   6.187   2.376   6.665  0.4321  0.4235  1.7037
   59MOL   H21923535   6.008   2.245   6.741  0.8655 -0.3384  1.6270
   59MOL   H22023536   5.642   2.377   6.674 -1.5186 -0.5261 -1.2585
   59MOL   H22123537   5.564   2.256   6.768 -0.1492  1.2916  0.5435
   59MOL   C22223538   5.694   2.164   6.631  0.3872  0.4143 -0.3509
   59MOL   C22323539   5.683   2.021   6.702 -0.1687 -0.2921 -0.7974
   59MOL   C22423540   5.551   1.967   6.735 -0.5474 -0.0285 -0.2434
   59MOL   C22523541   5.540   1.860   6.827 -0.2754 -0.4144 -0.0572
   59MOL   C22623542   5.656   1.786   6.867 -0.2523  0.3400  0.1096
   59MOL   O22723543   5.637   1.676   6.948 -0.2330  0.2320 -0.2788
   59MOL   C22823544   5.742   1.633   7.032 -1.3608  0.6743 -0.6823
   59MOL   C22923545   5.785   1.834   6.835 -0.2963 -0.0205  0.0171
   59MOL   C23023546   5.796   1.954   6.754 -0.0445  0.4522  0.2317
   59MOL   C23123547   5.626   2.154   6.491 -0.3234  0.4147  0.3582
   59MOL   H23223548   5.798   2.163   6.599  0.0602 -0.7969 -1.4004
   59MOL   H23323549   5.464   2.025   6.707 -0.8795 -0.3048  0.2058
   59MOL   H23423550   5.444   1.822   6.860 -1.4931  0.5605 -2.3588
   59MOL   H23523551   5.820   1.576   6.982  0.9233  1.7661  1.4942
   59MOL   H23623552   5.796   1.715   7.081 -1.0650 -0.9557  1.7885
   59MOL   H23723553   5.703   1.572   7.113  0.0265 -0.5208 -0.8866
   59MOL   H23823554   5.880   1.794   6.866 -0.8294  0.4112  2.3456
   59MOL   H23923555   5.896   1.987   6.731 -0.0596  0.7570  0.5920
   59MOL   H24023556   5.662   2.064   6.442  1.9831 -0.1816  3.0151
   59MOL   H24123557   5.518   2.147   6.501 -0.5223  1.8801 -0.6278
   59MOL   C24223558   5.657   2.270   6.390  0.8751 -0.6096  0.0034
   59MOL   C24323559   5.803   2.289   6.356 -0.0131  0.4058  0.0810
   59MOL   C24423560   5.860   2.190   6.274  0.5696  0.3931  0.5253
   59MOL   C24523561   5.992   2.192   6.234  0.2824  0.7857 -0.7279
   59MOL   C24623562   6.076   2.301   6.265 -0.1886 -0.3717  0.0372
   59MOL   O24723563   6.205   2.316   6.224 -0.5080  0.3441  0.4328
   59MOL   C24823564   6.250   2.226   6.120  0.3688 -0.9174 -0.2559
   59MOL   C24923565   6.012   2.401   6.350 -0.9005  0.4144  0.5106
   59MOL   C25023566   5.875   2.396   6.393  0.2512 -0.5195 -0.4258
   59MOL   C25123567   5.566   2.265   6.264 -0.1244  0.7376 -0.3074
   59MOL   H25223568   5.634   2.366   6.435  1.5606 -0.7424  0.6412
   59MOL   H25323569   5.808   2.107   6.228 -1.6627  1.4513  1.0737
   59MOL   H25423570   6.012   2.110   6.166 -1.4914 -1.5684  1.4704
   59MOL   H25523571   6.197   2.256   6.029  0.5612  2.4117  0.6375
   59MOL   H25623572   6.357   2.225   6.099  0.0298 -1.8639 -2.0272
   59MOL   H25723573   6.230   2.120   6.133 -1.8453 -0.6532 -1.2899
   59MOL   H25823574   6.080   2.484   6.367  0.3505 -0.4757 -0.0711
   59MOL   H25923575   5.828   2.468   6.459  1.2640 -1.5651  1.4728
   59MOL   H26023576   5.476   2.206   6.283 -0.7986  0.3770 -4.2390
   59MOL   H26123577   5.625   2.224   6.182  0.5920 -1.0153  1.0520
   59MOL   C26223578   5.518   2.404   6.209  0.0064 -0.4058 -0.1960
   59MOL   C26323579   5.396   2.454   6.292 -0.3019 -0.7309 -0.1174
   59MOL   C26423580   5.269   2.399   6.269 -0.5101  0.4605  0.0582
   59MOL   C26523581   5.161   2.432   6.348 -1.0249 -0.2993  0.6762
   59MOL   C26623582   5.173   2.520   6.457  0.2398 -0.7215  0.3253
   59MOL   O26723583   5.059   2.553   6.529  0.3755 -0.6206 -0.0273
   59MOL   C26823584   5.077   2.614   6.653  0.1334  0.0988  0.3044
   59MOL   C26923585   5.301   2.571   6.483 -0.3444  0.6076  0.4095
   59MOL   C27023586   5.411   2.546   6.399  1.1486  0.3382 -0.3463
   59MOL   C27123587   5.471   2.412   6.060  0.3551  0.3795  0.0851
   59MOL   H27223588   5.594   2.481   6.225 -0.2927 -0.1808  0.1443
   59MOL   H27323589   5.248   2.327   6.191 -0.4197  0.0230  0.4352
   59MOL   H27423590   5.062   2.395   6.328 -1.1450  1.1021 -1.4351
   59MOL   H27523591   5.130   2.708   6.640 -1.2849  0.8841  0.0826
   59MOL   H27623592   5.115   2.539   6.723 -2.3956  0.9439  2.6638
   59MOL   H27723593   4.984   2.650   6.698  0.6847  1.4259  0.4032
   59MOL   H27823594   5.312   2.649   6.557 -3.5357  1.8139 -0.3107
   59MOL   H27923595   5.512   2.577   6.425  0.7237 -0.5539  2.5766
   59MOL   H28023596   5.398   2.334   6.037  0.1401  0.2116  1.3217
   59MOL   H28123597   5.420   2.508   6.045 -0.7845  0.1460  2.3149
   59MOL   C28223598   5.591   2.410   5.965  0.3672  0.5923  0.2299
   59MOL   C28323599   5.709   2.503   6.003  1.1794 -0.2916 -0.1016
   59MOL   C28423600   5.680   2.640   6.036  0.2577 -0.0106  0.3438
   59MOL   C28523601   5.780   2.727   6.079 -0.0539 -0.2682 -0.1207
   59MOL   C28623602   5.906   2.680   6.102  0.0401  0.2013 -0.0844
   59MOL   O28723603   5.999   2.775   6.140  0.2644 -0.9344 -0.2457
   59MOL   C28823604   6.127   2.743   6.186  0.1368 -0.1794  0.4734
   59MOL   C28923605   5.937   2.546   6.073 -0.6370  0.8719  0.0142
   59MOL   C29023606   5.841   2.454   6.025  0.9675  0.5487 -0.0459
   59MOL   C29123607   5.542   2.433   5.821 -0.5422 -0.2974  0.2091
   59MOL   H29223608   5.621   2.305   5.972 -4.0877 -0.7114  1.6724
   59MOL   H29323609   5.578   2.675   6.030  0.3399  0.7715  2.8956
   59MOL   H29423610   5.758   2.828   6.108  0.2092 -0.3857  0.5166
   59MOL   H29523611   6.184   2.836   6.193  0.5476 -0.4102  0.2788
   59MOL   H29623612   6.125   2.682   6.276  1.2098 -1.8348 -0.5767
   59MOL   H29723613   6.176   2.689   6.104  0.5289  1.5515 -0.4613
   59MOL   H29823614   6.041   2.521   6.089 -0.8374  0.4302  0.6932
   59MOL   H29923615   5.865   2.349   6.010  0.3435  0.1964  1.2803
   59MOL   H30023616   5.471   2.515   5.823  0.9431  0.9967  0.9014
   59MOL   H30123617   5.629   2.467   5.765 -0.1029 -1.6233  0.0525
   59MOL   C30223618   5.509   2.310   5.739  0.0635 -0.2574  0.1904
   59MOL   C30323619   5.411   2.336   5.625  0.4079  0.0793  0.2900
   59MOL   C30423620   5.447   2.399   5.503 -1.0760  0.4164  0.1685
   59MOL   C30523621   5.354   2.426   5.403  0.0120  0.5434  0.5369
   59MOL   C30623622   5.219   2.377   5.418  1.2836  0.3892  0.2477
   59MOL   O30723623   5.125   2.392   5.312 -0.9391  0.7926 -0.3265
   59MOL   C30823624   4.984   2.351   5.334 -0.2046  0.0566 -0.0618
   59MOL   C30923625   5.184   2.315   5.540  0.1526  0.7114 -0.4861
   59MOL   C31023626   5.277   2.301   5.645  0.0150  0.3904  0.0212
   59MOL   C31123627   5.632   2.230   5.699 -0.1032 -0.4149 -0.5334
   59MOL   H31223628   5.450   2.250   5.809 -2.0575  2.0856  0.5010
   59MOL   H31323629   5.547   2.437   5.493 -0.3434 -1.3499  0.5817
   59MOL   H31423630   5.387   2.470   5.310  2.7974  0.4232  1.4258
   59MOL   H31523631   4.924   2.400   5.258 -1.5973 -1.8329 -0.1985
   59MOL   H31623632   4.960   2.382   5.436 -0.9628 -0.4732 -0.0770
   59MOL   H31723633   4.958   2.245   5.328 -2.3210  0.5324  0.3335
   59MOL   H31823634   5.086   2.279   5.569  0.0560  0.0386 -1.6262
   59MOL   H31923635   5.243   2.251   5.734  1.8878 -0.2061  0.4444
   59MOL   H32023636   5.710   2.259   5.769 -1.8802  1.5435  0.6796
   59MOL   H32123637   5.665   2.265   5.601 -0.0376  0.7368 -0.1029
   59MOL   C32223638   5.603   2.080   5.677  0.3368 -0.5207  0.2320
   59MOL   C32323639   5.585   1.999   5.810 -0.1233  0.5052 -0.0607
   59MOL   C32423640   5.665   2.025   5.925 -0.3057 -0.0359 -0.5844
   59MOL   C32523641   5.661   1.939   6.033 -0.1812 -0.0005 -0.4001
   59MOL   C32623642   5.592   1.820   6.027 -0.0922  0.1566  0.6547
   59MOL   O32723643   5.611   1.728   6.130 -0.0550 -0.7126 -0.0468
   59MOL   C32823644   5.554   1.598   6.114 -0.2748  0.3466 -0.6266
   59MOL   C32923645   5.514   1.796   5.916  0.4620  0.6239 -0.2460
   59MOL   C33023646   5.501   1.883   5.806 -0.2491  0.5102  0.3320
   59MOL   C33123647   5.720   2.025   5.595  1.0130 -0.6056  0.5257
   59MOL   H33223648   5.514   2.064   5.616  0.7869  1.1053 -0.8790
   59MOL   H33323649   5.737   2.106   5.928 -1.2992  0.8503 -0.2954
   59MOL   H33423650   5.727   1.956   6.116 -2.0943 -0.6597  1.3087
   59MOL   H33523651   5.580   1.557   6.016  0.7873  0.2966 -0.3395
   59MOL   H33623652   5.446   1.605   6.123 -0.3120  1.0585 -1.6105
   59MOL   H33723653   5.591   1.536   6.197  1.3810 -0.1573 -1.7030
   59MOL   H33823654   5.449   1.710   5.905  2.2044 -0.8974  1.1268
   59MOL   H33923655   5.439   1.848   5.725 -2.5429  2.4569  1.1731
   59MOL   H34023656   5.815   2.063   5.633  1.2506 -0.8999  0.2317
   59MOL   H34123657   5.727   1.918   5.616 -2.8413 -1.4853 -2.0809
   59MOL   C34223658   5.699   2.046   5.444 -0.0472  0.3725  0.0051
   59MOL   C34323659   5.586   1.962   5.385  0.4225 -0.1834  0.6462
   59MOL   C34423660   5.596   1.822   5.360  0.0781 -0.0851 -0.8779
   59MOL   C34523661   5.492   1.755   5.302  0.7578 -1.0833 -0.3291
   59MOL   C34623662   5.374   1.825   5.266  0.3901  0.6775 -0.2203
   59MOL   O34723663   5.263   1.758   5.210 -0.3095  0.2291 -0.5435
   59MOL   C34823664   5.290   1.630   5.148  0.0099  1.0191  0.3583
   59MOL   C34923665   5.363   1.962   5.289  0.2409  0.2363  0.4930
   59MOL   C35023666   5.466   2.025   5.349  0.1011 -0.0589  0.4384
   59MOL   C35123667   5.835   2.024   5.365  0.1280  0.2367  0.1525
   59MOL   H35223668   5.670   2.149   5.424 -1.0056  0.0975 -0.0580
   59MOL   H35323669   5.682   1.765   5.390 -1.1743 -2.1660 -1.1107
   59MOL   H35423670   5.501   1.650   5.281 -2.2103 -1.4596  0.1936
   59MOL   H35523671   5.195   1.607   5.100  0.5925 -0.7052 -0.0140
   59MOL   H35623672   5.370   1.632   5.073 -0.2103  1.6000  0.1379
   59MOL   H35723673   5.295   1.551   5.223  0.9232 -0.7918 -1.5415
   59MOL   H35823674   5.288   2.026   5.244  0.4516 -0.4796 -0.9256
   59MOL   H35923675   5.450   2.128   5.377  2.2307  0.1473  0.9945
   59MOL   H36023676   5.872   1.922   5.377 -1.9752 -0.5258  0.4676
   59MOL   H36123677   5.798   2.033   5.263 -2.2802  2.9750  1.1941
   59MOL   C36223678   5.939   2.133   5.390 -0.1741  0.1747  0.1086
   59MOL   C36323679   5.884   2.284   5.388 -0.0938  0.2923  0.1665
   59MOL   C36423680   5.803   2.331   5.279  0.2557  0.6821  0.6221
   59MOL   C36523681   5.745   2.458   5.289 -0.0557 -0.0894 -0.0277
   59MOL   C36623682   5.761   2.549   5.398  0.8262 -0.6126 -0.0943
   59MOL   O36723683   5.707   2.673   5.397 -0.0337 -0.8518  1.0456
   59MOL   C36823684   5.645   2.724   5.513 -0.0757 -0.6570 -0.0548
   59MOL   C36923685   5.837   2.497   5.504  0.5219 -0.9258 -0.3657
   59MOL   C37023686   5.901   2.372   5.501 -0.0935 -0.0523 -0.5495
   59MOL   C37123687   6.070   2.115   5.315  0.1600  0.2396 -0.1166
   59MOL   H37223688   5.957   2.117   5.496 -0.6036  1.4448  0.3833
   59MOL   H37323689   5.769   2.263   5.202 -2.0808  2.4107  0.0954
   59MOL   H37423690   5.679   2.480   5.207 -0.8973 -1.7489  0.1691
   59MOL   H37523691   5.549   2.671   5.520 -1.3428  1.7944  1.9117
   59MOL   H37623692   5.714   2.714   5.597 -0.6198  3.9873  1.0980
   59MOL   H37723693   5.620   2.829   5.506  0.1369 -0.4774  1.6378
   59MOL   H37823694   5.856   2.559   5.591  0.0972  0.1687 -1.0455
   59MOL   H37923695   5.960   2.329   5.580  0.0942  0.3207 -0.4903
   59MOL   H38023696   6.057   2.119   5.207  1.5368  2.4796 -0.2167
   59MOL   H38123697   6.133   2.201   5.339  0.9436 -0.1367 -0.8077
   59MOL   C38223698   6.145   1.991   5.359 -0.2150  0.5411 -0.5359
   59MOL   C38323699   6.160   1.971   5.513  0.6745 -0.9766 -0.8205
   59MOL   C38423700   6.082   1.873   5.569 -0.1815  0.9345  0.3408
   59MOL   C38523701   6.072   1.841   5.704 -0.2263  0.8554 -0.3270
   59MOL   C38623702   6.155   1.915   5.793  0.6739 -0.0470  0.1855
   59MOL   O38723703   6.157   1.906   5.921 -0.4981  0.1999  0.1880
   59MOL   C38823704   6.066   1.827   5.991  0.2775  0.2369  0.6793
   59MOL   C38923705   6.237   2.024   5.739  0.1013  0.5775  0.8422
   59MOL   C39023706   6.238   2.050   5.599 -0.3000 -0.3749  0.3053
   59MOL   C39123707   6.288   1.982   5.292 -0.0628 -0.7535  0.6182
   59MOL   H39223708   6.090   1.907   5.318  1.2063 -2.1003  2.7040
   59MOL   H39323709   6.020   1.817   5.501 -0.7250  1.3926  0.4499
   59MOL   H39423710   6.014   1.755   5.736  0.4545  1.0735  1.4968
   59MOL   H39523711   6.055   1.871   6.090  0.9441  3.7439 -0.7361
   59MOL   H39623712   6.101   1.724   6.001 -0.5517 -0.4204 -2.4806
   59MOL   H39723713   5.964   1.841   5.956  0.0335  0.4857  1.4764
   59MOL   H39823714   6.298   2.076   5.812 -0.8641 -0.6703  2.5823
   59MOL   H39923715   6.289   2.131   5.548 -1.6816  1.0414  1.1450
   59MOL   H40023716   6.292   2.015   5.188 -0.3676 -0.2905  0.7551
   59MOL   H40123717   6.352   1.894   5.304 -0.9768 -1.4498  0.4601
   59MOL   H40223718   6.350   2.058   5.339  1.3958 -2.8231  2.1305
   60MOL     C123719   5.017   0.310   2.496  0.1261  0.3690 -0.1643
   60MOL     C223720   5.143   0.248   2.446 -0.3766  0.2618 -0.0690
   60MOL     C323721   5.267   0.270   2.515 -0.2072  0.1585 -0.0524
   60MOL     C423722   5.382   0.198   2.486 -0.2202 -0.2344  0.8302
   60MOL     C523723   5.381   0.108   2.374  0.2112  0.1544 -0.3296
   60MOL     O623724   5.508   0.062   2.336  0.4561  0.0961  0.0318
   60MOL     C723725   5.541   8.038   2.213  0.6474 -0.2502  0.2134
   60MOL     C823726   5.257   0.076   2.312 -0.3229  0.1834 -1.0795
   60MOL     C923727   5.141   0.145   2.345 -0.0851  0.3639  0.1777
   60MOL    C1023728   4.965   0.229   2.614  0.1940  0.0745  0.0423
   60MOL    H1123729   4.953   0.313   2.408  0.0706  0.6024 -0.1169
   60MOL    H1223730   5.275   0.348   2.589 -1.6081 -0.6916  1.0295
   60MOL    H1323731   5.474   0.230   2.532  0.2542  0.2623 -0.4480
   60MOL    H1423732   5.593   0.066   2.145 -2.3752  0.3846 -1.5776
   60MOL    H1523733   5.604   7.952   2.234  0.5881 -0.2633  0.3419
   60MOL    H1623734   5.452   8.011   2.155  0.4753 -1.4729  1.0278
   60MOL    H1723735   5.253   0.002   2.232 -2.4467  0.3765 -1.1683
   60MOL    H1823736   5.045   0.108   2.311  0.6138 -0.2442 -1.1791
   60MOL    H1923737   4.963   0.120   2.608  0.8956 -0.0088  1.2460
   60MOL    H2023738   5.045   0.231   2.688  0.8103  1.4361 -0.6450
   60MOL    H2123739   5.048   0.410   2.528  0.3341 -0.2436  1.5890
   60MOL    C2223740   4.832   0.279   2.684  0.1702 -0.8713  0.1331
   60MOL    C2323741   4.794   0.184   2.802  0.7386 -0.0937  0.2859
   60MOL    C2423742   4.884   0.153   2.914 -0.9296 -0.7399  0.0165
   60MOL    C2523743   4.842   0.080   3.033  0.3667  0.0490  0.1224
   60MOL    C2623744   4.709   0.032   3.029 -0.4992  0.6050 -0.9402
   60MOL    O2723745   4.667   7.986   3.124 -0.1829 -0.1377  0.4826
   60MOL    C2823746   4.763   7.913   3.200 -0.5535 -0.1840  0.7065
   60MOL    C2923747   4.622   0.055   2.923  0.4015 -0.5709 -1.2409
   60MOL    C3023748   4.659   0.133   2.817 -0.2017 -0.4396  0.3150
   60MOL    C3123749   4.840   0.426   2.729  1.0512 -0.1759 -0.4353
   60MOL    H3223750   4.748   0.275   2.616 -1.2908 -0.4873  1.8805
   60MOL    H3323751   4.986   0.188   2.914 -0.7130 -1.3696 -0.0782
   60MOL    H3423752   4.915   0.064   3.111 -0.7351 -0.1966  1.1173
   60MOL    H3523753   4.834   7.975   3.254  0.9499  1.1869 -2.6642
   60MOL    H3623754   4.828   7.861   3.129  0.3228  0.1291  1.2832
   60MOL    H3723755   4.707   7.846   3.265 -0.7060  0.7635  1.5477
   60MOL    H3823756   4.524   0.010   2.918  1.0755 -2.3088  0.7776
   60MOL    H3923757   4.589   0.153   2.737 -1.3953 -0.1057  1.4104
   60MOL    H4023758   4.927   0.413   2.794  0.7564  1.5026  0.3092
   60MOL    H4123759   4.886   0.489   2.653  2.1736 -2.0880 -1.3591
   60MOL    C4223760   4.729   0.489   2.818 -0.3708 -0.2063 -0.5227
   60MOL    C4323761   4.626   0.565   2.738 -0.6109 -0.4199 -0.1186
   60MOL    C4423762   4.497   0.520   2.728  0.8074  0.1746  0.6946
   60MOL    C4523763   4.402   0.588   2.646  1.4293 -0.7302  0.4903
   60MOL    C4623764   4.429   0.704   2.577  0.4356  0.2759 -0.0324
   60MOL    O4723765   4.340   0.783   2.508  0.2718  0.3061  0.2428
   60MOL    C4823766   4.201   0.734   2.508  0.4031 -0.2294  0.2653
   60MOL    C4923767   4.566   0.747   2.583  0.4892  0.2020  0.6458
   60MOL    C5023768   4.662   0.681   2.664  0.0416 -0.3050 -0.7405
   60MOL    C5123769   4.792   0.581   2.930 -0.0445  0.4776 -0.2909
   60MOL    H5223770   4.677   0.405   2.865  2.0045 -1.6572 -0.4305
   60MOL    H5323771   4.459   0.424   2.762  1.9208 -0.6014 -0.2202
   60MOL    H5423772   4.304   0.542   2.640  1.0296 -0.3185  2.8873
   60MOL    H5523773   4.149   0.801   2.439 -0.3163 -1.7879 -0.7243
   60MOL    H5623774   4.202   0.629   2.481  0.1571 -0.1604 -0.0186
   60MOL    H5723775   4.153   0.749   2.605 -1.4025 -3.4343 -0.0616
   60MOL    H5823776   4.599   0.841   2.542  0.2910 -0.2885 -0.6678
   60MOL    H5923777   4.759   0.728   2.675 -0.4946  0.6573 -0.0880
   60MOL    H6023778   4.842   0.664   2.881 -1.0198  0.7898 -0.7532
   60MOL    H6123779   4.867   0.518   2.978  0.7245  2.2342  0.8269
   60MOL    C6223780   4.682   0.627   3.033 -0.5341 -1.2760 -0.1989
   60MOL    C6323781   4.713   0.765   3.084  0.1923  0.2105  0.1574
   60MOL    C6423782   4.618   0.873   3.062  0.1073  0.4736 -0.0611
   60MOL    C6523783   4.651   1.000   3.109 -1.0678 -0.6372 -0.1124
   60MOL    C6623784   4.770   1.030   3.183 -0.1782  0.6884  0.4659
   60MOL    O6723785   4.810   1.152   3.226  0.1453 -0.6550 -0.0932
   60MOL    C6823786   4.720   1.263   3.197  0.0375  0.0070 -0.2465
   60MOL    C6923787   4.854   0.917   3.209  0.4834  0.0158  0.6888
   60MOL    C7023788   4.833   0.794   3.150 -0.0554  0.0117  0.4179
   60MOL    C7123789   4.655   0.520   3.134  0.3299  0.3411 -0.9102
   60MOL    H7223790   4.590   0.643   2.976  0.4624  1.5171 -1.1157
   60MOL    H7323791   4.524   0.856   3.013  0.8396 -3.4360 -0.2194
   60MOL    H7423792   4.570   1.071   3.098 -2.0022 -1.4146  1.4423
   60MOL    H7523793   4.761   1.357   3.234 -1.3743  0.0095  1.3856
   60MOL    H7623794   4.631   1.240   3.255  1.2743 -0.0933  1.6517
   60MOL    H7723795   4.696   1.269   3.091  2.0513  0.4106 -0.7037
   60MOL    H7823796   4.952   0.930   3.253  0.5951  0.0088  0.4377
   60MOL    H7923797   4.904   0.716   3.171  1.0820  0.3633 -1.9130
   60MOL    H8023798   4.671   0.422   3.090 -1.1481 -1.1926  1.8672
   60MOL    H8123799   4.727   0.530   3.216 -0.7277  0.4466  0.0125
   60MOL    C8223800   4.509   0.541   3.193 -0.4878 -0.6764 -0.1882
   60MOL    C8323801   4.413   0.454   3.118  0.2698 -0.1784  0.5088
   60MOL    C8423802   4.316   0.516   3.032  0.1649  0.6330 -0.0278
   60MOL    C8523803   4.212   0.436   2.968 -0.5431  0.0303  0.7224
   60MOL    C8623804   4.191   0.304   2.999 -0.5329 -0.0091 -0.3380
   60MOL    O8723805   4.074   0.243   2.953 -0.6474 -0.0980  0.2893
   60MOL    C8823806   4.043   0.110   2.988  0.3282  0.6022 -0.1176
   60MOL    C8923807   4.300   0.243   3.070 -1.0224 -0.3621 -0.1369
   60MOL    C9023808   4.410   0.319   3.125 -0.2993 -0.0148 -0.3296
   60MOL    C9123809   4.507   0.516   3.342  0.2999  0.0752  0.5871
   60MOL    H9223810   4.468   0.640   3.177  2.1359  0.5969  0.7959
   60MOL    H9323811   4.327   0.621   3.009  2.4311  0.5994  0.8429
   60MOL    H9423812   4.137   0.482   2.905  0.0983 -0.3631 -0.3345
   60MOL    H9523813   3.998   0.102   3.088  1.4265 -0.6435  0.3006
   60MOL    H9623814   4.132   0.048   2.993  0.7159  1.1356 -0.4822
   60MOL    H9723815   3.977   0.066   2.913  0.1017  1.9876 -0.7467
   60MOL    H9823816   4.298   0.135   3.079 -2.9543 -0.3578 -0.3177
   60MOL    H9923817   4.487   0.266   3.178  1.4174  1.7230 -0.9932
   60MOL   H10023818   4.408   0.492   3.380 -0.2632 -0.5270 -1.1793
   60MOL   H10123819   4.552   0.417   3.357 -0.4085  0.0681  2.8296
   60MOL   C10223820   4.558   0.631   3.428 -0.4820 -0.4969  0.3245
   60MOL   C10323821   4.463   0.753   3.435 -0.6972 -0.1651 -0.1219
   60MOL   C10423822   4.513   0.882   3.405 -0.0261 -0.4255 -0.3417
   60MOL   C10523823   4.420   0.983   3.392  0.4942  0.4003 -0.1009
   60MOL   C10623824   4.282   0.962   3.414  0.2933  1.0954  0.2117
   60MOL   O10723825   4.203   1.078   3.414  0.2616 -0.2262  0.1386
   60MOL   C10823826   4.098   1.067   3.325  0.0705 -0.2661 -0.4110
   60MOL   C10923827   4.228   0.839   3.462 -0.7051 -0.3700  0.2146
   60MOL   C11023828   4.324   0.727   3.460 -0.5843 -0.4256 -0.0809
   60MOL   C11123829   4.598   0.580   3.565 -0.2938  0.2577  0.2127
   60MOL   H11223830   4.651   0.667   3.384 -0.0328 -1.6331  0.3251
   60MOL   H11323831   4.618   0.903   3.394  0.0793 -1.7962 -2.2309
   60MOL   H11423832   4.448   1.083   3.365 -0.7595  0.7281 -0.2150
   60MOL   H11523833   4.093   1.151   3.256  0.7819 -0.5090 -0.7696
   60MOL   H11623834   4.093   0.981   3.258 -5.0848 -1.4072  1.1957
   60MOL   H11723835   4.005   1.063   3.381  0.1928 -1.2402 -0.2677
   60MOL   H11823836   4.124   0.829   3.489 -0.9057 -0.5997 -0.6164
   60MOL   H11923837   4.292   0.628   3.489  2.4945 -1.1549  0.9545
   60MOL   H12023838   4.506   0.535   3.603 -1.0497  0.1998 -1.6436
   60MOL   H12123839   4.663   0.494   3.549 -0.5685  0.0008  0.4718
   60MOL   C12223840   4.657   0.678   3.662  0.0735  0.4358 -0.6589
   60MOL   C12323841   4.789   0.741   3.621 -0.5099 -0.2367 -0.3083
   60MOL   C12423842   4.800   0.878   3.590 -0.0148  0.1440 -1.2791
   60MOL   C12523843   4.924   0.936   3.549 -0.6811 -0.3889 -0.8666
   60MOL   C12623844   5.039   0.856   3.554  0.6733 -0.0447 -0.5718
   60MOL   O12723845   5.161   0.907   3.522 -0.2304 -0.0663 -0.4583
   60MOL   C12823846   5.172   1.044   3.488  0.5051 -0.0280  0.1918
   60MOL   C12923847   5.029   0.718   3.587  0.1771  0.8348  0.2948
   60MOL   C13023848   4.906   0.664   3.616 -0.5095  0.2459  0.2909
   60MOL   C13123849   4.651   0.608   3.803  0.1814 -0.4997  0.6893
   60MOL   H13223850   4.579   0.754   3.666  0.2400  0.7364 -2.5773
   60MOL   H13323851   4.715   0.945   3.581  0.7392  1.1289 -1.1389
   60MOL   H13423852   4.932   1.031   3.498  1.1064 -0.6211 -1.0298
   60MOL   H13523853   5.125   1.075   3.395 -0.2229 -0.6926  0.3311
   60MOL   H13623854   5.148   1.110   3.571 -1.0333 -0.4799  0.1102
   60MOL   H13723855   5.279   1.058   3.472  0.7548 -2.5200 -0.5528
   60MOL   H13823856   5.118   0.658   3.589 -0.0054  0.4839 -1.6621
   60MOL   H13923857   4.903   0.562   3.653  1.2831 -0.4436 -1.3849
   60MOL   H14023858   4.739   0.547   3.822 -0.3681 -1.2480  0.8661
   60MOL   H14123859   4.562   0.545   3.803  2.0713 -3.2698 -0.8225
   60MOL   C14223860   4.644   0.720   3.913 -0.1186  0.9686 -0.2901
   60MOL   C14323861   4.526   0.823   3.899  0.4092 -0.2127 -0.5166
   60MOL   C14423862   4.392   0.777   3.891  0.7633  0.0732  0.6549
   60MOL   C14523863   4.284   0.858   3.879 -0.5023 -0.1856  0.1164
   60MOL   C14623864   4.307   0.999   3.883  0.3448 -0.0854  0.0688
   60MOL   O14723865   4.199   1.074   3.864  0.0180 -0.2202 -0.0634
   60MOL   C14823866   4.182   1.108   3.727 -0.1705 -0.4366 -0.2170
   60MOL   C14923867   4.434   1.051   3.896  0.0063  0.4410  0.7563
   60MOL   C15023868   4.540   0.960   3.909 -0.0493 -0.2588 -0.4723
   60MOL   C15123869   4.643   0.673   4.059 -0.4151  0.1075 -0.1803
   60MOL   H15223870   4.738   0.776   3.907 -0.0496  1.2540  2.7410
   60MOL   H15323871   4.377   0.670   3.889 -0.9198  0.3114 -0.2981
   60MOL   H15423872   4.185   0.820   3.862 -0.4929 -0.6940  1.1762
   60MOL   H15523873   4.278   1.110   3.676 -0.0585  2.9613  0.0343
   60MOL   H15623874   4.122   1.025   3.689  1.3640 -1.6703 -0.0280
   60MOL   H15723875   4.130   1.203   3.725  0.4490 -0.0689  0.7653
   60MOL   H15823876   4.445   1.158   3.896  0.2758  0.4307 -1.1841
   60MOL   H15923877   4.639   0.999   3.930 -0.4715  0.6623 -0.1448
   60MOL   H16023878   4.734   0.614   4.068 -0.8823 -0.6322 -0.2313
   60MOL   H16123879   4.569   0.594   4.074 -1.5443  1.5522  2.1319
   60MOL   C16223880   4.638   0.770   4.174  0.2583 -0.5671  0.5947
   60MOL   C16323881   4.751   0.747   4.272  0.2129 -0.2055 -0.3709
   60MOL   C16423882   4.758   0.630   4.353  0.1326 -0.3452  0.6373
   60MOL   C16523883   4.869   0.609   4.438  0.8069 -0.2441 -0.0061
   60MOL   C16623884   4.970   0.704   4.451 -0.1424  0.0033  0.0089
   60MOL   O16723885   5.077   0.677   4.530 -0.0553 -0.2916 -0.2528
   60MOL   C16823886   5.059   0.598   4.654 -0.5560  0.1556 -0.1415
   60MOL   C16923887   4.973   0.825   4.377  0.2104 -0.0071  0.3639
   60MOL   C17023888   4.856   0.845   4.293 -0.1818  0.6766 -0.2721
   60MOL   C17123889   4.497   0.749   4.251 -0.3026 -0.8231 -0.2620
   60MOL   H17223890   4.638   0.877   4.152  3.1585 -0.7505 -0.5144
   60MOL   H17323891   4.690   0.546   4.344  1.2066 -1.2116  0.5847
   60MOL   H17423892   4.874   0.521   4.501 -1.3527  1.0388  2.0644
   60MOL   H17523893   5.045   0.491   4.644 -2.6027  0.3335  0.4818
   60MOL   H17623894   4.985   0.643   4.721  0.8576  2.6139 -0.1552
   60MOL   H17723895   5.148   0.597   4.717 -0.3162 -0.3176 -0.4865
   60MOL   H17823896   5.048   0.901   4.383 -0.4364  0.5664  1.2344
   60MOL   H17923897   4.842   0.930   4.228  0.4393  0.4253 -0.7410
   60MOL   H18023898   4.511   0.649   4.290 -1.7971 -1.6678 -1.8135
   60MOL   H18123899   4.414   0.735   4.182 -0.9338 -1.2764  0.5912
   60MOL   C18223900   4.453   0.868   4.344 -0.4270 -0.3320 -0.5744
   60MOL   C18323901   4.332   0.817   4.421 -0.1466  0.2999  0.2137
   60MOL   C18423902   4.342   0.808   4.562 -0.3276 -0.0787  0.5846
   60MOL   C18523903   4.228   0.775   4.640 -0.6772  0.2580  0.0345
   60MOL   C18623904   4.116   0.729   4.580 -0.3659  0.2429 -0.4691
   60MOL   O18723905   4.019   0.673   4.660  0.5737 -0.0443  0.1049
   60MOL   C18823906   3.910   0.612   4.605 -0.3922  0.5667  0.1715
   60MOL   C18923907   4.098   0.757   4.441  0.2344  0.3430 -0.6733
   60MOL   C19023908   4.205   0.803   4.363 -0.7960  0.6322  0.0509
   60MOL   C19123909   4.422   1.004   4.275 -0.1171  0.7416 -0.4683
   60MOL   H19223910   4.535   0.877   4.416 -0.0225  3.3183 -1.3908
   60MOL   H19323911   4.436   0.838   4.607  1.4403 -1.2940 -2.1340
   60MOL   H19423912   4.240   0.770   4.747  0.1693  4.1381  0.2021
   60MOL   H19523913   3.841   0.676   4.550 -1.0287 -1.9016 -1.9759
   60MOL   H19623914   3.861   0.565   4.691 -0.8821 -1.0453 -0.9686
   60MOL   H19723915   3.947   0.537   4.536  1.6201  0.7834  0.9744
   60MOL   H19823916   4.002   0.749   4.393  0.1353 -1.4614 -0.1864
   60MOL   H19923917   4.188   0.825   4.259 -0.6573 -0.1881 -0.1525
   60MOL   H20023918   4.517   1.042   4.237 -0.5533 -0.6162 -3.0920
   60MOL   H20123919   4.368   0.976   4.184  1.1179 -2.7022 -0.2470
   60MOL   C20223920   4.370   1.119   4.368 -0.4294 -0.2190 -0.3431
   60MOL   C20323921   4.308   1.232   4.285 -0.0146 -0.5568  0.0575
   60MOL   C20423922   4.176   1.272   4.316 -0.5346 -1.1104 -0.2030
   60MOL   C20523923   4.115   1.384   4.255 -0.0593 -0.2716  0.3813
   60MOL   C20623924   4.189   1.454   4.156 -0.3284  0.3616 -0.1368
   60MOL   O20723925   4.128   1.561   4.098 -0.2960  0.0216 -0.0703
   60MOL   C20823926   4.195   1.647   4.006 -0.0847  0.6610  0.2323
   60MOL   C20923927   4.325   1.413   4.126 -0.5679 -0.1068  0.1106
   60MOL   C21023928   4.379   1.302   4.189 -0.0818 -0.0847  0.3075
   60MOL   C21123929   4.476   1.181   4.460 -0.5175 -0.9148  0.0427
   60MOL   H21223930   4.290   1.068   4.421  0.8174 -0.9389  0.9024
   60MOL   H21323931   4.118   1.222   4.392  1.5466  1.2671  3.0524
   60MOL   H21423932   4.011   1.406   4.274  0.2427  0.8369  0.7948
   60MOL   H21523933   4.295   1.677   4.036  0.1298  0.8698 -0.6678
   60MOL   H21623934   4.213   1.590   3.914 -2.8911  0.1802 -0.0712
   60MOL   H21723935   4.129   1.733   3.989 -0.5470  0.4271  0.8393
   60MOL   H21823936   4.385   1.461   4.051 -0.2926 -2.3471 -1.1389
   60MOL   H21923937   4.484   1.282   4.168  0.6807  1.9980  1.9530
   60MOL   H22023938   4.548   1.223   4.390 -0.6796 -0.9284 -0.1294
   60MOL   H22123939   4.521   1.095   4.511  1.4184  0.0706  0.0452
   60MOL   C22223940   4.431   1.273   4.576  0.6509  0.0837 -0.0780
   60MOL   C22323941   4.386   1.190   4.696  0.4042  0.0220 -0.2698
   60MOL   C22423942   4.475   1.112   4.772  0.4430  0.2766  0.4146
   60MOL   C22523943   4.435   1.049   4.886 -0.2616  0.0066 -0.1328
   60MOL   C22623944   4.294   1.058   4.927  0.1104 -0.4897 -0.1611
   60MOL   O22723945   4.247   0.995   5.037 -0.3802  0.3895 -0.4232
   60MOL   C22823946   4.317   0.888   5.092 -0.9028  0.1269 -0.4269
   60MOL   C22923947   4.202   1.122   4.842  0.3137  0.3860 -0.1075
   60MOL   C23023948   4.249   1.187   4.728 -0.3000 -0.1844  0.5329
   60MOL   C23123949   4.537   1.375   4.616  1.1292  0.9203 -0.0105
   60MOL   H23223950   4.354   1.342   4.540  2.0057  2.2921  1.1234
   60MOL   H23323951   4.579   1.093   4.750 -0.6316 -3.5075 -1.9419
   60MOL   H23423952   4.510   0.992   4.938 -0.9933 -2.5049 -1.7529
   60MOL   H23523953   4.247   0.830   5.153 -0.3602  0.2148  0.2853
   60MOL   H23623954   4.333   0.813   5.015 -2.7080 -0.9239  0.1714
   60MOL   H23723955   4.406   0.924   5.143 -1.4051  1.3860 -0.4195
   60MOL   H23823956   4.096   1.113   4.856  0.3510  1.3367  0.8436
   60MOL   H23923957   4.176   1.215   4.654 -0.6236  0.6021  1.1410
   60MOL   H24023958   4.620   1.312   4.648 -0.0095  1.5047  4.5160
   60MOL   H24123959   4.572   1.434   4.531 -0.1480  1.2176 -0.3481
   60MOL   C24223960   4.503   1.469   4.735 -0.4474  0.2830  0.0646
   60MOL   C24323961   4.627   1.482   4.823 -0.1438 -0.0884 -0.1053
   60MOL   C24423962   4.627   1.432   4.951  0.1765  0.0365  0.3800
   60MOL   C24523963   4.745   1.428   5.031  0.2428  0.8295  0.1052
   60MOL   C24623964   4.867   1.479   4.971 -0.5690 -0.4933  0.1021
   60MOL   O24723965   4.993   1.475   5.028 -0.0516 -0.1023  0.1157
   60MOL   C24823966   5.015   1.362   5.108 -0.0548 -0.0289 -0.1265
   60MOL   C24923967   4.859   1.535   4.844 -0.0137  0.1621 -0.8237
   60MOL   C25023968   4.743   1.544   4.774 -0.3640 -0.4668 -0.2371
   60MOL   C25123969   4.455   1.613   4.692  0.0201 -0.4384 -0.4141
   60MOL   H25223970   4.429   1.424   4.801 -0.4022 -0.4759 -0.3918
   60MOL   H25323971   4.534   1.388   4.984 -1.0007  2.2164  0.1167
   60MOL   H25423972   4.752   1.378   5.126  1.2922 -0.0330 -0.4133
   60MOL   H25523973   4.961   1.348   5.202 -0.0197  2.4883  0.3062
   60MOL   H25623974   5.000   1.265   5.060  1.4897 -0.4593  0.2002
   60MOL   H25723975   5.121   1.360   5.133 -1.1768  0.4311  5.2445
   60MOL   H25823976   4.950   1.577   4.803  1.2086 -0.8441  0.7561
   60MOL   H25923977   4.747   1.584   4.673  0.3251  0.4452  0.1481
   60MOL   H26023978   4.522   1.642   4.611 -0.3158 -1.1655 -0.9605
   60MOL   H26123979   4.473   1.685   4.771  0.6103  1.0563 -1.8898
   60MOL   C26223980   4.315   1.628   4.629 -0.6742  0.3188  0.0234
   60MOL   C26323981   4.301   1.751   4.540 -0.2551  0.4530  0.3252
   60MOL   C26423982   4.259   1.729   4.404  0.2471 -0.4287 -0.1216
   60MOL   C26523983   4.246   1.844   4.331 -0.7189  0.1480 -0.6210
   60MOL   C26623984   4.268   1.977   4.375 -0.4982  0.5560 -0.0954
   60MOL   O26723985   4.263   2.075   4.282  0.5947 -0.8066  0.6005
   60MOL   C26823986   4.299   2.208   4.319  0.0826  0.4785  0.1498
   60MOL   C26923987   4.314   1.989   4.511 -0.1879 -0.5868  0.0167
   60MOL   C27023988   4.326   1.877   4.594 -0.4873 -1.0357  0.3703
   60MOL   C27123989   4.212   1.643   4.748 -1.0935  0.0083  0.0805
   60MOL   H27223990   4.297   1.541   4.565  0.1119  0.3007 -0.1724
   60MOL   H27323991   4.244   1.633   4.357 -0.3892  0.0189 -0.8312
   60MOL   H27423992   4.224   1.837   4.226  1.4333 -1.7837 -0.9790
   60MOL   H27523993   4.222   2.247   4.385 -1.0415  1.1614 -1.5293
   60MOL   H27623994   4.295   2.261   4.224 -0.9959 -1.2249 -0.7681
   60MOL   H27723995   4.394   2.212   4.372  0.0277 -1.7992  0.4831
   60MOL   H27823996   4.326   2.086   4.558  2.4008 -1.0817  0.4236
   60MOL   H27923997   4.342   1.906   4.697  1.0734 -2.1567  0.4594
   60MOL   H28023998   4.240   1.576   4.829 -2.2495  0.0060  0.4845
   60MOL   H28123999   4.233   1.738   4.797  2.5804 -0.8547  0.3964
   60MOL   C28224000   4.064   1.625   4.704 -0.1537 -0.1935  0.1489
   60MOL   C28324001   3.972   1.711   4.787 -0.4781  0.2449 -0.0846
   60MOL   C28424002   3.928   1.836   4.732  0.4206 -0.8041  0.3010
   60MOL   C28524003   3.829   1.908   4.808 -0.8181  0.3737 -0.6880
   60MOL   C28624004   3.789   1.872   4.937  0.4811  0.7267  0.1480
   60MOL   O28724005   3.690   1.946   5.003  0.6569  0.5268  0.3489
   60MOL   C28824006   3.661   1.912   5.140 -0.1262 -0.0870 -0.0121
   60MOL   C28924007   3.838   1.755   4.994  0.5261  0.9171  0.4545
   60MOL   C29024008   3.930   1.676   4.918 -0.0201  0.1899  0.0834
   60MOL   C29124009   4.030   1.474   4.717 -0.7409  0.4597 -0.5649
   60MOL   H29224010   4.039   1.658   4.603 -2.3775 -0.2194  0.6879
   60MOL   H29324011   3.953   1.863   4.631  1.4966 -0.3656  0.6786
   60MOL   H29424012   3.788   1.997   4.762 -1.0882  0.3723 -0.4523
   60MOL   H29524013   3.752   1.896   5.198  0.0745  1.5762  0.1684
   60MOL   H29624014   3.608   1.993   5.191 -0.2108 -2.4597  3.8492
   60MOL   H29724015   3.594   1.827   5.144  0.7803 -0.7547  1.7010
   60MOL   H29824016   3.803   1.724   5.091 -0.0724 -2.6924 -0.8515
   60MOL   H29924017   3.974   1.585   4.954 -1.9965 -1.7134 -2.0579
   60MOL   H30024018   4.121   1.419   4.692 -0.1099  1.9272 -1.6051
   60MOL   H30124019   4.012   1.448   4.821 -0.7900  2.1898 -0.1303
   60MOL   C30224020   3.918   1.414   4.629 -0.3009 -0.4267 -0.4601
   60MOL   C30324021   3.876   1.272   4.674 -0.2275  0.2673  0.5913
   60MOL   C30424022   3.823   1.254   4.806 -0.2104 -0.2391 -0.1364
   60MOL   C30524023   3.767   1.129   4.849 -0.5819 -0.9212  0.2149
   60MOL   C30624024   3.770   1.018   4.759  0.0587 -0.4335  0.9016
   60MOL   O30724025   3.732   0.892   4.796  0.1105  0.7625  0.1772
   60MOL   C30824026   3.635   0.886   4.906 -0.4517 -0.4678 -0.0644
   60MOL   C30924027   3.828   1.040   4.632  0.1719  0.4331 -0.7203
   60MOL   C31024028   3.873   1.164   4.587  0.0092 -0.2041  0.2217
   60MOL   C31124029   3.792   1.498   4.620 -1.0213 -0.2602  0.4239
   60MOL   H31224030   3.957   1.415   4.528 -0.2571  2.5920 -0.4493
   60MOL   H31324031   3.827   1.340   4.871 -0.6333  0.2422 -0.7438
   60MOL   H31424032   3.722   1.118   4.946  0.2269 -0.6784  0.6239
   60MOL   H31524033   3.558   0.961   4.887 -0.9020 -1.2131 -1.2544
   60MOL   H31624034   3.691   0.916   4.995  1.9449  0.8822 -1.9566
   60MOL   H31724035   3.585   0.790   4.919  0.1128 -0.6375  0.8244
   60MOL   H31824036   3.841   0.961   4.559  0.8954  0.7637 -0.9513
   60MOL   H31924037   3.907   1.170   4.485 -0.1988  0.1728  0.1763
   60MOL   H32024038   3.820   1.599   4.590 -0.3321 -0.9670 -1.3971
   60MOL   H32124039   3.757   1.515   4.721 -0.1351 -0.2164  0.7297
   60MOL   C32224040   3.686   1.428   4.528 -0.3924 -0.0831  0.2438
   60MOL   C32324041   3.725   1.431   4.381 -0.6966 -0.1395  0.0115
   60MOL   C32424042   3.745   1.553   4.312  0.4915 -0.1607  0.4269
   60MOL   C32524043   3.756   1.555   4.170 -0.0146 -0.5712 -0.1996
   60MOL   C32624044   3.769   1.429   4.100 -0.4625  0.1511 -0.1481
   60MOL   O32724045   3.780   1.435   3.964  0.0395 -0.3990 -0.1666
   60MOL   C32824046   3.810   1.315   3.893 -0.1698 -0.1111 -0.3216
   60MOL   C32924047   3.751   1.310   4.173 -0.0024 -1.0134  0.6693
   60MOL   C33024048   3.732   1.314   4.309 -0.6258  0.3210  0.2932
   60MOL   C33124049   3.547   1.499   4.555 -0.3956  0.4497  0.2040
   60MOL   H33224050   3.659   1.326   4.554 -2.0116 -0.0622 -1.2661
   60MOL   H33324051   3.740   1.642   4.373  1.4992  0.8887 -0.9959
   60MOL   H33424052   3.756   1.646   4.111 -2.0793  0.9356  1.9995
   60MOL   H33524053   3.867   1.321   3.800  1.5990  1.1677  0.8276
   60MOL   H33624054   3.717   1.260   3.876  1.1521 -2.0159 -1.6978
   60MOL   H33724055   3.873   1.249   3.953 -1.5267  0.9507  2.3186
   60MOL   H33824056   3.754   1.215   4.123 -1.3308 -0.4364 -0.5384
   60MOL   H33924057   3.702   1.229   4.369 -1.5132  1.5126  1.5867
   60MOL   H34024058   3.550   1.608   4.548 -1.5663  0.5239  0.7400
   60MOL   H34124059   3.475   1.477   4.476  1.6865  1.4027 -2.0246
   60MOL   C34224060   3.487   1.473   4.694 -0.4423  0.4134  0.1112
   60MOL   C34324061   3.399   1.346   4.690 -0.3114  0.1836 -0.2254
   60MOL   C34424062   3.282   1.348   4.612  1.1265  0.0002  0.2316
   60MOL   C34524063   3.188   1.245   4.620 -0.5889 -0.2578 -0.0742
   60MOL   C34624064   3.218   1.125   4.690 -0.5865  0.0920  0.4733
   60MOL   O34724065   3.128   1.027   4.719 -0.1975 -0.0117 -0.6338
   60MOL   C34824066   2.993   1.042   4.672 -0.8424  0.0261 -0.0523
   60MOL   C34924067   3.347   1.113   4.739 -0.3426 -0.5705 -0.5495
   60MOL   C35024068   3.435   1.221   4.752 -0.1277 -0.3439 -0.3546
   60MOL   C35124069   3.413   1.604   4.764 -0.3314  0.4347  0.0459
   60MOL   H35224070   3.567   1.449   4.764 -1.1897 -1.9830  0.1751
   60MOL   H35324071   3.262   1.435   4.551  1.6859 -0.2171 -0.2508
   60MOL   H35424072   3.092   1.260   4.574  0.3866  0.4845 -1.9020
   60MOL   H35524073   2.978   1.060   4.565  0.1229  2.1649  0.1455
   60MOL   H35624074   2.932   0.954   4.693 -0.0680 -0.5345 -0.1089
   60MOL   H35724075   2.945   1.124   4.725 -0.3752 -0.2243  0.7644
   60MOL   H35824076   3.379   1.027   4.797 -0.3566 -0.5086 -0.4508
   60MOL   H35924077   3.525   1.202   4.808  0.6668  0.4132 -1.3637
   60MOL   H36024078   3.449   1.696   4.717  3.2195  0.1010  1.9951
   60MOL   H36124079   3.314   1.589   4.720  0.2194  0.7030 -1.2957
   60MOL   C36224080   3.389   1.617   4.911  0.2535 -0.4113 -0.3223
   60MOL   C36324081   3.333   1.491   4.971  0.2092  0.4672 -0.2204
   60MOL   C36424082   3.206   1.445   4.943 -0.7195  0.2262 -0.1247
   60MOL   C36524083   3.172   1.317   4.991  0.0513 -0.2653 -0.1569
   60MOL   C36624084   3.250   1.239   5.076  0.0549 -0.0402  0.5444
   60MOL   O36724085   3.205   1.110   5.102 -0.5255 -0.6354 -0.1273
   60MOL   C36824086   3.306   1.018   5.144  0.3114  0.3120  0.4868
   60MOL   C36924087   3.378   1.295   5.112  0.6270 -0.2051 -0.4833
   60MOL   C37024088   3.417   1.418   5.053 -0.2038 -0.8392  0.3427
   60MOL   C37124089   3.305   1.737   4.951  0.0232  0.1857 -0.2257
   60MOL   H37224090   3.490   1.641   4.944  0.3037  1.1094 -1.5057
   60MOL   H37324091   3.137   1.499   4.880  0.7134  0.2207 -1.7424
   60MOL   H37424092   3.076   1.273   4.966 -1.1026  1.0760  1.7839
   60MOL   H37524093   3.396   1.051   5.196  0.9374 -1.3680  0.5151
   60MOL   H37624094   3.251   0.945   5.204  0.2665 -0.1036 -0.0597
   60MOL   H37724095   3.346   0.959   5.062 -1.0008 -2.8311  2.0167
   60MOL   H37824096   3.452   1.244   5.172  0.1105  0.3674  0.6524
   60MOL   H37924097   3.519   1.453   5.060 -0.5737  0.6251 -1.3100
   60MOL   H38024098   3.360   1.824   4.912 -1.3653  0.8572 -0.7289
   60MOL   H38124099   3.210   1.728   4.898 -0.7298 -1.2758  1.3487
   60MOL   C38224100   3.272   1.762   5.104 -0.3360 -0.0874  0.0012
   60MOL   C38324101   3.143   1.699   5.151 -0.1501  0.2476 -0.6010
   60MOL   C38424102   3.027   1.738   5.086 -0.5440 -0.1993 -0.8328
   60MOL   C38524103   2.902   1.691   5.121 -0.4704  0.5883 -0.5874
   60MOL   C38624104   2.889   1.598   5.229  0.1803 -0.4855 -0.2674
   60MOL   O38724105   2.768   1.551   5.272 -1.1782  0.5670 -0.3395
   60MOL   C38824106   2.769   1.428   5.340 -0.2148 -0.0444 -0.3577
   60MOL   C38924107   3.004   1.559   5.294  0.7947 -0.4404 -0.3303
   60MOL   C39024108   3.135   1.608   5.256  0.2746  0.4001  0.0337
   60MOL   C39124109   3.271   1.914   5.138 -0.3187  0.2728  0.1854
   60MOL   H39224110   3.353   1.723   5.165  1.4281  0.3276 -2.0038
   60MOL   H39324111   3.034   1.800   4.998  0.5850  2.9211  1.3601
   60MOL   H39424112   2.810   1.705   5.067 -0.6220  2.2106  0.0658
   60MOL   H39524113   2.809   1.429   5.441 -1.2667 -0.4515  0.0645
   60MOL   H39624114   2.810   1.350   5.276 -0.3610  0.0380 -0.5527
   60MOL   H39724115   2.662   1.408   5.344 -0.0888 -0.9626 -1.3783
   60MOL   H39824116   3.012   1.492   5.379 -0.7768 -1.4351 -0.9441
   60MOL   H39924117   3.224   1.579   5.310  0.9491 -0.4846 -1.5031
   60MOL   H40024118   3.185   1.971   5.101  0.7507  2.9365  1.6811
   60MOL   H40124119   3.364   1.943   5.090 -0.9088 -0.1882 -1.2825
   60MOL   H40224120   3.281   1.940   5.243  1.1459  1.4507 -0.2297
   61MOL     C124121   7.663   4.730   6.297  0.0190 -0.3074 -0.1134
   61MOL     C224122   7.713   4.677   6.433 -0.0776 -0.5766  0.2772
   61MOL     C324123   7.662   4.554   6.488 -0.4578  0.1694 -0.4382
   61MOL     C424124   7.695   4.516   6.615 -0.6676  0.1821 -0.4478
   61MOL     C524125   7.786   4.595   6.688 -0.1285  0.1660  0.4105
   61MOL     O624126   7.834   4.567   6.810  0.5011 -0.0831 -0.2476
   61MOL     C724127   7.770   4.466   6.885  0.1527  0.3748 -0.5120
   61MOL     C824128   7.834   4.716   6.642 -0.1921  0.6262 -0.3369
   61MOL     C924129   7.800   4.756   6.513 -0.0677  0.1880  0.6425
   61MOL    C1024130   7.770   4.729   6.183  0.3216  0.0839  1.0005
   61MOL    H1124131   7.629   4.832   6.316 -0.3038 -1.0317  3.5661
   61MOL    H1224132   7.592   4.488   6.439  0.4776 -1.4721  0.3941
   61MOL    H1324133   7.641   4.428   6.645  2.2001 -1.8867 -1.1767
   61MOL    H1424134   7.669   4.486   6.923  0.5542  0.0913  0.7262
   61MOL    H1524135   7.763   4.379   6.820  2.4912 -0.0088 -0.2929
   61MOL    H1624136   7.828   4.446   6.975  0.2446  2.0325 -0.1943
   61MOL    H1724137   7.888   4.775   6.715  0.0501  1.0741 -0.8771
   61MOL    H1824138   7.840   4.846   6.469  0.2509 -0.1968  0.1394
   61MOL    H1924139   7.862   4.784   6.201  1.2473  0.0423 -3.1929
   61MOL    H2024140   7.813   4.630   6.173  0.4611  0.1906  0.5157
   61MOL    H2124141   7.569   4.681   6.270  0.5601 -1.5045  0.1532
   61MOL    C2224142   7.706   4.776   6.041 -0.6388  0.0182  0.3158
   61MOL    C2324143   7.644   4.912   6.054 -0.3648 -0.0866 -0.3409
   61MOL    C2424144   7.506   4.926   6.079 -0.0913  0.5117 -0.1720
   61MOL    C2524145   7.445   5.055   6.096  0.1284  0.6866  0.3824
   61MOL    C2624146   7.526   5.166   6.066  0.2363  0.2029 -0.6405
   61MOL    O2724147   7.457   5.291   6.080  0.1866 -0.3031 -0.0101
   61MOL    C2824148   7.538   5.407   6.041  0.4237  0.0339  0.2486
   61MOL    C2924149   7.668   5.155   6.046  0.2239  0.2659 -0.3683
   61MOL    C3024150   7.726   5.028   6.041 -0.0183 -0.5357 -0.8612
   61MOL    C3124151   7.803   4.762   5.916 -0.5365  0.2269  0.1739
   61MOL    H3224152   7.621   4.709   6.026  0.0074 -0.8351  0.3928
   61MOL    H3324153   7.453   4.833   6.092  0.3016  0.5652  2.0963
   61MOL    H3424154   7.340   5.061   6.119 -0.0567  0.1790 -0.2981
   61MOL    H3524155   7.580   5.407   5.940 -0.5840 -1.1912 -0.1728
   61MOL    H3624156   7.612   5.434   6.117 -0.5288  0.8543  0.8843
   61MOL    H3724157   7.475   5.495   6.042  1.1183  0.5553 -1.0519
   61MOL    H3824158   7.730   5.244   6.041 -0.8662  0.9964 -0.9623
   61MOL    H3924159   7.833   5.028   6.032 -0.1007 -0.9311 -1.9159
   61MOL    H4024160   7.881   4.839   5.921 -0.5084  0.2034  0.0931
   61MOL    H4124161   7.850   4.663   5.923 -0.4611  0.1934 -0.7869
   61MOL    C4224162   7.746   4.774   5.774  0.1079 -0.0546 -0.2767
   61MOL    C4324163   7.852   4.748   5.665  0.6169 -0.3061 -0.0921
   61MOL    C4424164   7.836   4.636   5.583  0.4670  0.6759  0.0409
   61MOL    C4524165   7.936   4.616   5.486 -0.2071  1.4079 -0.1790
   61MOL    C4624166   0.012   4.697   5.481  0.2361 -0.2109  0.1195
   61MOL    O4724167   0.100   4.665   5.384 -0.0834  0.3347  0.1419
   61MOL    C4824168   0.217   4.739   5.371 -0.4287 -0.0093  0.2284
   61MOL    C4924169   0.021   4.811   5.566 -1.0140  0.4315  0.1571
   61MOL    C5024170   7.957   4.841   5.647  0.4334 -0.1312 -0.1856
   61MOL    C5124171   7.658   4.899   5.746 -0.1229 -0.3901 -0.3806
   61MOL    H5224172   7.679   4.688   5.771  1.2938 -1.0146  0.0766
   61MOL    H5324173   7.742   4.584   5.587  2.0006 -2.2830 -0.7046
   61MOL    H5424174   7.925   4.535   5.415  0.5904  2.2428 -1.2673
   61MOL    H5524175   0.294   4.706   5.441 -1.7891 -0.9934  1.2803
   61MOL    H5624176   0.250   4.707   5.273  3.6429  1.1120  1.1350
   61MOL    H5724177   0.216   4.848   5.365 -0.4161 -0.0836 -1.3146
   61MOL    H5824178   0.109   4.875   5.565 -0.1375 -0.7594 -0.5360
   61MOL    H5924179   7.958   4.926   5.714  0.3103  0.1988 -0.5990
   61MOL    H6024180   7.714   4.989   5.769  0.8676 -0.9619 -0.5389
   61MOL    H6124181   7.572   4.891   5.813 -1.2452  0.0492 -1.7348
   61MOL    C6224182   7.600   4.914   5.600 -0.6293  0.1809  0.2870
   61MOL    C6324183   7.566   5.059   5.562  0.4137  0.5151  0.0382
   61MOL    C6424184   7.576   5.105   5.430 -0.8032 -0.4747  1.2187
   61MOL    C6524185   7.550   5.239   5.395  0.8278  0.1152  0.1359
   61MOL    C6624186   7.494   5.326   5.491  0.1618  0.0238 -0.5167
   61MOL    O6724187   7.469   5.457   5.459 -0.0988 -0.0438  0.0943
   61MOL    C6824188   7.487   5.548   5.566 -0.0955  0.0172  0.1866
   61MOL    C6924189   7.471   5.277   5.622  0.3332 -0.0724  0.0242
   61MOL    C7024190   7.509   5.148   5.661 -0.1400  0.3995 -0.9129
   61MOL    C7124191   7.478   4.812   5.579  0.0539  0.1578 -0.2342
   61MOL    H7224192   7.683   4.886   5.536 -0.2904  0.7299  0.4774
   61MOL    H7324193   7.625   5.045   5.354  0.4686 -1.5680  2.8632
   61MOL    H7424194   7.569   5.276   5.295 -1.4799 -0.5363 -0.5799
   61MOL    H7524195   7.507   5.644   5.517  0.6867 -0.0801  0.3188
   61MOL    H7624196   7.567   5.538   5.639 -0.5769 -0.2644  0.6822
   61MOL    H7724197   7.400   5.580   5.623  1.5150  0.7229  2.3205
   61MOL    H7824198   7.426   5.333   5.703  0.1724  0.9982 -0.7940
   61MOL    H7924199   7.487   5.114   5.761 -1.2698 -0.1342 -1.3238
   61MOL    H8024200   7.491   4.716   5.628 -1.9720 -1.3550 -2.5674
   61MOL    H8124201   7.385   4.844   5.627 -1.3426 -1.9871 -1.4498
   61MOL    C8224202   7.446   4.786   5.431 -0.7749 -0.0203 -0.0050
   61MOL    C8324203   7.524   4.668   5.385 -0.3672  0.1285 -0.0073
   61MOL    C8424204   7.486   4.533   5.413  0.4292 -0.0008  1.1065
   61MOL    C8524205   7.562   4.423   5.365  0.3594 -0.5457 -0.2401
   61MOL    C8624206   7.677   4.452   5.289 -0.0673  0.0829  0.2543
   61MOL    O8724207   7.764   4.359   5.231  0.1727  0.0231 -0.1241
   61MOL    C8824208   7.753   4.227   5.274  0.2699 -0.3939 -0.1860
   61MOL    C8924209   7.706   4.581   5.253 -0.2677 -0.7491 -0.1143
   61MOL    C9024210   7.633   4.687   5.295 -0.2685 -0.4072 -0.0400
   61MOL    C9124211   7.292   4.768   5.408  0.1140  0.2210 -0.0341
   61MOL    H9224212   7.480   4.865   5.363 -1.4236 -0.3458 -0.7215
   61MOL    H9324213   7.399   4.503   5.470  0.1408  0.3502  0.8626
   61MOL    H9424214   7.539   4.322   5.394  2.0826 -1.1337 -0.8658
   61MOL    H9524215   7.655   4.188   5.245 -0.2613  0.3458  0.5705
   61MOL    H9624216   7.768   4.217   5.381  0.7559  0.9528 -0.1271
   61MOL    H9724217   7.837   4.170   5.235 -1.1784 -0.8916 -2.6961
   61MOL    H9824218   7.786   4.604   5.184  0.4635 -2.1521  0.2390
   61MOL    H9924219   7.652   4.787   5.259 -1.0542 -0.1088  0.3507
   61MOL   H10024220   7.270   4.718   5.314 -0.7571 -1.3222  0.9591
   61MOL   H10124221   7.265   4.695   5.484  0.6028 -0.4213 -0.4789
   61MOL   C10224222   7.209   4.901   5.431 -0.1878 -0.0782 -0.1611
   61MOL   C10324223   7.157   4.961   5.303 -0.3370 -0.4262  0.3032
   61MOL   C10424224   7.203   5.085   5.259  0.1544  0.1074 -0.4444
   61MOL   C10524225   7.149   5.131   5.139  0.7025  0.3271  0.4916
   61MOL   C10624226   7.073   5.051   5.048 -0.1213  0.3350 -0.7731
   61MOL   O10724227   7.037   5.088   4.920 -0.0416  0.5589  0.3271
   61MOL   C10824228   7.143   5.112   4.826 -0.1793  0.3855 -0.1364
   61MOL   C10924229   7.033   4.928   5.092 -0.1971  0.2560 -0.4559
   61MOL   C11024230   7.071   4.879   5.224  0.5117  0.1820  0.3493
   61MOL   C11124231   7.091   4.896   5.536  0.1324 -0.3392 -0.7284
   61MOL   H11224232   7.278   4.971   5.477 -1.3792  0.4705  0.8533
   61MOL   H11324233   7.276   5.140   5.316  0.7305  0.4839 -1.5296
   61MOL   H11424234   7.189   5.217   5.089 -1.9608  0.2830 -1.8356
   61MOL   H11524235   7.196   5.017   4.815 -0.4318  0.3497 -1.1634
   61MOL   H11624236   7.120   5.143   4.724 -0.5995  0.1216 -0.1235
   61MOL   H11724237   7.209   5.186   4.872 -0.0691 -1.0688  2.1270
   61MOL   H11824238   6.978   4.860   5.029 -0.6732 -0.0872  0.3211
   61MOL   H11924239   7.048   4.782   5.265 -2.0309  1.1361  1.2448
   61MOL   H12024240   7.002   4.840   5.506 -0.3642  0.5916 -1.0178
   61MOL   H12124241   7.138   4.848   5.622  1.3476 -0.7287 -1.5903
   61MOL   C12224242   7.033   5.033   5.581 -0.3693 -0.7037  0.7500
   61MOL   C12324243   7.044   5.048   5.731 -0.3408  0.3385  0.1061
   61MOL   C12424244   7.139   5.131   5.785  0.3569 -0.6027 -0.7985
   61MOL   C12524245   7.142   5.150   5.927  0.1117 -0.1221  0.5228
   61MOL   C12624246   7.058   5.074   6.012  0.2418  0.0246 -0.2759
   61MOL   O12724247   7.075   5.097   6.149  0.6233 -0.2177 -0.7051
   61MOL   C12824248   6.964   5.090   6.243  0.0940  0.2699  0.1116
   61MOL   C12924249   6.969   4.984   5.956  0.4782  0.1997 -0.0940
   61MOL   C13024250   6.961   4.969   5.814  0.0125  0.1839 -0.1397
   61MOL   C13124251   6.895   5.069   5.527  0.4444 -0.3228 -0.9422
   61MOL   H13224252   7.094   5.108   5.530 -1.5102 -0.2019  0.0995
   61MOL   H13324253   7.193   5.195   5.717 -2.9775  1.7934 -1.3235
   61MOL   H13424254   7.208   5.225   5.969 -0.0927  0.9401 -0.9914
   61MOL   H13524255   6.885   5.163   6.227 -0.1433  0.4316  1.8333
   61MOL   H13624256   6.918   4.992   6.237 -2.4903  1.4907 -0.5539
   61MOL   H13724257   7.002   5.100   6.345 -0.3181 -1.3908  0.4316
   61MOL   H13824258   6.908   4.918   6.015  0.2421  0.4354 -0.0720
   61MOL   H13924259   6.896   4.895   5.770  0.0863  0.4425 -0.6747
   61MOL   H14024260   6.825   4.987   5.541  2.1519 -1.5167  0.9273
   61MOL   H14124261   6.899   5.077   5.419 -1.7259  0.9894 -0.9503
   61MOL   C14224262   6.824   5.206   5.584  0.1956 -0.1866 -0.3318
   61MOL   C14324263   6.914   5.318   5.642 -0.7170 -0.5942  0.1969
   61MOL   C14424264   7.028   5.354   5.570  0.4683  0.1199 -0.5299
   61MOL   C14524265   7.129   5.437   5.618 -0.0213  0.7238  0.1208
   61MOL   C14624266   7.117   5.487   5.752  0.3508 -0.1860 -0.3588
   61MOL   O14724267   7.223   5.558   5.810  0.0152  0.3409  0.0788
   61MOL   C14824268   7.186   5.683   5.848  0.1348 -0.1964 -0.3600
   61MOL   C14924269   6.999   5.465   5.829  0.0927 -0.7608  0.4439
   61MOL   C15024270   6.900   5.373   5.773  0.3906  0.3309  0.1960
   61MOL   C15124271   6.724   5.262   5.481  0.4965  0.6721 -0.2769
   61MOL   H15224272   6.756   5.184   5.667  0.0930  2.4182  0.3268
   61MOL   H15324273   7.049   5.317   5.470  0.8244  1.4686 -0.9548
   61MOL   H15424274   7.213   5.454   5.552 -2.2183 -0.4004 -3.0805
   61MOL   H15524275   7.235   5.764   5.794  0.3970  0.0279  0.2070
   61MOL   H15624276   7.082   5.710   5.830 -0.5866 -0.2847  3.2386
   61MOL   H15724277   7.216   5.700   5.951  1.2913 -0.4325 -0.6468
   61MOL   H15824278   6.991   5.488   5.934 -2.2440  0.8481 -0.0470
   61MOL   H15924279   6.821   5.336   5.837  1.3602 -0.3378  1.0211
   61MOL   H16024280   6.783   5.273   5.390  1.4231 -0.9286  0.1049
   61MOL   H16124281   6.709   5.363   5.519 -0.2501  0.2755  0.4970
   61MOL   C16224282   6.583   5.193   5.459 -0.0387 -1.0806  0.5571
   61MOL   C16324283   6.601   5.077   5.356 -0.7420  0.2292 -0.1324
   61MOL   C16424284   6.529   4.960   5.382  0.5570 -0.0951  0.0672
   61MOL   C16524285   6.538   4.846   5.297  0.0882 -0.9057  0.0611
   61MOL   C16624286   6.626   4.851   5.188 -0.0035  0.7013 -0.1078
   61MOL   O16724287   6.655   4.745   5.098 -0.0408  0.1278  0.2854
   61MOL   C16824288   6.602   4.615   5.131  0.1794 -0.1465 -0.7035
   61MOL   C16924289   6.686   4.972   5.161  0.7880 -1.0708 -0.0116
   61MOL   C17024290   6.679   5.087   5.235 -0.2210 -0.4374 -0.2917
   61MOL   C17124291   6.475   5.293   5.418  0.1160  0.9661 -0.3278
   61MOL   H17224292   6.558   5.149   5.556  0.6172 -0.5120  0.9874
   61MOL   H17324293   6.462   4.962   5.467 -0.2143  0.0959 -0.5403
   61MOL   H17424294   6.484   4.754   5.318  1.6099 -2.1591 -1.3721
   61MOL   H17524295   6.660   4.539   5.079  0.9200  0.8781 -1.3945
   61MOL   H17624296   6.498   4.616   5.099  0.0118  0.1978 -0.1515
   61MOL   H17724297   6.635   4.609   5.235  0.6632  2.1740 -0.7057
   61MOL   H17824298   6.734   4.988   5.066  0.0140 -1.8760 -0.5406
   61MOL   H17924299   6.749   5.168   5.217  0.0258  0.0639  2.6835
   61MOL   H18024300   6.380   5.245   5.391  0.8894 -0.8164  0.0723
   61MOL   H18124301   6.502   5.350   5.329  0.0076 -2.0727 -2.3648
   61MOL   C18224302   6.439   5.392   5.530 -0.9419 -0.2088 -0.3478
   61MOL   C18324303   6.327   5.332   5.624  0.9299 -0.0581  0.9035
   61MOL   C18424304   6.372   5.252   5.729 -0.1390 -0.2381  0.0797
   61MOL   C18524305   6.275   5.194   5.815  0.1584 -0.0603  0.2460
   61MOL   C18624306   6.132   5.210   5.783  0.2595 -0.2758 -0.0442
   61MOL   O18724307   6.037   5.129   5.841  0.2811 -0.4213 -0.2332
   61MOL   C18824308   6.058   5.038   5.945 -1.0965 -0.0670  0.2789
   61MOL   C18924309   6.095   5.298   5.680 -0.0715  0.2590 -0.0380
   61MOL   C19024310   6.192   5.358   5.597 -0.2979 -0.1898  0.1617
   61MOL   C19124311   6.393   5.528   5.474 -0.3472 -0.1163  0.5400
   61MOL   H19224312   6.518   5.420   5.599 -1.5726  1.3939 -0.2642
   61MOL   H19324313   6.479   5.247   5.743  0.0160 -1.0161 -1.3128
   61MOL   H19424314   6.310   5.129   5.893 -0.5456 -0.7092  0.0268
   61MOL   H19524315   5.973   4.970   5.945 -0.9047 -0.3067  0.0363
   61MOL   H19624316   6.063   5.091   6.041  0.3038 -1.2697  0.8876
   61MOL   H19724317   6.146   4.975   5.932 -0.6248  0.6578 -0.0864
   61MOL   H19824318   5.992   5.298   5.648 -0.4349 -1.0574  1.0878
   61MOL   H19924319   6.168   5.433   5.523 -0.4943 -0.3049  0.1103
   61MOL   H20024320   6.344   5.519   5.377  0.2965 -1.1265  0.2979
   61MOL   H20124321   6.316   5.578   5.533  0.1362 -0.0630  1.1232
   61MOL   C20224322   6.506   5.637   5.458  0.2985 -0.0370 -0.7025
   61MOL   C20324323   6.576   5.682   5.586 -0.5294 -0.3040  0.1145
   61MOL   C20424324   6.511   5.733   5.700 -0.9739  0.1635  0.1171
   61MOL   C20524325   6.586   5.789   5.807  0.0699 -0.3594  0.0974
   61MOL   C20624326   6.726   5.787   5.815 -0.4750  0.1017  0.7283
   61MOL   O20724327   6.810   5.838   5.915  0.1929 -0.2221  0.2776
   61MOL   C20824328   6.758   5.862   6.046 -0.1823 -0.3045  0.0569
   61MOL   C20924329   6.785   5.721   5.705  0.3819 -0.4460  0.2486
   61MOL   C21024330   6.716   5.685   5.588 -0.4502 -0.0858 -0.6130
   61MOL   C21124331   6.448   5.755   5.382 -0.2470  0.0934 -0.2878
   61MOL   H21224332   6.579   5.584   5.397 -0.9168 -0.7412 -1.5713
   61MOL   H21324333   6.403   5.735   5.689 -0.9300 -0.0068 -0.3660
   61MOL   H21424334   6.532   5.823   5.895 -1.3916 -0.1006 -0.8850
   61MOL   H21524335   6.722   5.965   6.049  1.2421  0.1832  2.2378
   61MOL   H21624336   6.683   5.787   6.073 -0.1197 -0.9540 -1.5678
   61MOL   H21724337   6.833   5.852   6.124  0.5561  0.5632 -0.5386
   61MOL   H21824338   6.891   5.703   5.711  0.2850 -1.9047 -1.8046
   61MOL   H21924339   6.780   5.656   5.506  1.0857 -0.4986  0.6999
   61MOL   H22024340   6.373   5.800   5.447  0.4830  0.2584  0.4573
   61MOL   H22124341   6.396   5.717   5.294 -0.4453  1.0339 -0.5786
   61MOL   C22224342   6.553   5.851   5.334  0.4058  0.3811  0.1473
   61MOL   C22324343   6.641   5.788   5.229  0.4172  0.4406 -0.5539
   61MOL   C22424344   6.586   5.741   5.107  0.1308 -0.1075  0.1696
   61MOL   C22524345   6.662   5.690   5.003 -0.4402  0.1352  0.4033
   61MOL   C22624346   6.806   5.689   5.020  0.2299  0.3430 -0.6565
   61MOL   O22724347   6.891   5.653   4.925 -0.1391 -0.3680  0.1374
   61MOL   C22824348   6.845   5.614   4.798 -0.4767 -0.7901 -0.2532
   61MOL   C22924349   6.866   5.740   5.138  0.2116 -0.3085  0.0655
   61MOL   C23024350   6.780   5.791   5.241 -0.9433 -0.3157  0.3026
   61MOL   C23124351   6.478   5.973   5.280  1.0405  0.2913 -0.3564
   61MOL   H23224352   6.615   5.878   5.419  2.6896 -0.9570 -1.0533
   61MOL   H23324353   6.478   5.741   5.098 -0.0895  0.3178  2.5513
   61MOL   H23424354   6.614   5.661   4.910  2.5213 -1.4265 -0.6897
   61MOL   H23524355   6.923   5.577   4.731 -0.5449 -3.2431  0.9754
   61MOL   H23624356   6.767   5.538   4.804  0.8937 -2.1248  1.1485
   61MOL   H23724357   6.799   5.705   4.759 -0.1086 -0.2316  0.5874
   61MOL   H23824358   6.972   5.752   5.153 -0.4688  1.9572  3.7399
   61MOL   H23924359   6.820   5.832   5.332  0.2873 -2.0392  0.5605
   61MOL   H24024360   6.523   6.011   5.189 -0.0047 -0.5382 -1.2298
   61MOL   H24124361   6.385   5.936   5.238  0.5174  0.7336  0.4031
   61MOL   C24224362   6.472   6.092   5.376  0.0170 -0.4797  1.5023
   61MOL   C24324363   6.368   6.189   5.327 -0.5328  0.3666 -0.1224
   61MOL   C24424364   6.410   6.320   5.294  0.5161  0.3653  0.0626
   61MOL   C24524365   6.319   6.408   5.231  0.5027  0.3286  0.2299
   61MOL   C24624366   6.188   6.362   5.188  0.4156  0.2848  0.6005
   61MOL   O24724367   6.099   6.456   5.131  0.2712 -0.0215  0.2205
   61MOL   C24824368   5.973   6.411   5.087 -0.9708 -0.3270  0.0075
   61MOL   C24924369   6.154   6.232   5.229  0.0900 -0.5009  0.0707
   61MOL   C25024370   6.239   6.143   5.296 -0.3738 -0.2561  0.5722
   61MOL   C25124371   6.451   6.054   5.524  0.6035  0.8085 -0.5477
   61MOL   H25224372   6.567   6.143   5.359  0.0053 -1.1084 -0.5453
   61MOL   H25324373   6.511   6.351   5.317  1.4121 -2.0351 -0.5617
   61MOL   H25424374   6.360   6.506   5.211  1.1123 -0.0509 -0.3679
   61MOL   H25524375   5.996   6.321   5.029  0.3387 -0.5116  0.7777
   61MOL   H25624376   5.898   6.377   5.158 -3.0170 -0.5439 -2.2035
   61MOL   H25724377   5.922   6.487   5.029  0.0298  0.3165 -0.0345
   61MOL   H25824378   6.051   6.200   5.218 -0.4988  0.6041  2.2395
   61MOL   H25924379   6.197   6.045   5.317  1.1364 -0.4848  2.6933
   61MOL   H26024380   6.519   5.976   5.560  1.1610  1.3182 -0.4863
   61MOL   H26124381   6.350   6.013   5.523  0.8650  0.1130  0.7520
   61MOL   C26224382   6.459   6.171   5.626  0.1453  0.3518  0.3793
   61MOL   C26324383   6.599   6.214   5.653  0.0922 -0.3187  0.0575
   61MOL   C26424384   6.700   6.140   5.714  0.2203 -0.0765 -0.5982
   61MOL   C26524385   6.827   6.191   5.745  0.3531 -0.0167 -0.1385
   61MOL   C26624386   6.852   6.324   5.710 -0.2696 -0.3601 -0.7153
   61MOL   O26724387   6.978   6.374   5.746  0.3389 -0.4583  0.4593
   61MOL   C26824388   6.997   6.514   5.755  0.1415 -0.1730  0.2891
   61MOL   C26924389   6.754   6.405   5.647  0.5155  0.1910 -0.4036
   61MOL   C27024390   6.625   6.349   5.618  0.0221 -0.2445  0.4430
   61MOL   C27124391   6.397   6.132   5.763  0.3430 -0.5519  0.6850
   61MOL   H27224392   6.404   6.259   5.593 -0.0889  1.2531  3.0713
   61MOL   H27324393   6.675   6.038   5.739  2.6473 -0.4330  0.5682
   61MOL   H27424394   6.902   6.135   5.798 -0.0536  0.0384  0.5052
   61MOL   H27524395   7.016   6.550   5.654  3.1701  1.8014  1.5053
   61MOL   H27624396   7.094   6.540   5.799  0.1855 -0.8928  0.6231
   61MOL   H27724397   6.920   6.581   5.794 -0.8222  0.1861 -2.1614
   61MOL   H27824398   6.784   6.508   5.637 -3.1407  1.3877  0.4642
   61MOL   H27924399   6.550   6.414   5.575  0.1196 -0.7694 -0.5343
   61MOL   H28024400   6.448   6.038   5.784  0.7118 -1.2706 -2.9377
   61MOL   H28124401   6.425   6.212   5.830  0.5784  0.3083 -0.4210
   61MOL   C28224402   6.240   6.104   5.764  0.2769  0.2524  0.0494
   61MOL   C28324403   6.168   6.169   5.882  0.1958 -0.1160  0.7723
   61MOL   C28424404   6.066   6.262   5.859  0.2610  0.5646 -0.1034
   61MOL   C28524405   5.994   6.315   5.968 -0.0842  0.3744 -0.0615
   61MOL   C28624406   6.023   6.281   6.107 -0.7288  0.1143  0.2973
   61MOL   O28724407   5.946   6.337   6.206  0.0391 -0.0093 -0.4573
   61MOL   C28824408   5.956   6.298   6.339 -0.5304 -0.2147 -0.6353
   61MOL   C28924409   6.136   6.188   6.123  0.3279  0.1131  0.6275
   61MOL   C29024410   6.206   6.134   6.011 -0.2183 -0.0204 -0.5661
   61MOL   C29124411   6.204   5.954   5.761  0.2516  0.0304 -0.1662
   61MOL   H29224412   6.201   6.154   5.676 -0.4508  1.2586  0.9258
   61MOL   H29324413   6.045   6.291   5.758 -0.2301 -0.2150 -0.2326
   61MOL   H29424414   5.910   6.378   5.940  0.8600  0.9442 -1.6271
   61MOL   H29524415   5.899   6.206   6.354 -1.2998  0.6499  1.9108
   61MOL   H29624416   6.048   6.272   6.391 -0.8023  1.2119  0.5866
   61MOL   H29724417   5.895   6.370   6.393  0.1109 -1.1367  1.3550
   61MOL   H29824418   6.153   6.150   6.223 -0.3914 -1.0294  0.3321
   61MOL   H29924419   6.284   6.060   6.024 -0.3422  0.0046  0.3246
   61MOL   H30024420   6.264   5.902   5.687  1.9938  1.1253  0.4414
   61MOL   H30124421   6.248   5.904   5.847  0.7379 -2.9373 -2.0862
   61MOL   C30224422   6.053   5.919   5.741  0.5669 -0.3443 -0.2346
   61MOL   C30324423   6.026   5.916   5.587  0.6216 -0.0499 -0.3014
   61MOL   C30424424   6.057   5.804   5.510 -0.0543  0.1230  0.2072
   61MOL   C30524425   6.032   5.804   5.372  0.0969  0.4994 -0.6825
   61MOL   C30624426   5.966   5.911   5.311  0.0597  0.1416 -0.0181
   61MOL   O30724427   5.930   5.897   5.177  0.2334 -0.1388  0.5406
   61MOL   C30824428   5.806   5.961   5.131 -0.8923 -0.4731 -0.2942
   61MOL   C30924429   5.932   6.023   5.388 -0.5231 -0.2174 -0.1277
   61MOL   C31024430   5.964   6.028   5.527  0.2997 -0.4355  0.3717
   61MOL   C31124431   6.009   5.791   5.811 -0.0575  0.1442  0.3673
   61MOL   H31224432   5.996   5.999   5.788  1.3187 -0.3963  0.7699
   61MOL   H31324433   6.101   5.720   5.560 -2.9363 -1.0649  0.8278
   61MOL   H31424434   6.062   5.715   5.318 -1.7262 -0.7763  0.3403
   61MOL   H31524435   5.788   5.929   5.029  0.0713 -1.2638 -0.2292
   61MOL   H31624436   5.830   6.067   5.123 -0.2676 -0.5559  0.3992
   61MOL   H31724437   5.720   5.938   5.194  0.5383  1.7100  2.5634
   61MOL   H31824438   5.896   6.113   5.341  0.5766 -0.0389 -0.6570
   61MOL   H31924439   5.948   6.119   5.582 -0.1111 -0.7511  0.7818
   61MOL   H32024440   6.052   5.792   5.911  0.0233  0.3993  0.3291
   61MOL   H32124441   6.054   5.702   5.767 -0.7533 -0.3196  0.5834
   61MOL   C32224442   5.860   5.757   5.819 -0.5935 -0.2480 -0.7905
   61MOL   C32324443   5.783   5.865   5.897  0.0819  0.3722 -0.2074
   61MOL   C32424444   5.839   5.948   6.001 -0.0342  0.4041 -0.4957
   61MOL   C32524445   5.757   6.039   6.064 -0.0041  0.3882 -0.4198
   61MOL   C32624446   5.623   6.054   6.024  0.2700 -0.6789  0.1586
   61MOL   O32724447   5.532   6.134   6.090  0.0451 -0.8448  0.3803
   61MOL   C32824448   5.580   6.234   6.172  0.8647  0.2858  0.3802
   61MOL   C32924449   5.572   5.978   5.913  0.5045 -0.0689 -0.0817
   61MOL   C33024450   5.654   5.889   5.848 -0.2233  0.4346  0.3369
   61MOL   C33124451   5.838   5.606   5.873  0.1749 -0.6743 -0.4842
   61MOL   H33224452   5.833   5.766   5.713 -0.5153  0.1403 -0.7748
   61MOL   H33324453   5.941   5.935   6.033 -0.0248 -0.7462 -0.9589
   61MOL   H33424454   5.796   6.083   6.154  0.6867 -3.4909  1.3166
   61MOL   H33524455   5.644   6.302   6.115  2.2164 -0.9081  0.4423
   61MOL   H33624456   5.636   6.197   6.259  2.5587  0.5058 -0.5930
   61MOL   H33724457   5.500   6.294   6.216  0.3946  1.0195 -1.4493
   61MOL   H33824458   5.468   5.986   5.885  1.3229 -1.2214 -3.7328
   61MOL   H33924459   5.629   5.833   5.759 -0.4913  2.6663 -1.0484
   61MOL   H34024460   5.734   5.575   5.861  0.5583 -0.9816 -3.2913
   61MOL   H34124461   5.891   5.528   5.819  1.9046 -0.2166  0.5127
   61MOL   C34224462   5.854   5.600   6.027  0.3400 -0.0794 -0.8458
   61MOL   C34324463   6.000   5.603   6.081  0.4500 -0.2834 -0.7996
   61MOL   C34424464   6.033   5.693   6.185 -0.2971 -0.1276  0.3839
   61MOL   C34524465   6.169   5.719   6.219 -0.0085 -0.0839 -0.3573
   61MOL   C34624466   6.274   5.647   6.147 -0.7212  0.2474  0.0253
   61MOL   O34724467   6.407   5.668   6.187 -0.0031  0.3473 -0.1235
   61MOL   C34824468   6.439   5.751   6.305 -0.4065  0.8050  0.1919
   61MOL   C34924469   6.234   5.541   6.062  0.3142  0.5660  0.8321
   61MOL   C35024470   6.096   5.526   6.027 -0.4338 -0.1930 -0.3842
   61MOL   C35124471   5.779   5.479   6.098  0.3874  0.2209  0.5114
   61MOL   H35224472   5.820   5.690   6.078 -0.4611 -1.4912  1.2000
   61MOL   H35324473   5.952   5.752   6.228  0.0665  1.6368 -1.2599
   61MOL   H35424474   6.192   5.789   6.297  0.5541 -0.7251  0.0625
   61MOL   H35524475   6.402   5.853   6.300 -0.7815  0.7674  1.9302
   61MOL   H35624476   6.417   5.711   6.404 -0.8840  0.3203 -0.1092
   61MOL   H35724477   6.548   5.760   6.305 -0.0137 -2.9917  0.2146
   61MOL   H35824478   6.303   5.474   6.014 -0.1657  0.2605  0.5671
   61MOL   H35924479   6.077   5.454   5.949 -2.3944 -0.6211  0.4722
   61MOL   H36024480   5.822   5.384   6.066 -2.1737 -0.3942 -1.2239
   61MOL   H36124481   5.805   5.482   6.204 -0.1619 -2.3641  0.7512
   61MOL   C36224482   5.625   5.457   6.095  0.1908 -0.1136  0.2085
   61MOL   C36324483   5.548   5.561   6.173  0.3915  0.0357 -0.1838
   61MOL   C36424484   5.495   5.671   6.102  0.9897 -0.1221 -0.5172
   61MOL   C36524485   5.421   5.765   6.167 -0.0057  0.1587  0.0766
   61MOL   C36624486   5.398   5.758   6.307 -0.1437 -0.2994 -0.3273
   61MOL   O36724487   5.317   5.843   6.381 -0.4569  0.1530  0.4269
   61MOL   C36824488   5.285   5.970   6.314  0.0987 -0.2659 -0.3726
   61MOL   C36924489   5.457   5.648   6.378  0.9779  0.3369  0.4350
   61MOL   C37024490   5.541   5.556   6.315  0.0736 -0.2824  0.1275
   61MOL   C37124491   5.577   5.315   6.124  0.7577  0.5692  0.1185
   61MOL   H37224492   5.592   5.468   5.992  0.5459 -1.0140 -0.0121
   61MOL   H37324493   5.490   5.690   5.996 -0.0367  1.1755 -0.2536
   61MOL   H37424494   5.388   5.854   6.114  0.4728 -0.1994 -0.8262
   61MOL   H37524495   5.374   6.021   6.277 -1.7149  2.1647 -1.5378
   61MOL   H37624496   5.211   5.956   6.236  0.3207 -0.5806 -0.5254
   61MOL   H37724497   5.239   6.032   6.391 -0.3381  0.2650 -1.0515
   61MOL   H37824498   5.436   5.642   6.484 -1.3517  0.6406  0.0038
   61MOL   H37924499   5.580   5.478   6.379 -1.2900 -0.2020  1.0717
   61MOL   H38024500   5.591   5.293   6.230  0.2784  1.6849  0.4199
   61MOL   H38124501   5.469   5.330   6.126  0.9752  2.4546  4.2415
   61MOL   C38224502   5.618   5.194   6.035  0.0505  0.6289 -0.0922
   61MOL   C38324503   5.600   5.224   5.893 -0.2649  0.0824  0.7529
   61MOL   C38424504   5.705   5.261   5.811  0.2398  0.9416 -0.4771
   61MOL   C38524505   5.688   5.293   5.672 -0.2797 -0.5561 -0.1048
   61MOL   C38624506   5.555   5.298   5.622  0.6000  0.7493 -0.0573
   61MOL   O38724507   5.543   5.330   5.493  0.0086  0.0899  0.5066
   61MOL   C38824508   5.405   5.344   5.441 -0.6069 -0.4481  0.6025
   61MOL   C38924509   5.448   5.266   5.704 -0.6014 -0.0992 -0.2585
   61MOL   C39024510   5.470   5.232   5.840  0.7353 -0.0927  1.4445
   61MOL   C39124511   5.536   5.063   6.063  0.0750  0.7029 -0.2161
   61MOL   H39224512   5.722   5.172   6.059 -0.0357  0.4755  0.1410
   61MOL   H39324513   5.804   5.263   5.855 -0.5220  0.8360  1.3019
   61MOL   H39424514   5.768   5.327   5.609 -2.1624  0.5364 -1.9918
   61MOL   H39524515   5.356   5.414   5.509  0.2248  1.3708 -0.6312
   61MOL   H39624516   5.353   5.248   5.434 -3.1857  0.6889  3.1509
   61MOL   H39724517   5.394   5.397   5.347 -0.5978  1.1459  1.4841
   61MOL   H39824518   5.346   5.259   5.668 -1.0543  1.5512  0.6826
   61MOL   H39924519   5.389   5.217   5.909 -0.2959  1.5798  0.6448
   61MOL   H40024520   5.572   5.038   6.163  1.3316  1.1456 -0.5491
   61MOL   H40124521   5.583   4.982   6.008  1.1737 -1.0365  3.1112
   61MOL   H40224522   5.428   5.076   6.054 -0.2157 -0.2886  1.5311
   62MOL     C124523   6.928   6.264   1.672 -0.7656  0.0829 -1.0087
   62MOL     C224524   6.799   6.293   1.601  0.8312 -0.1079 -0.5128
   62MOL     C324525   6.700   6.194   1.593 -0.1013 -0.1297  0.0453
   62MOL     C424526   6.576   6.222   1.535 -0.0065 -0.0225 -0.6771
   62MOL     C524527   6.546   6.352   1.483  0.4229 -0.1287 -0.4229
   62MOL     O624528   6.426   6.371   1.427  0.2593  0.0079  0.4519
   62MOL     C724529   6.368   6.506   1.450 -0.4788  0.5919  0.5506
   62MOL     C824530   6.649   6.452   1.491  0.7585  0.1113  0.2576
   62MOL     C924531   6.775   6.423   1.550 -0.1358 -0.1035  0.2626
   62MOL    C1024532   7.038   6.211   1.576  0.1023 -0.3888  0.4857
   62MOL    H1124533   6.914   6.193   1.753 -0.6749  1.4834  0.2458
   62MOL    H1224534   6.717   6.092   1.626  3.4865  0.8277  1.4495
   62MOL    H1324535   6.502   6.144   1.542  0.8803 -0.8005  0.1445
   62MOL    H1424536   6.261   6.503   1.427 -0.2786 -3.2654 -0.1370
   62MOL    H1524537   6.366   6.537   1.555 -0.8842  0.3123  0.6283
   62MOL    H1624538   6.426   6.575   1.390 -1.6533 -0.3578 -1.7436
   62MOL    H1724539   6.632   6.554   1.461 -1.6206  0.2468  1.9173
   62MOL    H1824540   6.853   6.498   1.545  2.6660 -2.8986  0.2756
   62MOL    H1924541   6.992   6.138   1.510 -1.3539  1.7453 -0.8936
   62MOL    H2024542   7.072   6.281   1.500 -1.0115 -0.4097 -0.0362
   62MOL    H2124543   6.951   6.358   1.722  0.9933 -0.0991 -1.4502
   62MOL    C2224544   7.146   6.134   1.646 -0.3166 -0.6379 -0.7741
   62MOL    C2324545   7.246   6.076   1.540 -0.5964 -0.5949 -0.1856
   62MOL    C2424546   7.327   6.156   1.459 -0.7345 -0.2704  0.1849
   62MOL    C2524547   7.419   6.104   1.370 -0.4673 -0.6084  0.3904
   62MOL    C2624548   7.424   5.965   1.343 -0.7878  0.8721  0.2993
   62MOL    O2724549   7.515   5.923   1.250 -0.2817 -0.1459 -0.6640
   62MOL    C2824550   7.509   5.792   1.212 -0.1549  0.7104  0.7129
   62MOL    C2924551   7.338   5.879   1.415 -0.3195  0.3819  0.2756
   62MOL    C3024552   7.249   5.937   1.502 -0.0656  0.1491  0.1261
   62MOL    C3124553   7.227   6.230   1.743 -0.6820  0.0649  0.0597
   62MOL    H3224554   7.108   6.054   1.709 -0.4898  0.8531  1.0701
   62MOL    H3324555   7.315   6.261   1.483 -1.0023  0.7335 -3.9334
   62MOL    H3424556   7.478   6.173   1.311 -2.5654  1.6778  0.8490
   62MOL    H3524557   7.532   5.742   1.306  0.2619  0.0814  0.2847
   62MOL    H3624558   7.592   5.779   1.142 -0.9257 -0.2899 -0.0306
   62MOL    H3724559   7.415   5.754   1.173 -1.0903  0.9588  2.6541
   62MOL    H3824560   7.340   5.773   1.394 -1.8635  0.0575  1.7018
   62MOL    H3924561   7.188   5.865   1.554 -1.3912  2.1405  1.3819
   62MOL    H4024562   7.288   6.300   1.684 -0.0790  0.4879  1.1713
   62MOL    H4124563   7.162   6.299   1.796 -2.8531 -0.9301 -1.2432
   62MOL    C4224564   7.320   6.167   1.845  0.5812 -0.4118 -0.4092
   62MOL    C4324565   7.246   6.053   1.924 -0.5969 -0.0932  0.1618
   62MOL    C4424566   7.133   6.086   2.003  0.4700  0.6857 -0.4835
   62MOL    C4524567   7.072   5.995   2.088 -0.3894  0.8455 -0.0002
   62MOL    C4624568   7.124   5.866   2.094  0.1194 -0.1105  0.4243
   62MOL    O4724569   7.071   5.762   2.166 -0.3666  0.4630  0.1007
   62MOL    C4824570   7.024   5.792   2.297 -0.3842 -0.3224 -0.7389
   62MOL    C4924571   7.229   5.831   2.012 -0.3161  0.7785  0.5039
   62MOL    C5024572   7.289   5.925   1.928 -0.1501 -0.1220  0.2838
   62MOL    C5124573   7.397   6.275   1.931  0.9355 -0.6417  0.3929
   62MOL    H5224574   7.392   6.123   1.777 -0.1811  0.3241 -1.7255
   62MOL    H5324575   7.097   6.187   2.015  2.4282  1.1837  1.4261
   62MOL    H5424576   6.984   6.015   2.148 -1.1645 -3.6816  0.4948
   62MOL    H5524577   7.067   5.716   2.363  1.5759 -0.1683 -1.8140
   62MOL    H5624578   7.069   5.881   2.340 -1.1192 -0.8154  1.1295
   62MOL    H5724579   6.916   5.804   2.305 -0.3773 -0.8929  0.3495
   62MOL    H5824580   7.265   5.730   2.019 -0.8024  0.3134 -2.8759
   62MOL    H5924581   7.378   5.897   1.873 -0.2696 -0.9861  0.5193
   62MOL    H6024582   7.328   6.343   1.981  0.0630 -2.0110  1.0717
   62MOL    H6124583   7.441   6.337   1.853 -0.5765 -1.6945 -1.3467
   62MOL    C6224584   7.493   6.225   2.045 -0.0938 -0.3512  0.3540
   62MOL    C6324585   7.543   6.348   2.121  0.4061 -0.1969 -0.1249
   62MOL    C6424586   7.626   6.434   2.051  0.3085  0.5043  0.2773
   62MOL    C6524587   7.672   6.552   2.106 -1.1584 -0.0841 -0.2138
   62MOL    C6624588   7.638   6.580   2.243  0.3077 -0.5840  0.4226
   62MOL    O6724589   7.685   6.694   2.310  0.0074 -0.3550  0.2529
   62MOL    C6824590   7.727   6.808   2.228  0.1086  0.5284  0.9533
   62MOL    C6924591   7.557   6.491   2.319 -1.1911  0.0731 -0.7205
   62MOL    C7024592   7.502   6.373   2.256 -0.4603  0.1219  0.3809
   62MOL    C7124593   7.618   6.143   1.992  0.0472 -0.5974 -0.3663
   62MOL    H7224594   7.426   6.171   2.112 -0.7220 -1.0219 -0.8189
   62MOL    H7324595   7.663   6.418   1.951 -0.2677  0.7624  0.0171
   62MOL    H7424596   7.736   6.616   2.047 -1.1591  1.1996  1.1515
   62MOL    H7524597   7.645   6.845   2.166 -0.4919 -1.6825  0.3765
   62MOL    H7624598   7.811   6.778   2.166 -1.6314 -2.6383  0.0002
   62MOL    H7724599   7.759   6.890   2.292 -2.2835  1.1029  1.4790
   62MOL    H7824600   7.525   6.522   2.418 -0.8369 -0.0370 -0.5714
   62MOL    H7924601   7.434   6.303   2.302  0.5798 -0.6395  0.7733
   62MOL    H8024602   7.575   6.062   1.932  1.2131 -1.4758 -0.0373
   62MOL    H8124603   7.672   6.208   1.924 -1.0919 -0.0179 -0.7326
   62MOL    C8224604   7.698   6.083   2.113  0.8592 -0.9080 -0.3511
   62MOL    C8324605   7.609   5.999   2.201 -0.0894 -0.5235  0.1552
   62MOL    C8424606   7.570   5.868   2.162  0.2279  0.0099  0.0880
   62MOL    C8524607   7.499   5.787   2.252  0.0830  0.6391  0.3599
   62MOL    C8624608   7.461   5.832   2.378 -0.2245 -1.3146 -0.5171
   62MOL    O8724609   7.399   5.765   2.476  0.4409  0.1904 -0.0896
   62MOL    C8824610   7.395   5.622   2.462  0.6169  0.0131  0.4075
   62MOL    C8924611   7.491   5.963   2.416  0.3772  0.6108 -0.0808
   62MOL    C9024612   7.568   6.046   2.329  0.3706  0.9570  0.1772
   62MOL    C9124613   7.830   6.016   2.056  0.6298 -0.0780  0.6757
   62MOL    H9224614   7.735   6.168   2.170 -1.4495 -0.6099  0.7794
   62MOL    H9324615   7.594   5.836   2.062  0.2062 -0.8184  0.3474
   62MOL    H9424616   7.458   5.692   2.220 -0.7662  1.8906 -2.4096
   62MOL    H9524617   7.487   5.568   2.440  0.4336 -0.3748  0.5696
   62MOL    H9624618   7.335   5.592   2.377 -1.4586  0.7709  1.5723
   62MOL    H9724619   7.359   5.565   2.548  1.8321  0.3107  1.1291
   62MOL    H9824620   7.462   5.990   2.516 -2.4762 -0.8273 -0.4590
   62MOL    H9924621   7.605   6.139   2.369  0.3695  0.4695  1.3375
   62MOL   H10024622   7.826   5.916   2.100  2.3678  0.4358  2.0273
   62MOL   H10124623   7.819   5.996   1.949  0.4004  1.0378  0.4909
   62MOL   C10224624   7.960   6.093   2.083 -0.1200 -0.7173  0.0833
   62MOL   C10324625   0.041   6.009   2.061  0.4422 -0.6545 -0.2291
   62MOL   C10424626   0.068   5.964   1.936  0.6501  0.1815  1.0524
   62MOL   C10524627   0.176   5.872   1.913  0.3291  0.3930  0.5881
   62MOL   C10624628   0.248   5.820   2.022 -0.2716 -0.4689 -0.5863
   62MOL   O10724629   0.350   5.731   1.997 -0.0425 -0.1660 -0.1513
   62MOL   C10824630   0.300   5.599   1.963 -0.5034  0.0732 -0.3817
   62MOL   C10924631   0.219   5.863   2.154 -0.3521  0.3960  0.8575
   62MOL   C11024632   0.120   5.963   2.166 -0.7961 -0.2095 -0.6376
   62MOL   C11124633   7.961   6.213   1.991 -0.1779 -0.3988  0.1101
   62MOL   H11224634   7.967   6.124   2.187 -0.7127  2.8369 -0.8669
   62MOL   H11324635   0.006   5.995   1.853  0.9700  1.4146  1.2708
   62MOL   H11424636   0.198   5.843   1.811  0.3347  2.9116 -0.1699
   62MOL   H11524637   0.247   5.551   2.046 -1.4248 -1.2254 -1.7066
   62MOL   H11624638   0.230   5.605   1.880  2.0354  1.2061 -2.4948
   62MOL   H11724639   0.383   5.537   1.930 -0.2687  1.1839 -1.9504
   62MOL   H11824640   0.271   5.831   2.243  0.6535  0.7698  0.4150
   62MOL   H11924641   0.107   6.003   2.266 -0.2825  1.4365 -1.2193
   62MOL   H12024642   7.950   6.181   1.887 -0.2980  0.3257 -0.1042
   62MOL   H12124643   7.869   6.269   2.006 -0.2577 -0.2298 -0.9070
   62MOL   C12224644   0.047   6.305   2.010 -0.0407 -0.0301  0.0321
   62MOL   C12324645   0.072   6.354   2.153  0.3437 -0.6642  0.6657
   62MOL   C12424646   0.202   6.354   2.212 -0.0836  0.2953  0.8549
   62MOL   C12524647   0.224   6.412   2.345  0.0734 -0.0252  0.0310
   62MOL   C12624648   0.117   6.483   2.402  0.0790 -0.4652 -0.1210
   62MOL   O12724649   0.122   6.557   2.516  0.0916 -0.7247 -0.0119
   62MOL   C12824650   0.257   6.593   2.558 -0.0780 -0.0894 -0.1168
   62MOL   C12924651   8.031   6.481   2.341 -0.3189  0.3008 -0.0683
   62MOL   C13024652   8.010   6.411   2.222 -0.0514  0.0086  0.1499
   62MOL   C13124653   0.056   6.416   1.904  0.6519 -0.7081 -0.6736
   62MOL   H13224654   0.131   6.238   1.990  1.0341  1.2253  0.3273
   62MOL   H13324655   0.287   6.313   2.157 -0.9900  0.3883 -0.6465
   62MOL   H13424656   0.320   6.399   2.393  0.4964  0.0633 -0.7790
   62MOL   H13524657   0.254   6.652   2.650  0.1858  1.9781 -1.3994
   62MOL   H13624658   0.315   6.510   2.597  0.7360  1.0535  1.1461
   62MOL   H13724659   0.313   6.652   2.485  1.2779 -1.2213 -0.0138
   62MOL   H13824660   7.952   6.542   2.381 -0.4471  1.6434 -2.2671
   62MOL   H13924661   7.907   6.408   2.192 -0.2395  1.6754  0.5571
   62MOL   H14024662   7.996   6.458   1.891  0.5056 -0.5531  0.8069
   62MOL   H14124663   0.072   6.368   1.808  2.2809 -1.7194  0.0924
   62MOL   C14224664   0.167   6.532   1.927  0.3702 -0.4990  0.2726
   62MOL   C14324665   0.227   6.562   1.792  0.0998 -0.8750 -0.1512
   62MOL   C14424666   0.354   6.514   1.760 -0.8033 -0.2781 -0.4431
   62MOL   C14524667   0.398   6.522   1.627  0.0367  0.5028 -0.2561
   62MOL   C14624668   0.315   6.577   1.530  0.5118  0.1478  0.9887
   62MOL   O14724669   0.362   6.586   1.404  1.0648  0.1458  0.4342
   62MOL   C14824670   0.285   6.637   1.302  0.1512 -0.4086  0.4843
   62MOL   C14924671   0.192   6.631   1.563  0.3270 -0.7480 -0.1370
   62MOL   C15024672   0.148   6.629   1.695  0.7113  0.5339 -0.7560
   62MOL   C15124673   0.106   6.663   1.990  0.5120  0.7807  0.5006
   62MOL   H15224674   0.250   6.491   1.985  0.7197  2.2294  1.7905
   62MOL   H15324675   0.412   6.450   1.825  1.4956  0.1951 -1.9524
   62MOL   H15424676   0.479   6.460   1.592  0.6289  0.5999  0.9108
   62MOL   H15524677   0.204   6.567   1.284  2.0829 -2.8692  0.9772
   62MOL   H15624678   0.237   6.735   1.303 -0.7556 -0.8243 -1.6378
   62MOL   H15724679   0.340   6.640   1.208  0.0087  1.5421  0.4369
   62MOL   H15824680   0.124   6.679   1.494  0.1368 -0.3500  0.3262
   62MOL   H15924681   0.045   6.660   1.707  0.9403  0.9808  0.0840
   62MOL   H16024682   0.028   6.649   2.064  0.3072 -0.4881  0.0652
   62MOL   H16124683   0.067   6.726   1.911 -2.9930 -1.3494  0.4550
   62MOL   C16224684   0.217   6.746   2.073 -0.4048 -0.1217  0.5785
   62MOL   C16324685   0.157   6.869   2.132  0.3169  0.1228 -0.4837
   62MOL   C16424686   0.130   6.988   2.057 -0.1294 -0.0247  0.2848
   62MOL   C16524687   0.062   7.090   2.109  0.4641 -0.6677 -0.0139
   62MOL   C16624688   8.035   7.084   2.232 -0.3747  0.8631  0.1398
   62MOL   O16724689   7.972   7.197   2.270  0.2368  0.2471 -1.0098
   62MOL   C16824690   7.862   7.187   2.358  0.8016 -0.1797 -0.5110
   62MOL   C16924691   0.010   6.968   2.307 -0.0004 -0.5188  0.1071
   62MOL   C17024692   0.098   6.860   2.266 -0.1341  0.0642  0.1311
   62MOL   C17124693   0.341   6.783   1.996 -0.0628  0.0489 -0.7055
   62MOL   H17224694   0.248   6.692   2.162 -0.1551 -0.5122  0.2564
   62MOL   H17324695   0.177   6.999   1.960  2.8717 -0.8820  1.5969
   62MOL   H17424696   0.063   7.184   2.055 -0.3726 -0.4303  0.3633
   62MOL   H17524697   7.819   7.283   2.385  1.1153  0.4331 -2.1174
   62MOL   H17624698   7.894   7.138   2.450 -2.4189 -1.0770  0.1941
   62MOL   H17724699   7.788   7.122   2.312 -0.2502 -0.4121  1.4669
   62MOL   H17824700   8.000   6.956   2.402 -0.8700 -0.4349 -0.3401
   62MOL   H17924701   0.116   6.772   2.326  0.0126 -2.4391 -3.4277
   62MOL   H18024702   0.309   6.850   1.917  1.0785 -0.3983 -1.5652
   62MOL   H18124703   0.372   6.688   1.954  0.4747 -0.3087  0.4628
   62MOL   C18224704   0.447   6.852   2.091 -0.4385  0.3674  0.2336
   62MOL   C18324705   0.558   6.907   2.006  0.6049  0.4000 -0.2120
   62MOL   C18424706   0.605   6.837   1.893 -0.3402  0.1582 -0.2636
   62MOL   C18524707   0.711   6.876   1.809  0.6531  0.2569  0.2746
   62MOL   C18624708   0.769   7.003   1.840 -0.1650  0.2637 -0.1174
   62MOL   O18724709   0.854   7.077   1.760 -0.5940  0.3651 -0.1356
   62MOL   C18824710   0.896   7.013   1.637  0.6161 -0.1369 -0.3285
   62MOL   C18924711   0.728   7.068   1.953  0.0195  0.1520 -0.2583
   62MOL   C19024712   0.623   7.024   2.040  0.2038  0.4193  0.0764
   62MOL   C19124713   0.519   6.746   2.179  0.2637  0.6696 -0.0790
   62MOL   H19224714   0.403   6.932   2.151  1.5119  1.9548 -0.3834
   62MOL   H19324715   0.563   6.742   1.864 -0.8809  0.1216  0.6144
   62MOL   H19424716   0.745   6.812   1.728 -0.0844  0.4178 -0.1685
   62MOL   H19524717   0.955   7.078   1.572  0.8535  0.3556  0.3740
   62MOL   H19624718   0.809   6.978   1.582  0.9099 -0.4304 -0.6071
   62MOL   H19724719   0.959   6.939   1.685  0.6142 -0.7369 -1.2435
   62MOL   H19824720   0.760   7.171   1.962  0.5825 -0.0023 -0.5233
   62MOL   H19924721   0.593   7.087   2.123 -1.2108 -0.2403  0.0808
   62MOL   H20024722   0.447   6.694   2.242 -0.1508  0.2098 -0.9249
   62MOL   H20124723   0.556   6.674   2.106 -1.1870  1.3422 -1.5230
   62MOL   C20224724   0.629   6.796   2.283 -0.3955  0.0485 -0.2612
   62MOL   C20324725   0.714   6.675   2.332  1.4415  0.4698 -0.6262
   62MOL   C20424726   0.844   6.694   2.374 -0.9071 -0.1766  0.2264
   62MOL   C20524727   0.909   6.600   2.453  0.3367  0.0554 -0.5436
   62MOL   C20624728   0.852   6.472   2.481  0.4440 -0.2587 -0.4743
   62MOL   O20724729   0.926   6.377   2.552  0.0781  0.4545  0.2324
   62MOL   C20824730   0.844   6.307   2.646 -0.3917  0.1042  0.8135
   62MOL   C20924731   0.726   6.447   2.420 -0.3174  0.1288  0.2345
   62MOL   C21024732   0.657   6.548   2.356  0.2947 -0.5477 -0.0854
   62MOL   C21124733   0.569   6.878   2.399  0.2606  0.3175  0.1522
   62MOL   H21224734   0.696   6.860   2.225  0.6328 -2.0493 -1.4702
   62MOL   H21324735   0.899   6.786   2.358  1.8337 -1.7572  0.4688
   62MOL   H21424736   1.007   6.619   2.494  1.4016 -0.0877 -2.9714
   62MOL   H21524737   0.802   6.228   2.585 -0.4015  0.7025  0.0387
   62MOL   H21624738   0.901   6.266   2.729 -2.7391 -2.6715  1.1301
   62MOL   H21724739   0.765   6.361   2.699  0.7639  0.4218  2.2327
   62MOL   H21824740   0.690   6.346   2.429 -0.1638  0.2106  1.8832
   62MOL   H21924741   0.552   6.541   2.332  0.2630  1.0246 -0.4515
   62MOL   H22024742   0.517   6.806   2.463  2.9612 -0.2417  1.7858
   62MOL   H22124743   0.490   6.944   2.363 -0.5704  0.2505  1.7908
   62MOL   C22224744   0.655   6.973   2.484 -0.5064 -0.4729  0.6030
   62MOL   C22324745   0.711   7.093   2.398 -0.3334 -0.8121 -0.2946
   62MOL   C22424746   0.847   7.099   2.362  0.8836  0.2525 -0.4375
   62MOL   C22524747   0.896   7.212   2.292  0.0625  0.2426  0.1929
   62MOL   C22624748   0.817   7.322   2.256 -0.2363  0.5912 -0.0266
   62MOL   O22724749   0.868   7.436   2.195 -0.2789 -0.0549  0.1740
   62MOL   C22824750   0.990   7.424   2.121  0.1265  0.4615  0.2316
   62MOL   C22924751   0.684   7.317   2.300  0.2020 -0.4485 -0.0725
   62MOL   C23024752   0.631   7.205   2.367  0.7448  0.3363  0.5000
   62MOL   C23124753   0.564   7.028   2.601 -0.2521  0.0073 -0.5548
   62MOL   H23224754   0.737   6.913   2.523 -0.6789  0.1656  1.9725
   62MOL   H23324755   0.913   7.017   2.387  0.2127 -0.3878 -0.7506
   62MOL   H23424756   1.003   7.204   2.277 -0.2090  0.2021 -1.8127
   62MOL   H23524757   1.078   7.397   2.180 -0.6523  2.7197  2.4850
   62MOL   H23624758   0.975   7.339   2.055 -1.0967  0.4574  0.5176
   62MOL   H23724759   1.022   7.508   2.058 -0.5161  1.1725  0.8490
   62MOL   H23824760   0.614   7.395   2.272  0.0989 -1.2823 -2.2310
   62MOL   H23924761   0.525   7.210   2.387  0.8227 -0.9629  1.2992
   62MOL   H24024762   0.631   7.093   2.658  1.6352 -1.7643 -0.6785
   62MOL   H24124763   0.487   7.084   2.549  1.1193  1.0952 -1.4586
   62MOL   C24224764   0.504   6.929   2.701  0.0074 -0.0588 -0.5967
   62MOL   C24324765   0.597   6.823   2.765  0.2366 -0.3684 -0.0963
   62MOL   C24424766   0.731   6.859   2.803  0.2866 -0.7482 -0.3691
   62MOL   C24524767   0.813   6.760   2.855 -0.0914 -0.1004  0.4054
   62MOL   C24624768   0.770   6.623   2.877  0.3180 -0.1764  0.3242
   62MOL   O24724769   0.856   6.525   2.915  0.1778 -0.2408 -0.0875
   62MOL   C24824770   0.986   6.566   2.955  0.3833 -0.0540 -1.1064
   62MOL   C24924771   0.636   6.590   2.848 -0.0775  0.0445  0.2504
   62MOL   C25024772   0.552   6.692   2.795 -0.2023  0.4310  0.2063
   62MOL   C25124773   0.430   7.000   2.820  0.1917 -0.1048  0.0258
   62MOL   H25224774   0.431   6.861   2.658 -0.3512  1.1216 -1.9222
   62MOL   H25324775   0.772   6.953   2.771  1.8162 -1.3631 -0.2716
   62MOL   H25424776   0.918   6.784   2.866 -0.1776 -0.0378  1.1048
   62MOL   H25524777   1.022   6.482   3.016 -1.0335 -1.9534 -2.8253
   62MOL   H25624778   1.055   6.578   2.872 -0.0109  2.2771 -1.1217
   62MOL   H25724779   0.983   6.649   3.025  4.0887 -2.3107  1.9562
   62MOL   H25824780   0.596   6.492   2.871 -0.4438  0.1605  0.1246
   62MOL   H25924781   0.446   6.678   2.785  0.0998 -0.8557 -1.3199
   62MOL   H26024782   0.478   7.093   2.852 -3.0986  1.5632  0.3359
   62MOL   H26124783   0.435   6.934   2.907 -2.1063  0.1280  0.3453
   62MOL   C26224784   0.285   7.057   2.798 -0.0225 -1.1076 -1.5707
   62MOL   C26324785   0.290   7.161   2.688 -0.0502 -0.8759 -0.0766
   62MOL   C26424786   0.211   7.134   2.572  0.3941 -0.3267 -0.2511
   62MOL   C26524787   0.227   7.223   2.461 -0.3125  1.2516 -0.2392
   62MOL   C26624788   0.303   7.346   2.471  0.9045  0.0918 -0.8057
   62MOL   O26724789   0.316   7.438   2.372 -0.3649  0.5307  0.7090
   62MOL   C26824790   0.307   7.396   2.239  0.3603 -0.0437  0.5295
   62MOL   C26924791   0.364   7.374   2.594  0.0973  0.5747  0.4764
   62MOL   C27024792   0.364   7.281   2.697  0.2581  0.4080  0.0151
   62MOL   C27124793   0.229   7.125   2.927  0.7697 -0.4131 -0.0465
   62MOL   H27224794   0.220   6.975   2.768 -1.0077 -0.8916 -0.0489
   62MOL   H27324795   0.159   7.040   2.563 -3.1374  1.5174 -0.1166
   62MOL   H27424796   0.168   7.198   2.375  2.5947 -0.9596 -1.6822
   62MOL   H27524797   0.211   7.357   2.205  1.1192 -0.0295 -1.7213
   62MOL   H27624798   0.366   7.306   2.224  0.3319 -0.0320  0.3551
   62MOL   H27724799   0.335   7.476   2.171 -1.6943  1.6148  1.5553
   62MOL   H27824800   0.427   7.461   2.603 -1.2588  1.7536 -1.3076
   62MOL   H27924801   0.420   7.311   2.784 -0.6528  2.4830 -0.0863
   62MOL   H28024802   0.284   7.218   2.943  0.0497  0.2745 -1.5472
   62MOL   H28124803   0.124   7.141   2.904  0.8603 -0.4718 -0.5021
   62MOL   C28224804   0.238   7.055   3.067  0.5927 -0.6770  0.0014
   62MOL   C28324805   0.105   7.085   3.143  0.1264  0.2914 -0.1282
   62MOL   C28424806   0.019   6.978   3.175 -0.3972 -0.0375 -1.0130
   62MOL   C28524807   7.928   7.011   3.219 -0.3047 -0.1746  0.4630
   62MOL   C28624808   7.889   7.143   3.243  0.1385  0.0666  0.1429
   62MOL   O28724809   7.763   7.171   3.293  0.0779  0.1268  0.3347
   62MOL   C28824810   7.678   7.061   3.328  0.8078 -0.3667 -0.0148
   62MOL   C28924811   7.974   7.244   3.207 -0.8048  0.0325  0.3426
   62MOL   C29024812   0.068   7.219   3.161 -0.2377  0.1774  0.3247
   62MOL   C29124813   0.367   7.086   3.149 -0.0178  0.6411  0.1967
   62MOL   H29224814   0.241   6.951   3.034  2.0568 -0.5691 -0.2402
   62MOL   H29324815   0.051   6.879   3.144  3.3378  1.2334 -1.4148
   62MOL   H29424816   7.859   6.930   3.234  2.0520 -3.2113 -3.9501
   62MOL   H29524817   7.589   7.099   3.379  1.8656  1.6578  0.3599
   62MOL   H29624818   7.647   7.005   3.240  0.6377  0.1052 -0.2541
   62MOL   H29724819   7.721   6.999   3.407  0.9445  1.0354  1.0301
   62MOL   H29824820   7.947   7.348   3.214 -0.3290  0.2559 -0.9165
   62MOL   H29924821   0.121   7.304   3.121 -0.7474  0.9011  1.1601
   62MOL   H30024822   0.451   7.063   3.084  0.7497  2.9027  0.3699
   62MOL   H30124823   0.365   7.193   3.167 -0.9932  0.9124 -1.4904
   62MOL   C30224824   0.395   7.014   3.284  0.3609 -0.5496  0.0193
   62MOL   C30324825   0.378   6.862   3.264 -0.2326 -1.0161 -0.1284
   62MOL   C30424826   0.473   6.791   3.187  0.3897  0.0541  0.0862
   62MOL   C30524827   0.453   6.653   3.168 -0.1257 -0.5468  0.0851
   62MOL   C30624828   0.350   6.585   3.236 -0.1250  0.3957  0.0021
   62MOL   O30724829   0.337   6.444   3.220  0.9662 -0.2379  0.4255
   62MOL   C30824830   0.213   6.390   3.270  0.2988 -0.6064 -0.3914
   62MOL   C30924831   0.261   6.661   3.315  0.2357  0.7924 -0.0921
   62MOL   C31024832   0.274   6.797   3.330  0.1998  0.6700 -0.0176
   62MOL   C31124833   0.534   7.045   3.345 -0.1648  0.2766  0.1052
   62MOL   H31224834   0.316   7.047   3.352 -0.6828 -0.9572 -0.9805
   62MOL   H31324835   0.558   6.838   3.139  2.1643 -1.2133  1.9410
   62MOL   H31424836   0.523   6.593   3.112  0.7739 -1.2016  1.9016
   62MOL   H31524837   0.125   6.433   3.224  0.3648 -0.3698 -0.2945
   62MOL   H31624838   0.200   6.397   3.378  1.4356 -0.1789 -0.2710
   62MOL   H31724839   0.221   6.282   3.252 -0.9544 -0.7302 -0.2612
   62MOL   H31824840   0.180   6.624   3.377  0.5037  0.0395 -0.1837
   62MOL   H31924841   0.205   6.857   3.388  1.1223  0.2086  1.5782
   62MOL   H32024842   0.617   6.995   3.295 -0.3762 -0.3512  0.3836
   62MOL   H32124843   0.537   6.990   3.439 -1.9541  0.1445  0.1045
   62MOL   C32224844   0.566   7.197   3.386  0.9649  0.1325  0.6307
   62MOL   C32324845   0.594   7.283   3.265  0.2144  0.6179 -0.3460
   62MOL   C32424846   0.566   7.424   3.262  0.5341  0.2118  0.2302
   62MOL   C32524847   0.591   7.500   3.145  0.6806 -0.2343  0.4379
   62MOL   C32624848   0.646   7.441   3.033  0.1985  0.2399  0.7096
   62MOL   O32724849   0.650   7.503   2.908 -0.6507  0.6011  0.0743
   62MOL   C32824850   0.709   7.432   2.800 -0.2299  0.4705 -0.3032
   62MOL   C32924851   0.695   7.309   3.042  0.1902 -0.4564 -0.5316
   62MOL   C33024852   0.670   7.232   3.156  0.2605  0.2613 -0.0487
   62MOL   C33124853   0.689   7.214   3.485 -0.5651  0.0989 -0.1498
   62MOL   H33224854   0.472   7.240   3.422 -0.4419 -0.3131 -2.3872
   62MOL   H33324855   0.520   7.466   3.350  0.5540 -0.7599  0.7074
   62MOL   H33424856   0.568   7.606   3.148 -2.0598 -0.8293  4.1176
   62MOL   H33524857   0.667   7.334   2.778 -1.1289  0.3642  1.7541
   62MOL   H33624858   0.816   7.415   2.813  0.1990  2.7651 -0.5694
   62MOL   H33724859   0.688   7.500   2.717 -0.1903  2.4286  1.2242
   62MOL   H33824860   0.747   7.263   2.960  0.6879 -1.6603  0.4480
   62MOL   H33924861   0.706   7.130   3.159  0.0711  0.2072  0.3496
   62MOL   H34024862   0.770   7.155   3.441 -1.6408 -1.2470 -0.3562
   62MOL   H34124863   0.715   7.320   3.489  0.5626 -0.1942  0.2843
   62MOL   C34224864   0.659   7.170   3.628  0.4390  0.3830 -0.0464
   62MOL   C34324865   0.589   7.281   3.714 -0.7398 -0.3411 -0.4383
   62MOL   C34424866   0.665   7.357   3.808  0.6074 -0.3386  0.2837
   62MOL   C34524867   0.606   7.465   3.879 -0.1690  0.4644 -0.4783
   62MOL   C34624868   0.468   7.491   3.865  0.3015 -1.0094  0.1184
   62MOL   O34724869   0.400   7.589   3.935 -0.4055 -0.0485  0.1148
   62MOL   C34824870   0.479   7.684   3.998  0.0059 -0.3546 -0.6825
   62MOL   C34924871   0.393   7.421   3.771 -0.2472  1.1692  0.8362
   62MOL   C35024872   0.454   7.317   3.693 -0.7562 -0.2976 -0.3116
   62MOL   C35124873   0.781   7.108   3.708 -0.0828  0.1439 -0.3961
   62MOL   H35224874   0.579   7.095   3.630  0.5319  0.2798 -0.1982
   62MOL   H35324875   0.772   7.343   3.819  0.3295 -0.6203  2.7930
   62MOL   H35424876   0.664   7.519   3.952 -0.0021  2.0793 -1.7688
   62MOL   H35524877   0.544   7.736   3.927 -0.1797 -0.0613 -0.6382
   62MOL   H35624878   0.411   7.758   4.041 -1.7016 -1.0598 -2.0981
   62MOL   H35724879   0.538   7.653   4.085  0.4820  2.3516 -0.0060
   62MOL   H35824880   0.288   7.443   3.761 -1.2212 -2.7087  1.6173
   62MOL   H35924881   0.399   7.260   3.619 -1.1830 -0.1774 -0.0847
   62MOL   H36024882   0.863   7.180   3.713  0.9831 -1.2073  2.8960
   62MOL   H36124883   0.752   7.091   3.812  1.6957 -0.6282 -0.0098
   62MOL   C36224884   0.843   6.977   3.644  0.6454  0.6303 -0.2141
   62MOL   C36324885   0.742   6.870   3.642  0.6101  0.6794 -0.1099
   62MOL   C36424886   0.703   6.819   3.518 -0.0272  0.2548 -0.1906
   62MOL   C36524887   0.610   6.708   3.505  0.7916  0.0746 -0.4227
   62MOL   C36624888   0.555   6.658   3.627  0.2222  0.1723 -0.1860
   62MOL   O36724889   0.475   6.549   3.628  0.1621 -0.6476 -0.3860
   62MOL   C36824890   0.511   6.436   3.543  0.0942 -0.3268 -0.1857
   62MOL   C36924891   0.590   6.714   3.748  0.3071 -0.4259  0.9769
   62MOL   C37024892   0.684   6.819   3.762  0.4301 -0.7215 -0.4074
   62MOL   C37124893   0.973   6.937   3.728 -0.4858 -0.2277  0.0561
   62MOL   H37224894   0.871   6.991   3.540  0.4704 -2.2338 -0.6920
   62MOL   H37324895   0.764   6.831   3.430  0.6985  1.6358  0.5005
   62MOL   H37424896   0.597   6.657   3.410 -1.1168 -0.9284  0.3378
   62MOL   H37524897   0.458   6.347   3.576  2.8909 -2.1628 -0.5201
   62MOL   H37624898   0.482   6.465   3.442 -2.2300 -1.2462  0.1808
   62MOL   H37724899   0.618   6.416   3.541  0.2541  0.5913 -1.6266
   62MOL   H37824900   0.567   6.659   3.838  0.8158 -2.5707 -0.1806
   62MOL   H37924901   0.716   6.852   3.860 -0.1405  0.9777 -0.7774
   62MOL   H38024902   1.059   7.005   3.730 -0.0023 -0.8114 -0.8468
   62MOL   H38124903   0.943   6.931   3.833 -2.2948  2.6042 -0.2613
   62MOL   C38224904   1.043   6.808   3.677  0.6843 -0.0059  0.6731
   62MOL   C38324905   1.147   6.751   3.778  0.4624 -0.1834 -0.7898
   62MOL   C38424906   1.265   6.821   3.800 -0.3116 -0.2800  0.0395
   62MOL   C38524907   1.366   6.765   3.880 -0.5679 -0.0936  0.3447
   62MOL   C38624908   1.361   6.631   3.924  0.9845 -0.1953  0.5755
   62MOL   O38724909   1.462   6.564   3.986 -0.0150 -0.4464 -0.7414
   62MOL   C38824910   1.592   6.619   3.971 -0.2286  0.1994  0.2167
   62MOL   C38924911   1.246   6.558   3.898  0.2532  0.4996 -0.2541
   62MOL   C39024912   1.131   6.620   3.838 -0.7614 -0.5296  0.2335
   62MOL   C39124913   1.119   6.825   3.542 -0.2925  0.3637 -0.4513
   62MOL   H39224914   0.969   6.729   3.665  2.3230 -1.2795 -1.3688
   62MOL   H39324915   1.280   6.921   3.760 -1.5973 -0.3257 -0.5811
   62MOL   H39424916   1.460   6.816   3.895 -0.4272 -0.3510  0.3432
   62MOL   H39524917   1.632   6.650   3.874 -1.4264  0.3229 -0.2424
   62MOL   H39624918   1.648   6.530   3.999  1.0335  0.6523 -0.8399
   62MOL   H39724919   1.607   6.691   4.051  1.4749  1.5978 -1.3194
   62MOL   H39824920   1.240   6.456   3.933  1.0043  0.9213  1.1284
   62MOL   H39924921   1.049   6.549   3.829 -0.5112 -0.6152 -1.6223
   62MOL   H40024922   1.189   6.909   3.536  0.7380 -0.4729 -0.2502
   62MOL   H40124923   1.042   6.850   3.469  2.5442 -0.3656 -3.8215
   62MOL   H40224924   1.157   6.733   3.498  0.7613  0.6495 -0.1335
   63MOL     C124925   0.037   3.580   1.296 -0.3119 -0.7432  0.5850
   63MOL     C224926   7.999   3.459   1.349 -0.0164 -0.3266 -0.3319
   63MOL     C324927   7.865   3.439   1.322  0.0337 -0.1337 -0.5460
   63MOL     C424928   7.795   3.334   1.383 -0.1437  0.0159  0.0057
   63MOL     C524929   7.860   3.237   1.466  0.2864 -0.6100 -0.8589
   63MOL     O624930   7.801   3.124   1.516  0.8413 -0.2662 -0.3725
   63MOL     C724931   7.684   3.089   1.453 -0.2121 -0.0730  0.0373
   63MOL     C824932   7.992   3.268   1.506  0.3050  0.3306  0.7570
   63MOL     C924933   0.018   3.380   1.447 -0.1395 -0.3429 -0.0531
   63MOL    C1024934   0.099   3.670   1.412  0.4681 -0.0375 -0.5942
   63MOL    H1124935   8.014   3.651   1.242 -0.0676  0.7737  2.2137
   63MOL    H1224936   7.819   3.503   1.248  3.3455  1.9426 -0.8789
   63MOL    H1324937   7.693   3.323   1.348 -0.4903  2.6800  0.0539
   63MOL    H1424938   7.665   3.116   1.350  0.8112 -0.4523 -0.2578
   63MOL    H1524939   7.669   2.981   1.462 -0.1635 -0.1703 -1.0120
   63MOL    H1624940   7.596   3.135   1.498 -0.3398  0.0550 -0.3395
   63MOL    H1724941   0.006   3.207   1.577  0.0267  2.3187  2.7075
   63MOL    H1824942   0.121   3.394   1.476 -0.3723  1.1592  0.1142
   63MOL    H1924943   0.023   3.729   1.462 -0.7201 -2.7824  0.9229
   63MOL    H2024944   0.144   3.611   1.492 -0.6510 -1.1730 -0.7895
   63MOL    H2124945   0.108   3.558   1.216 -1.2160  0.9308 -0.7045
   63MOL    C2224946   0.210   3.775   1.360  0.7060 -0.6501 -0.7858
   63MOL    C2324947   0.213   3.907   1.439  1.0730 -0.2982  0.1343
   63MOL    C2424948   0.224   4.028   1.367  0.1748  0.2712 -0.0088
   63MOL    C2524949   0.238   4.144   1.439  0.7444 -0.1220 -0.7810
   63MOL    C2624950   0.251   4.148   1.584  0.5210 -0.3198  0.4412
   63MOL    O2724951   0.272   4.264   1.659  0.0915  0.0498  0.1664
   63MOL    C2824952   0.289   4.386   1.593  0.1129  0.9017 -0.0653
   63MOL    C2924953   0.236   4.029   1.650  0.2788 -0.5516  0.5232
   63MOL    C3024954   0.227   3.906   1.575  0.1680  0.4445  0.2098
   63MOL    C3124955   0.348   3.704   1.351 -0.3679  0.5289  0.2628
   63MOL    H3224956   0.177   3.805   1.261 -0.0528  1.2074  0.0218
   63MOL    H3324957   0.217   4.040   1.260 -2.0216  0.2949  0.1255
   63MOL    H3424958   0.240   4.239   1.387  1.1082  0.6610  0.6223
   63MOL    H3524959   0.188   4.414   1.561 -1.6786 -0.6326  3.9204
   63MOL    H3624960   0.357   4.384   1.508 -0.6809  1.4946 -0.7344
   63MOL    H3724961   0.309   4.467   1.663  0.9072  0.5951  0.0562
   63MOL    H3824962   0.234   4.023   1.758  0.5637  0.1132  0.5711
   63MOL    H3924963   0.231   3.808   1.622 -2.8789  0.2091  0.0505
   63MOL    H4024964   0.351   3.625   1.426  1.8349  0.2134 -0.1305
   63MOL    H4124965   0.334   3.643   1.261 -1.1219  0.8512  0.1593
   63MOL    C4224966   0.483   3.782   1.350 -0.2100  0.6469 -0.3472
   63MOL    C4324967   0.491   3.867   1.225 -0.2921 -0.1560  1.7117
   63MOL    C4424968   0.541   3.999   1.238  0.6933  0.1174 -0.1156
   63MOL    C4524969   0.552   4.086   1.128  0.2116 -0.0833  0.3171
   63MOL    C4624970   0.497   4.051   0.999 -0.1608 -0.4859 -0.6161
   63MOL    O4724971   0.485   4.128   0.888  0.1650 -0.5326  0.5844
   63MOL    C4824972   0.501   4.272   0.901  0.4184  0.2556 -0.2903
   63MOL    C4924973   0.444   3.919   0.987  0.4251 -0.8640  0.3804
   63MOL    C5024974   0.437   3.827   1.096  0.2486 -0.1073 -0.2447
   63MOL    C5124975   0.602   3.677   1.341  0.3878 -0.6681 -0.5076
   63MOL    H5224976   0.485   3.834   1.446  0.5953  0.2281 -0.1391
   63MOL    H5324977   0.583   4.025   1.334  1.1278  0.7198 -0.4696
   63MOL    H5424978   0.593   4.184   1.147  0.3303 -0.2174  0.7824
   63MOL    H5524979   0.477   4.310   0.802  0.2509  1.8419  0.3469
   63MOL    H5624980   0.431   4.315   0.973 -0.5126 -1.3787 -0.1881
   63MOL    H5724981   0.599   4.306   0.933  0.0725  1.0180 -0.0305
   63MOL    H5824982   0.418   3.897   0.885  0.8640  0.1843  0.0344
   63MOL    H5924983   0.388   3.733   1.076 -2.3946  1.4969 -1.5282
   63MOL    H6024984   0.592   3.635   1.241  0.1965  0.4064 -0.9426
   63MOL    H6124985   0.584   3.591   1.406  0.1683 -1.0522 -1.0742
   63MOL    C6224986   0.743   3.727   1.358 -0.5971 -0.0995  0.8380
   63MOL    C6324987   0.846   3.611   1.343  0.2744  0.3259 -0.9033
   63MOL    C6424988   0.934   3.597   1.238 -0.0475 -0.3655  0.2710
   63MOL    C6524989   1.025   3.484   1.233  0.3425  0.0996  0.5254
   63MOL    C6624990   1.036   3.390   1.337  0.1767  0.6661  0.5578
   63MOL    O6724991   1.132   3.289   1.325  0.0765  0.3082 -0.2474
   63MOL    C6824992   1.162   3.209   1.440  0.2679 -0.0272 -0.5196
   63MOL    C6924993   0.943   3.401   1.444 -0.0664 -0.1561 -0.4334
   63MOL    C7024994   0.849   3.511   1.444  0.6400 -0.5779 -0.4335
   63MOL    C7124995   0.775   3.823   1.480  0.6053  0.2274  0.5663
   63MOL    H7224996   0.763   3.784   1.267 -0.9372  1.5917  1.8010
   63MOL    H7324997   0.927   3.671   1.160 -0.6495 -0.0062  0.6603
   63MOL    H7424998   1.096   3.477   1.151 -2.0305  1.6358 -1.7575
   63MOL    H7524999   1.069   3.174   1.486  0.2017 -0.5677 -1.0542
   63MOL    H7625000   1.225   3.254   1.516  0.3085 -0.8498 -0.0498
   63MOL    H7725001   1.214   3.122   1.400 -0.8376 -0.9323 -0.0514
   63MOL    H7825002   0.941   3.329   1.525 -1.0358  1.0762  0.6464
   63MOL    H7925003   0.782   3.527   1.528 -1.3160 -1.2672 -1.8280
   63MOL    H8025004   0.712   3.911   1.468 -0.2660 -0.6175 -1.2488
   63MOL    H8125005   0.755   3.770   1.573  2.6420  1.2625  1.6318
   63MOL    C8225006   0.922   3.856   1.496 -0.3463  0.0664 -0.4462
   63MOL    C8325007   1.001   3.898   1.369  0.5349  0.1854 -0.2697
   63MOL    C8425008   0.939   3.987   1.275  0.0489  0.4091 -0.4614
   63MOL    C8525009   1.017   4.021   1.162 -0.3953 -0.3953  0.2161
   63MOL    C8625010   1.149   3.980   1.152  0.0520 -0.1702  0.2580
   63MOL    O8725011   1.208   4.005   1.028  0.1781  0.3551  0.1723
   63MOL    C8825012   1.323   3.926   0.987  0.3026  0.7027 -0.4570
   63MOL    C8925013   1.214   3.909   1.254 -0.2025  0.1780  0.2455
   63MOL    C9025014   1.140   3.866   1.361  0.3420  0.8685 -0.6876
   63MOL    C9125015   0.939   3.969   1.591 -0.1416  0.2678 -0.0110
   63MOL    H9225016   0.968   3.769   1.544  0.2389  0.8023  0.3319
   63MOL    H9325017   0.835   4.017   1.280 -0.1331 -0.2886  0.0013
   63MOL    H9425018   0.978   4.080   1.081 -1.1696  0.3194  1.0971
   63MOL    H9525019   1.312   3.819   1.005  0.9546  1.2102  3.3779
   63MOL    H9625020   1.416   3.953   1.037  0.3489  0.9833 -0.7005
   63MOL    H9725021   1.343   3.956   0.885 -1.2089  1.6674 -0.4851
   63MOL    H9825022   1.319   3.886   1.250 -0.7620 -2.7014  1.3402
   63MOL    H9925023   1.186   3.827   1.451  0.3367  0.5111 -0.8405
   63MOL   H10025024   1.045   3.971   1.614 -0.4236  1.6840  1.2929
   63MOL   H10125025   0.906   4.067   1.555  1.3077  1.5500  2.0534
   63MOL   C10225026   0.867   3.955   1.726 -0.2284 -0.3802  0.9690
   63MOL   C10325027   0.962   4.000   1.837 -0.3845 -0.9483 -0.4018
   63MOL   C10425028   1.029   4.124   1.827  0.1355  0.2217  0.3751
   63MOL   C10525029   1.118   4.175   1.920  0.6034 -0.7586 -0.2318
   63MOL   C10625030   1.131   4.101   2.042  0.5762 -0.3738 -0.2129
   63MOL   O10725031   1.196   4.140   2.154  0.1420 -0.3289  0.2806
   63MOL   C10825032   1.286   4.248   2.152 -0.0657  0.3460  0.1926
   63MOL   C10925033   1.086   3.969   2.047 -0.2904  0.5726  0.3605
   63MOL   C11025034   1.001   3.919   1.949 -0.3535 -0.1935  0.4574
   63MOL   C11125035   0.734   4.039   1.738 -0.8580 -0.2249  0.6392
   63MOL   H11225036   0.845   3.849   1.744  5.0456 -1.9330 -0.7211
   63MOL   H11325037   1.005   4.190   1.744  0.8947  0.6493  0.4842
   63MOL   H11425038   1.167   4.269   1.900  1.2295 -1.6747 -3.2920
   63MOL   H11525039   1.344   4.262   2.244  0.9681  1.0177 -0.5501
   63MOL   H11625040   1.353   4.237   2.067 -1.7216 -0.7320 -0.9883
   63MOL   H11725041   1.226   4.338   2.137 -1.4289 -0.8084 -1.3972
   63MOL   H11825042   1.107   3.906   2.132 -0.2532  1.5167  1.0508
   63MOL   H11925043   0.958   3.820   1.956  0.0589 -0.7152 -3.2072
   63MOL   H12025044   0.758   4.144   1.749  1.4533 -0.6863  0.2325
   63MOL   H12125045   0.668   4.039   1.651 -0.2608  3.4636  0.1260
   63MOL   C12225046   0.637   3.993   1.850  0.4093 -0.0489  0.2101
   63MOL   C12325047   0.594   3.848   1.840  0.0267  0.3008  0.3258
   63MOL   C12425048   0.506   3.806   1.740  0.2581 -0.0533 -0.3089
   63MOL   C12525049   0.456   3.676   1.743 -0.4011  0.0141  0.2236
   63MOL   C12625050   0.486   3.579   1.839 -0.6550  0.1265 -0.6677
   63MOL   O12725051   0.423   3.457   1.835  0.0035  0.4283 -0.1955
   63MOL   C12825052   0.460   3.363   1.935  0.7011 -0.1792 -0.8648
   63MOL   C12925053   0.569   3.623   1.940  0.3537 -0.7138 -0.0457
   63MOL   C13025054   0.629   3.755   1.940 -0.0818  0.7517 -0.8606
   63MOL   C13125055   0.515   4.086   1.863 -0.6638 -0.6233  0.2625
   63MOL   H13225056   0.696   4.005   1.942 -1.3360 -0.1392  1.3630
   63MOL   H13325057   0.472   3.877   1.666 -1.2849 -0.4361  0.0215
   63MOL   H13425058   0.392   3.650   1.661 -1.0919 -0.7203  0.9805
   63MOL   H13525059   0.563   3.332   1.924  1.3232  1.7406 -0.7034
   63MOL   H13625060   0.442   3.419   2.027  1.2464  1.8383 -1.9393
   63MOL   H13725061   0.391   3.279   1.931  0.3201  0.1491 -1.3638
   63MOL   H13825062   0.589   3.560   2.026 -0.3452 -2.6299 -1.2444
   63MOL   H13925063   0.689   3.788   2.023  2.5143 -0.5101 -2.1668
   63MOL   H14025064   0.421   4.035   1.880 -0.5654 -0.6810  0.6386
   63MOL   H14125065   0.492   4.136   1.769  0.3182 -1.9643 -0.7051
   63MOL   C14225066   0.529   4.205   1.962 -0.2100  0.0998  0.3504
   63MOL   C14325067   0.652   4.293   1.928  0.3602 -0.2698  0.4074
   63MOL   C14425068   0.655   4.367   1.807 -0.1357  0.8071  0.8208
   63MOL   C14525069   0.763   4.443   1.770  0.1909 -0.1908 -0.2952
   63MOL   C14625070   0.880   4.450   1.850  0.2029  0.7473 -0.0309
   63MOL   O14725071   0.986   4.530   1.816 -0.7487 -0.5134  0.0488
   63MOL   C14825072   0.955   4.643   1.734 -0.5417  0.7430  0.4133
   63MOL   C14925073   0.875   4.377   1.968  0.2633  0.0788 -0.4519
   63MOL   C15025074   0.767   4.300   2.008  0.6195 -0.0496 -0.4739
   63MOL   C15125075   0.396   4.286   1.973 -0.5267  0.9989 -0.3483
   63MOL   H15225076   0.538   4.153   2.057  1.5907  1.0682  0.7263
   63MOL   H15325077   0.568   4.358   1.743  0.0014 -0.2756  0.7775
   63MOL   H15425078   0.755   4.488   1.672  2.4541  1.3495  0.1862
   63MOL   H15525079   0.912   4.610   1.639 -2.2129  1.5712  0.8546
   63MOL   H15625080   0.882   4.712   1.775 -0.5147  1.3723 -0.5618
   63MOL   H15725081   1.046   4.697   1.708  0.3981 -0.5392  1.0258
   63MOL   H15825082   0.965   4.380   2.029 -0.4519 -0.8855  0.6817
   63MOL   H15925083   0.769   4.249   2.103 -1.0564 -0.6624 -0.7435
   63MOL   H16025084   0.316   4.217   1.998 -1.1110  1.9855  0.5244
   63MOL   H16125085   0.368   4.330   1.877 -0.2674  0.2568 -0.7652
   63MOL   C16225086   0.399   4.407   2.076 -0.2273  0.0624 -1.0060
   63MOL   C16325087   0.431   4.350   2.214  0.6423 -0.0171 -0.4260
   63MOL   C16425088   0.337   4.265   2.277  0.1814 -0.9991  0.2100
   63MOL   C16525089   0.377   4.208   2.400  0.7026  0.4108  0.8443
   63MOL   C16625090   0.502   4.246   2.459  0.3891 -0.3020  0.5425
   63MOL   O16725091   0.555   4.198   2.576  0.4265  0.0376 -0.5419
   63MOL   C16825092   0.476   4.115   2.656 -0.2742 -0.5578  0.2212
   63MOL   C16925093   0.583   4.340   2.397  0.3699  0.5281 -0.5001
   63MOL   C17025094   0.553   4.387   2.276 -0.5409 -0.4024  0.1307
   63MOL   C17125095   0.265   4.494   2.085  0.1526  0.3344 -0.2109
   63MOL   H17225096   0.483   4.471   2.048  2.4990 -3.2501 -0.6829
   63MOL   H17325097   0.239   4.251   2.233 -0.4440  1.5358  0.7033
   63MOL   H17425098   0.314   4.127   2.433 -0.7961  1.0755 -0.3226
   63MOL   H17525099   0.545   4.062   2.722 -0.0340 -0.0770  0.3569
   63MOL   H17625100   0.440   4.027   2.602 -1.8440  0.9983 -1.3325
   63MOL   H17725101   0.403   4.171   2.714  1.1861  1.5203  0.0979
   63MOL   H17825102   0.670   4.376   2.450  1.1771  0.4284 -1.7342
   63MOL   H17925103   0.625   4.451   2.227 -1.1063  1.0135  1.1085
   63MOL   H18025104   0.280   4.552   2.176  1.0018  1.8347 -1.2941
   63MOL   H18125105   0.180   4.429   2.105  1.5347 -1.2269  0.7664
   63MOL   C18225106   0.243   4.581   1.956  0.0415 -0.5071  0.1278
   63MOL   C18325107   0.359   4.681   1.938 -0.1595  0.6372 -0.1739
   63MOL   C18425108   0.354   4.801   2.018 -0.3317  0.0958 -0.3644
   63MOL   C18525109   0.469   4.876   2.030  0.6460 -0.1512  0.7035
   63MOL   C18625110   0.578   4.852   1.944 -0.9035  0.6461  0.6320
   63MOL   O18725111   0.695   4.925   1.953 -0.2795  0.5996  0.5875
   63MOL   C18825112   0.732   4.985   2.077 -0.2846 -0.1012  0.0893
   63MOL   C18925113   0.576   4.745   1.853 -0.4032 -0.7567 -0.4010
   63MOL   C19025114   0.467   4.660   1.849  0.7071  0.9028  0.3716
   63MOL   C19125115   0.103   4.659   1.955  0.3236 -0.0617 -0.5133
   63MOL   H19225116   0.237   4.519   1.866 -3.8898 -1.1402  0.7490
   63MOL   H19325117   0.276   4.813   2.092  0.2571  1.4849  0.0419
   63MOL   H19425118   0.477   4.961   2.096  0.6660  1.5076 -1.3599
   63MOL   H19525119   0.840   4.995   2.089 -0.5192  3.9250 -0.4624
   63MOL   H19625120   0.715   4.901   2.145 -2.7567  1.4821  1.4773
   63MOL   H19725121   0.678   5.070   2.117 -0.3809  0.4030 -1.0970
   63MOL   H19825122   0.652   4.725   1.778  0.9772 -0.3549  0.8713
   63MOL   H19925123   0.480   4.571   1.789 -0.1204  0.7619  0.3993
   63MOL   H20025124   0.094   4.719   2.045  3.4317 -0.9169  0.4378
   63MOL   H20125125   0.117   4.719   1.864  1.2207 -0.2613 -0.5119
   63MOL   C20225126   8.018   4.572   1.938  0.1334  0.1229  0.0793
   63MOL   C20325127   7.995   4.514   1.798 -0.8508 -0.2559 -0.3973
   63MOL   C20425128   7.997   4.373   1.784  0.6127 -0.5648 -0.9902
   63MOL   C20525129   7.974   4.310   1.660  0.1573  0.4300 -0.2575
   63MOL   C20625130   7.945   4.392   1.550 -0.0127  0.2191 -0.5521
   63MOL   O20725131   7.907   4.327   1.438  0.0183  0.2499 -0.1973
   63MOL   C20825132   7.891   4.398   1.318  0.6679 -0.1935  0.0162
   63MOL   C20925133   7.956   4.535   1.566  0.4388 -0.1913 -0.7681
   63MOL   C21025134   7.965   4.601   1.694  0.4044 -0.4734 -0.0180
   63MOL   C21125135   7.883   4.637   1.983  1.0660 -0.5333  0.3815
   63MOL   H21225136   8.031   4.484   2.001  0.1525 -1.7462 -2.4782
   63MOL   H21325137   8.008   4.307   1.869  0.3181 -1.2680 -1.4892
   63MOL   H21425138   7.962   4.203   1.651  1.3968  0.2214  0.5107
   63MOL   H21525139   7.804   4.463   1.311 -0.9992 -2.5410 -2.1504
   63MOL   H21625140   7.975   4.464   1.297  1.3582 -1.1056 -0.1005
   63MOL   H21725141   7.882   4.319   1.244  0.5340 -2.2898  2.2040
   63MOL   H21825142   7.941   4.595   1.478  0.9691  0.9519 -0.0897
   63MOL   H21925143   7.970   4.709   1.702 -0.6120 -0.1574 -3.1040
   63MOL   H22025144   7.825   4.673   1.898  0.6885  0.0444  0.8793
   63MOL   H22125145   7.894   4.733   2.033  0.9627 -1.7106  2.7748
   63MOL   C22225146   7.795   4.544   2.078 -0.0723 -0.3082  0.2576
   63MOL   C22325147   7.875   4.520   2.206  0.1201  0.2285 -0.4057
   63MOL   C22425148   7.942   4.394   2.226  1.5351  0.1817 -0.7171
   63MOL   C22525149   8.015   4.368   2.345 -0.2102 -0.2993 -0.6761
   63MOL   C22625150   8.018   4.461   2.451  0.0997 -0.0520  0.6174
   63MOL   O22725151   0.057   4.451   2.563 -0.3067 -0.6272 -0.5088
   63MOL   C22825152   0.089   4.315   2.601  0.4149 -0.7611 -0.7135
   63MOL   C22925153   7.952   4.586   2.432 -0.1267 -0.0377  0.8189
   63MOL   C23025154   7.883   4.613   2.309 -0.2662  0.7121 -0.4580
   63MOL   C23125155   7.650   4.597   2.110 -0.6184  0.0926  0.5746
   63MOL   H23225156   7.796   4.448   2.026  1.2260 -0.7652  1.1191
   63MOL   H23325157   7.938   4.315   2.153  0.6693  0.5470 -1.0768
   63MOL   H23425158   0.030   4.275   2.343 -2.0036 -1.3797 -0.9371
   63MOL   H23525159   0.170   4.270   2.544  1.1215  1.1986 -1.2573
   63MOL   H23625160   0.113   4.305   2.707  2.1372  0.8813 -0.9418
   63MOL   H23725161   8.039   4.252   2.597  0.3834 -0.8028  0.4623
   63MOL   H23825162   7.953   4.657   2.513 -0.0979  3.0935 -1.8395
   63MOL   H23925163   7.825   4.702   2.291  2.8263  3.2298  1.3951
   63MOL   H24025164   7.631   4.554   2.208 -1.8566 -0.5568  0.0606
   63MOL   H24125165   7.659   4.701   2.140 -1.0292  1.0249 -2.3980
   63MOL   C24225166   7.542   4.568   2.005 -0.2125 -0.3644  0.1653
   63MOL   C24325167   7.553   4.427   1.949 -0.8539  0.0972  0.2556
   63MOL   C24425168   7.623   4.397   1.830  0.4540  0.3130  0.0096
   63MOL   C24525169   7.648   4.266   1.790  0.2596  0.1871 -0.1089
   63MOL   C24625170   7.597   4.158   1.865 -0.0664  0.0260 -0.3406
   63MOL   O24725171   7.607   4.033   1.818  0.5860 -0.2050 -0.4712
   63MOL   C24825172   7.573   3.916   1.889 -0.6001 -0.6006  0.3077
   63MOL   C24925173   7.523   4.190   1.984  0.1573 -0.2239  0.0882
   63MOL   C25025174   7.511   4.323   2.030 -0.1119  0.2959 -0.3734
   63MOL   C25125175   7.408   4.610   2.069  0.3768  0.3690  0.0692
   63MOL   H25225176   7.564   4.636   1.923 -1.6765  1.8301  1.5475
   63MOL   H25325177   7.660   4.474   1.765  0.4692  0.3941  0.1140
   63MOL   H25425178   7.717   4.242   1.710 -0.5321 -0.6510 -0.5548
   63MOL   H25525179   7.591   3.822   1.836 -2.1410 -1.0270  0.4985
   63MOL   H25625180   7.618   3.908   1.988  1.2884 -0.3604 -0.5246
   63MOL   H25725181   7.465   3.917   1.906 -0.4163  2.8320  1.4897
   63MOL   H25825182   7.486   4.108   2.045 -0.7680  1.4920  1.8823
   63MOL   H25925183   7.449   4.340   2.117  1.7948  0.3999  0.9835
   63MOL   H26025184   7.410   4.713   2.103  0.2474  0.2055  0.5714
   63MOL   H26125185   7.384   4.559   2.162 -1.3073  0.5367 -0.2562
   63MOL   C26225186   7.287   4.587   1.973  0.1035 -0.0249 -0.8093
   63MOL   C26325187   7.287   4.699   1.859 -0.0156 -0.4903 -0.2778
   63MOL   C26425188   7.289   4.834   1.890  0.8017 -0.0439  0.1570
   63MOL   C26525189   7.268   4.934   1.793 -0.4364 -0.1525  0.4563
   63MOL   C26625190   7.273   4.895   1.652 -0.2139  0.3522 -0.0624
   63MOL   O26725191   7.271   4.986   1.553  0.2224 -0.2891 -0.0507
   63MOL   C26825192   7.258   5.121   1.587 -0.2699 -0.5769  0.3741
   63MOL   C26925193   7.277   4.758   1.619  0.2345 -0.1126 -0.4196
   63MOL   C27025194   7.293   4.662   1.725 -0.1071 -0.1551 -0.3025
   63MOL   C27125195   7.154   4.579   2.049 -0.2311 -0.2549 -0.7426
   63MOL   H27225196   7.304   4.495   1.916  0.9023 -0.2590 -0.1918
   63MOL   H27325197   7.280   4.863   1.994  0.7386 -2.1669  0.7702
   63MOL   H27425198   7.253   5.037   1.820 -0.1603 -0.1193  0.4881
   63MOL   H27525199   7.257   5.181   1.496 -3.3588 -0.1094  0.6432
   63MOL   H27625200   7.343   5.160   1.642 -1.3444  2.2245  0.1622
   63MOL   H27725201   7.164   5.133   1.642  0.6067 -0.5288  1.8866
   63MOL   H27825202   7.275   4.719   1.518  0.4465 -0.3094 -0.3456
   63MOL   H27925203   7.299   4.555   1.707  0.5321  0.0900 -1.6467
   63MOL   H28025204   7.132   4.676   2.092 -0.2967 -0.3276 -0.6124
   63MOL   H28125205   7.073   4.580   1.976  0.1368  1.1107 -1.1466
   63MOL   C28225206   7.119   4.457   2.137 -0.2889 -0.7508  0.0075
   63MOL   C28325207   6.990   4.396   2.095  0.7483 -0.7713  0.4813
   63MOL   C28425208   6.864   4.465   2.107 -0.7687  0.6928 -0.1587
   63MOL   C28525209   6.743   4.406   2.063  0.1231  0.1410  0.1607
   63MOL   C28625210   6.743   4.279   1.994  0.4852 -0.3576  0.1414
   63MOL   O28725211   6.625   4.225   1.945  0.2485 -0.2478  0.5785
   63MOL   C28825212   6.625   4.099   1.885 -0.7951 -0.3273 -0.2092
   63MOL   C28925213   6.870   4.225   1.962 -0.2543  0.0695 -0.1588
   63MOL   C29025214   6.988   4.273   2.023  0.7836 -0.4064 -0.5189
   63MOL   C29125215   7.117   4.488   2.287 -0.4604 -0.3201 -1.1347
   63MOL   H29225216   7.201   4.387   2.116  1.9027  2.2239 -1.8211
   63MOL   H29325217   6.865   4.562   2.155 -0.7481  1.3843 -1.5381
   63MOL   H29425218   6.653   4.462   2.082 -1.0701 -1.6871  0.0849
   63MOL   H29525219   6.684   4.090   1.794 -1.3735  2.2575 -0.8895
   63MOL   H29625220   6.679   4.027   1.946 -0.6205  0.3174  0.4066
   63MOL   H29725221   6.524   4.057   1.877 -0.1625 -1.8122 -0.5574
   63MOL   H29825222   6.879   4.137   1.899 -0.1853  0.3348 -0.5200
   63MOL   H29925223   7.087   4.232   2.005 -0.0550 -1.5206 -2.7996
   63MOL   H30025224   7.210   4.534   2.320 -1.8308  1.0502  0.9836
   63MOL   H30125225   7.035   4.558   2.307 -1.0445 -1.0251 -1.0154
   63MOL   C30225226   7.119   4.363   2.387  0.0946  0.2959  0.0748
   63MOL   C30325227   7.245   4.286   2.363  0.1942  0.7792 -0.1762
   63MOL   C30425228   7.372   4.336   2.385  0.7158  0.0678 -0.3955
   63MOL   C30525229   7.488   4.255   2.381  0.0034 -0.3421  0.0206
   63MOL   C30625230   7.476   4.115   2.336 -0.1093 -0.2370  0.5601
   63MOL   O30725231   7.573   4.020   2.322 -0.1543 -0.0836 -0.0502
   63MOL   C30825232   7.708   4.067   2.330 -0.1441  0.2001 -0.3209
   63MOL   C30925233   7.349   4.071   2.305  0.2849  0.1862  0.8037
   63MOL   C31025234   7.233   4.153   2.317  0.4518 -0.1487 -0.5688
   63MOL   C31125235   7.091   4.403   2.538  1.0162 -0.0011  0.5332
   63MOL   H31225236   7.038   4.298   2.354  0.8438 -1.6099  1.8913
   63MOL   H31325237   7.382   4.441   2.409 -3.1435  0.4271  0.0373
   63MOL   H31425238   7.588   4.295   2.390 -0.6555  1.0133  1.4666
   63MOL   H31525239   7.735   4.110   2.426  0.1398 -1.1083  0.1951
   63MOL   H31625240   7.725   4.147   2.259 -1.5556  0.4823 -0.3663
   63MOL   H31725241   7.769   3.983   2.298 -0.5027 -0.2856  0.2579
   63MOL   H31825242   7.340   3.969   2.269  1.5600 -0.4857  2.3707
   63MOL   H31925243   7.139   4.104   2.299  0.0758 -0.0830  1.1253
   63MOL   H32025244   6.989   4.441   2.534  0.3984 -1.6222  0.6321
   63MOL   H32125245   7.159   4.487   2.553  1.6485 -0.6491  1.3576
   63MOL   C32225246   7.104   4.292   2.645 -0.1703  0.5238 -0.4634
   63MOL   C32325247   7.022   4.333   2.773 -0.5052 -0.9145  0.1817
   63MOL   C32425248   7.050   4.456   2.842  0.7828  0.0438  0.3217
   63MOL   C32525249   6.994   4.482   2.970 -0.2551 -0.4878 -0.1652
   63MOL   C32625250   6.899   4.400   3.025 -0.1374 -0.1743 -0.5124
   63MOL   O32725251   6.834   4.423   3.144  0.1455  0.1385  0.2753
   63MOL   C32825252   6.897   4.508   3.238 -0.3712  0.5994  0.0168
   63MOL   C32925253   6.872   4.278   2.957  0.1442 -0.2089 -0.1465
   63MOL   C33025254   6.931   4.242   2.833 -0.1739  0.4986  0.9221
   63MOL   C33125255   7.244   4.248   2.687  0.5226  0.2718  0.3372
   63MOL   H33225256   7.058   4.204   2.599  0.0531 -0.3313  0.9181
   63MOL   H33325257   7.109   4.529   2.787 -1.5164  0.5294 -1.6283
   63MOL   H33425258   7.026   4.576   3.014 -0.1386 -0.5421 -0.1340
   63MOL   H33525259   6.891   4.616   3.219  1.4553  0.5983 -0.6045
   63MOL   H33625260   6.995   4.463   3.253  0.6033  2.0818 -1.6773
   63MOL   H33725261   6.836   4.513   3.329  0.1959  4.7142  0.2607
   63MOL   H33825262   6.793   4.220   3.004  0.6266 -0.0835  0.8365
   63MOL   H33925263   6.910   4.149   2.783  0.6187  0.8290 -0.0600
   63MOL   H34025264   7.292   4.198   2.603  0.8158  1.4993 -0.2365
   63MOL   H34125265   7.300   4.341   2.695 -0.9466  1.1837  0.2328
   63MOL   C34225266   7.267   4.167   2.821  0.1911  0.5853  0.2527
   63MOL   C34325267   7.411   4.185   2.865  0.4377 -0.1749  0.1808
   63MOL   C34425268   7.440   4.221   2.996 -0.4081  0.2252  0.7992
   63MOL   C34525269   7.572   4.246   3.033 -0.4531 -1.1940  0.0714
   63MOL   C34625270   7.678   4.244   2.942  0.3758  0.1656  0.0442
   63MOL   O34725271   7.805   4.267   2.979  0.0730 -0.2790 -0.1398
   63MOL   C34825272   7.895   4.303   2.882  0.2508 -0.6745  0.2114
   63MOL   C34925273   7.649   4.207   2.810  0.1751 -0.6330 -0.9854
   63MOL   C35025274   7.515   4.174   2.773 -0.0722 -0.3751  0.1820
   63MOL   C35125275   7.236   4.015   2.802  0.6282  0.1156  0.0800
   63MOL   H35225276   7.199   4.200   2.899 -1.8566  1.5123 -1.8900
   63MOL   H35325277   7.352   4.229   3.057 -0.8943  3.2605 -0.2557
   63MOL   H35425278   7.604   4.270   3.133  2.7039  1.1149 -1.4214
   63MOL   H35525279   7.919   4.225   2.809 -0.0107 -1.8729  1.3966
   63MOL   H35625280   7.868   4.389   2.820 -0.7949 -0.0942  1.4543
   63MOL   H35725281   7.991   4.317   2.932  1.0529 -0.4733 -1.3246
   63MOL   H35825282   7.730   4.188   2.741 -0.8216 -0.7172 -2.1503
   63MOL   H35925283   7.492   4.138   2.673  0.1323  0.4833 -0.1794
   63MOL   H36025284   7.154   4.000   2.732  1.8435  1.0606 -1.5904
   63MOL   H36125285   7.317   3.974   2.741 -1.0388  0.7114 -2.6110
   63MOL   C36225286   7.220   3.932   2.920  0.2820  0.1601 -1.0811
   63MOL   C36325287   7.307   3.805   2.918 -0.0997  0.1642 -0.1220
   63MOL   C36425288   7.269   3.692   2.845 -0.1726 -0.3984 -0.1712
   63MOL   C36525289   7.341   3.574   2.866  0.4207 -0.1761  0.0208
   63MOL   C36625290   7.444   3.560   2.960 -0.4017  0.3208 -0.3200
   63MOL   O36725291   7.501   3.433   2.983 -0.3164  0.2229 -0.3013
   63MOL   C36825292   7.603   3.423   3.079 -0.4621  0.6346  0.3173
   63MOL   C36925293   7.479   3.683   3.026  0.1029  0.0364 -0.0418
   63MOL   C37025294   7.420   3.803   3.000 -0.3554  0.3020 -0.4505
   63MOL   C37125295   7.077   3.909   2.955  0.6147  0.3800  0.1702
   63MOL   H37225296   7.258   4.000   2.996 -1.7877 -0.5317  0.6426
   63MOL   H37325297   7.194   3.686   2.768  0.0241 -0.1481 -0.3796
   63MOL   H37425298   7.307   3.494   2.803  1.4259 -1.1915  0.7476
   63MOL   H37525299   7.644   3.323   3.091 -1.1994  0.4853  1.7168
   63MOL   H37625300   7.671   3.508   3.074  0.1322  0.1958  0.7871
   63MOL   H37725301   7.556   3.439   3.176  0.2203  0.8346  0.6128
   63MOL   H37825302   7.566   3.688   3.091  0.3626  3.1580 -0.5312
   63MOL   H37925303   7.460   3.890   3.048  0.3872  0.9208 -2.1583
   63MOL   H38025304   7.020   3.923   2.863 -1.0722  0.1474  1.1619
   63MOL   H38125305   7.067   3.802   2.973 -0.5383  0.6017  0.9411
   63MOL   C38225306   7.015   3.972   3.076  0.3109  0.1305 -0.4057
   63MOL   C38325307   7.106   3.985   3.194 -0.1237  0.4398 -0.3383
   63MOL   C38425308   7.150   4.115   3.232 -0.0265 -0.8793  0.3736
   63MOL   C38525309   7.247   4.134   3.334  0.3274 -0.3253  1.0072
   63MOL   C38625310   7.294   4.021   3.394 -0.8817  0.2037 -0.5869
   63MOL   O38725311   7.388   4.046   3.493 -0.0855 -0.1901 -0.1120
   63MOL   C38825312   7.487   3.947   3.521  0.7780 -0.5022  0.0241
   63MOL   C38925313   7.260   3.893   3.359  0.1499  0.6735 -0.0122
   63MOL   C39025314   7.155   3.871   3.261 -0.5884 -0.1680  0.1484
   63MOL   C39125315   6.887   3.906   3.127 -0.2186 -0.0795 -0.1897
   63MOL   H39225316   6.989   4.071   3.037 -1.6709 -0.7972 -1.5305
   63MOL   H39325317   7.115   4.204   3.181 -3.4305 -2.8002 -0.8103
   63MOL   H39425318   7.285   4.228   3.371 -0.3765  0.4050 -0.0675
   63MOL   H39525319   7.565   4.001   3.575 -0.7630  0.9243  0.8470
   63MOL   H39625320   7.526   3.905   3.428  1.1213 -0.2108  0.0357
   63MOL   H39725321   7.443   3.872   3.586  0.1145 -0.9555 -0.9291
   63MOL   H39825322   7.303   3.804   3.401 -1.0903 -1.5402 -3.2567
   63MOL   H39925323   7.126   3.770   3.237 -0.7702 -0.4290  1.3853
   63MOL   H40025324   6.922   3.806   3.152  1.2231  0.7420  1.1542
   63MOL   H40125325   6.813   3.899   3.048  2.3053 -1.6504 -2.4693
   63MOL   H40225326   6.836   3.939   3.218 -1.9704 -1.2708 -0.7211
   64MOL     C125327   0.805   5.437   2.063  0.1687  0.1069 -0.6681
   64MOL     C225328   0.664   5.375   2.042 -0.5545 -0.0953 -0.0839
   64MOL     C325329   0.561   5.383   2.142  0.4142 -0.7119 -0.0794
   64MOL     C425330   0.429   5.341   2.121 -0.4527 -0.3105 -0.0565
   64MOL     C525331   0.406   5.272   2.003 -0.1341  0.9689 -0.4923
   64MOL     O625332   0.287   5.212   1.973  0.0802  0.0547  0.3625
   64MOL     C725333   0.219   5.145   2.073 -0.1212 -0.3817 -0.5217
   64MOL     C825334   0.506   5.260   1.902  0.6649  0.3869  0.5132
   64MOL     C925335   0.633   5.311   1.917 -0.3211 -0.5840 -0.1670
   64MOL    C1025336   0.905   5.352   2.137  0.2748  0.0899 -0.5020
   64MOL    H1125337   0.799   5.523   2.130 -0.0243  0.2685 -0.8946
   64MOL    H1225338   0.585   5.426   2.238  1.2533 -1.3346 -0.0089
   64MOL    H1325339   0.354   5.345   2.198 -2.4002  1.9968 -2.0034
   64MOL    H1425340   0.181   5.213   2.149 -0.4996  0.6187 -1.5930
   64MOL    H1525341   0.132   5.095   2.029  0.0910 -0.0595 -1.3226
   64MOL    H1625342   0.285   5.076   2.125  1.2635  2.3202  1.4020
   64MOL    H1725343   0.488   5.201   1.813  0.9039 -0.7822  1.2199
   64MOL    H1825344   0.704   5.302   1.836  0.0806  0.4508  0.0681
   64MOL    H1925345   0.929   5.264   2.076 -1.0621  0.8122 -2.1138
   64MOL    H2025346   1.006   5.393   2.140 -0.2835  1.4238  0.4195
   64MOL    H2125347   0.842   5.466   1.965 -1.1018  2.3024 -0.5353
   64MOL    C2225348   0.860   5.323   2.283  0.1780 -0.7883 -0.1532
   64MOL    C2325349   0.934   5.206   2.342 -0.5695  0.1861  0.4507
   64MOL    C2425350   1.072   5.190   2.320  0.0859  0.0247  0.5552
   64MOL    C2525351   1.139   5.078   2.376 -0.4920  0.0504  1.0052
   64MOL    C2625352   1.069   4.981   2.452 -0.4122 -0.1753  0.0879
   64MOL    O2725353   1.137   4.877   2.512 -0.0546 -0.2206 -0.5554
   64MOL    C2825354   1.080   4.821   2.635  0.4258 -0.4357 -0.5441
   64MOL    C2925355   0.929   5.001   2.464  0.3361  0.1069  0.1388
   64MOL    C3025356   0.865   5.112   2.411  0.3506  0.0026  0.0710
   64MOL    C3125357   0.876   5.452   2.373 -0.0628 -0.0432  0.2316
   64MOL    H3225358   0.759   5.285   2.265  0.3927 -1.4120 -0.0483
   64MOL    H3325359   1.124   5.268   2.267  0.7844 -0.7473  0.0978
   64MOL    H3425360   1.247   5.080   2.375 -0.4590 -1.3362  0.9639
   64MOL    H3525361   0.984   4.774   2.614  0.2679 -1.3348  2.0517
   64MOL    H3625362   1.063   4.908   2.699 -0.7974 -2.0283  1.3283
   64MOL    H3725363   1.146   4.759   2.695  0.9909  1.0859  0.4431
   64MOL    H3825364   0.867   4.926   2.511 -0.5805 -0.7466 -2.3519
   64MOL    H3925365   0.757   5.121   2.412  0.4364  1.0518  1.1006
   64MOL    H4025366   0.981   5.474   2.355  0.1732 -2.1878 -1.2188
   64MOL    H4125367   0.823   5.541   2.339  1.4729  0.9778  0.4787
   64MOL    C4225368   0.850   5.437   2.528  0.8589 -0.7176 -0.4566
   64MOL    C4325369   0.699   5.419   2.571  0.1582  0.0853  0.0107
   64MOL    C4425370   0.665   5.295   2.633 -0.1157 -0.2295 -0.0333
   64MOL    C4525371   0.532   5.281   2.683 -0.3980 -0.0313 -0.1933
   64MOL    C4625372   0.440   5.391   2.676  0.2289  0.6484  0.4957
   64MOL    O4725373   0.310   5.390   2.731  0.9196 -0.0399  0.1984
   64MOL    C4825374   0.243   5.263   2.738  0.1718  0.5206 -0.2481
   64MOL    C4925375   0.475   5.505   2.602 -0.0373 -0.0245  0.3385
   64MOL    C5025376   0.605   5.519   2.550 -0.1886 -0.2308 -0.0367
   64MOL    C5125377   0.918   5.552   2.602 -0.6968 -0.1967  0.4912
   64MOL    H5225378   0.903   5.348   2.563 -0.0055 -0.8586  0.5125
   64MOL    H5325379   0.742   5.220   2.647 -1.2446 -1.2054  1.1785
   64MOL    H5425380   0.494   5.191   2.729 -0.7045 -0.7737 -1.8558
   64MOL    H5525381   0.135   5.276   2.751  0.2608 -1.1968  2.5977
   64MOL    H5625382   0.256   5.212   2.642  1.3290 -1.3471  0.8654
   64MOL    H5725383   0.277   5.193   2.814  0.4674 -1.3614 -2.0461
   64MOL    H5825384   0.399   5.579   2.581  1.9129  1.7725 -0.5272
   64MOL    H5925385   0.636   5.617   2.516 -2.1055  0.0325 -1.0955
   64MOL    H6025386   0.881   5.568   2.703 -2.3084  0.8936 -0.2370
   64MOL    H6125387   0.880   5.648   2.565  1.3162 -0.2326 -1.8135
   64MOL    C6225388   1.073   5.551   2.606 -0.7224  0.3567 -0.0937
   64MOL    C6325389   1.119   5.444   2.703 -0.2248 -0.3609  0.1897
   64MOL    C6425390   1.172   5.323   2.653  0.1180 -0.1936  0.1752
   64MOL    C6525391   1.197   5.214   2.739 -0.0245 -0.2988 -0.1015
   64MOL    C6625392   1.181   5.228   2.876 -0.0862 -0.3931 -0.0872
   64MOL    O6725393   1.208   5.115   2.954 -0.2737  0.0385 -0.7611
   64MOL    C6825394   1.218   5.130   3.092 -0.8452  0.8327  0.2769
   64MOL    C6925395   1.151   5.360   2.927  0.0741 -0.2617 -0.1325
   64MOL    C7025396   1.116   5.463   2.843  0.2804 -0.5813 -0.0929
   64MOL    C7125397   1.118   5.692   2.652  0.0648  0.3856  0.5541
   64MOL    H7225398   1.119   5.532   2.509  1.8625 -0.4922  1.2273
   64MOL    H7325399   1.179   5.329   2.545 -1.6554 -0.5173  0.0236
   64MOL    H7425400   1.216   5.117   2.695 -1.8143 -1.0601  0.7660
   64MOL    H7525401   1.134   5.183   3.137 -2.3434 -0.4280 -0.9586
   64MOL    H7625402   1.307   5.181   3.129 -0.3172  1.1479 -1.4180
   64MOL    H7725403   1.213   5.027   3.130  3.4072  0.8153  1.1031
   64MOL    H7825404   1.147   5.378   3.034 -0.1497 -1.9604  0.1597
   64MOL    H7925405   1.089   5.557   2.890 -0.9403 -1.0123  0.0876
   64MOL    H8025406   1.042   5.724   2.724 -0.3380  0.5658  0.0504
   64MOL    H8125407   1.203   5.675   2.718  0.7780  0.9132 -0.2341
   64MOL    C8225408   1.143   5.802   2.546 -0.5153 -0.4129  0.8336
   64MOL    C8325409   1.016   5.840   2.463  0.0681 -0.7532 -0.2258
   64MOL    C8425410   1.014   5.798   2.330 -0.0645 -0.2158 -0.4239
   64MOL    C8525411   0.903   5.815   2.249  0.6247 -0.7337 -0.1520
   64MOL    C8625412   0.794   5.889   2.294  0.0206  0.1949 -0.2725
   64MOL    O8725413   0.677   5.900   2.229  0.0140  0.3771  0.4009
   64MOL    C8825414   0.676   5.882   2.086  0.4703 -0.2887  0.1535
   64MOL    C8925415   0.792   5.924   2.431 -0.4044  0.1201  0.6814
   64MOL    C9025416   0.903   5.908   2.515  0.0936 -0.0213  0.0819
   64MOL    C9125417   1.206   5.932   2.600 -0.3205  0.2086 -0.2130
   64MOL    H9225418   1.225   5.767   2.482 -0.0565  0.2867  1.0316
   64MOL    H9325419   1.099   5.755   2.279 -0.9980  0.3982 -2.5583
   64MOL    H9425420   0.894   5.785   2.146 -1.8677  2.4363 -0.9347
   64MOL    H9525421   0.573   5.881   2.053  0.4431 -0.3990  0.2412
   64MOL    H9625422   0.702   5.778   2.065 -1.1490 -0.7288  0.2582
   64MOL    H9725423   0.736   5.957   2.033  1.2658  0.0448  1.4993
   64MOL    H9825424   0.695   5.960   2.461 -1.2322 -0.8057 -0.8556
   64MOL    H9925425   0.906   5.935   2.619  0.0680  2.0893 -0.4389
   64MOL   H10025426   1.210   6.002   2.517  0.0219 -0.0979 -0.4591
   64MOL   H10125427   1.134   5.980   2.666 -0.0582  2.1655 -1.3133
   64MOL   C10225428   1.343   5.922   2.668  0.2032  0.6288  1.0341
   64MOL   C10325429   1.444   5.937   2.555 -0.5610 -0.6001  0.4970
   64MOL   C10425430   1.491   6.063   2.516 -0.0524 -0.6605  0.1875
   64MOL   C10525431   1.575   6.072   2.399 -0.1893 -0.2240 -0.5149
   64MOL   C10625432   1.623   5.952   2.332  0.5597  0.3614 -0.1788
   64MOL   O10725433   1.706   5.967   2.221 -0.1188  0.2878  0.0394
   64MOL   C10825434   1.748   5.848   2.157 -0.1376 -0.2422 -0.2799
   64MOL   C10925435   1.580   5.823   2.385  0.3405 -0.3144 -0.1723
   64MOL   C11025436   1.489   5.819   2.492 -0.3403 -0.3656  0.0576
   64MOL   C11125437   1.354   6.022   2.779  0.2234  0.6114 -0.3495
   64MOL   H11225438   1.364   5.823   2.708 -0.1775 -0.0541 -0.4197
   64MOL   H11325439   1.445   6.150   2.562  3.0465  0.7308  0.7621
   64MOL   H11425440   1.595   6.171   2.361 -0.4367  0.0031 -0.0568
   64MOL   H11525441   1.773   5.863   2.052  1.9723  0.8763  0.3585
   64MOL   H11625442   1.838   5.801   2.197 -0.1557 -0.5618 -0.6115
   64MOL   H11725443   1.665   5.778   2.143  0.1831 -0.4936 -0.9327
   64MOL   H11825444   1.601   5.731   2.332 -2.4680 -0.7679 -0.5511
   64MOL   H11925445   1.464   5.716   2.513 -0.4303 -0.8652 -2.4248
   64MOL   H12025446   1.334   6.122   2.741  0.6938  0.6133 -0.6011
   64MOL   H12125447   1.279   6.005   2.855 -0.2631 -3.8470 -1.6887
   64MOL   C12225448   1.500   6.044   2.836  0.0563 -0.5910  0.1888
   64MOL   C12325449   1.560   5.904   2.878  0.0127  0.1882  0.1606
   64MOL   C12425450   1.508   5.829   2.986 -0.4879 -0.1863  0.2784
   64MOL   C12525451   1.536   5.692   2.989 -0.4649  0.4875  0.0493
   64MOL   C12625452   1.632   5.635   2.902  0.0491 -0.0126  0.5782
   64MOL   O12725453   1.675   5.504   2.903  0.1226 -0.6371  0.2647
   64MOL   C12825454   1.656   5.436   3.023 -0.6166  0.0623  0.2533
   64MOL   C12925455   1.681   5.709   2.796 -0.1579 -0.0105 -0.3599
   64MOL   C13025456   1.647   5.846   2.788 -0.1219  0.1442 -0.2392
   64MOL   C13125457   1.499   6.134   2.963 -0.4436  0.2249  0.4296
   64MOL   H13225458   1.569   6.095   2.769  3.8059 -0.6133  3.7984
   64MOL   H13325459   1.426   5.864   3.047 -1.5541 -1.8195 -0.1949
   64MOL   H13425460   1.498   5.625   3.064 -1.0434  1.1185  0.3311
   64MOL   H13525461   1.679   5.330   3.011  1.0845  0.5160 -0.6904
   64MOL   H13625462   1.709   5.476   3.109  0.8113 -0.2559 -0.4517
   64MOL   H13725463   1.551   5.428   3.049 -0.7311 -0.0596 -0.2333
   64MOL   H13825464   1.745   5.660   2.725  0.0170  1.3927 -1.1807
   64MOL   H13925465   1.681   5.903   2.703  2.5833  1.0774  1.3672
   64MOL   H14025466   1.603   6.135   2.995 -0.1701  0.9887 -0.4475
   64MOL   H14125467   1.452   6.076   3.042  1.1542 -0.0121  1.2289
   64MOL   C14225468   1.431   6.274   2.949  0.2745  0.5814  0.0069
   64MOL   C14325469   1.381   6.319   3.086 -0.0691 -0.0979 -0.5703
   64MOL   C14425470   1.469   6.310   3.197 -0.1267  0.4300 -0.2213
   64MOL   C14525471   1.436   6.374   3.321  0.5000  0.5109 -0.2100
   64MOL   C14625472   1.299   6.421   3.340 -0.6829 -0.3275  0.4425
   64MOL   O14725473   1.254   6.452   3.464  0.2096 -0.3955  0.5701
   64MOL   C14825474   1.323   6.398   3.579 -0.1844 -0.0047  0.1435
   64MOL   C14925475   1.217   6.427   3.229  0.9290 -1.2383  0.3745
   64MOL   C15025476   1.258   6.383   3.106 -0.5030 -0.3423 -0.1595
   64MOL   C15125477   1.528   6.373   2.896  0.3189  0.3504 -0.1653
   64MOL   H15225478   1.346   6.271   2.881 -0.0304  0.9320  0.3819
   64MOL   H15325479   1.567   6.266   3.204 -1.0140 -1.5322  0.1870
   64MOL   H15425480   1.511   6.374   3.398  0.1303  1.8667  0.1764
   64MOL   H15525481   1.389   6.472   3.624 -0.7950  0.3819  0.4045
   64MOL   H15625482   1.247   6.381   3.655 -0.0176 -1.0574  0.0887
   64MOL   H15725483   1.377   6.305   3.558 -1.3966 -0.6954  0.0371
   64MOL   H15825484   1.118   6.469   3.242  1.4841  0.0504  0.5158
   64MOL   H15925485   1.197   6.385   3.018 -1.5208 -2.3858  0.4728
   64MOL   H16025486   1.588   6.324   2.819  1.9663  2.6974 -0.4546
   64MOL   H16125487   1.609   6.404   2.962  0.8012 -1.2590  0.0082
   64MOL   C16225488   1.472   6.501   2.823 -0.0174 -0.3736 -0.6308
   64MOL   C16325489   1.423   6.470   2.681 -0.2479  0.0277 -0.3111
   64MOL   C16425490   1.521   6.447   2.578  0.7278  0.6148 -0.5167
   64MOL   C16525491   1.476   6.425   2.446 -0.2967  0.2261 -0.2335
   64MOL   C16625492   1.336   6.420   2.415 -0.3031 -0.6203 -0.1187
   64MOL   O16725493   1.301   6.405   2.279 -0.6114 -0.4127 -0.3058
   64MOL   C16825494   1.163   6.402   2.251  0.2157 -0.2533  0.2052
   64MOL   C16925495   1.247   6.454   2.521  0.5216 -0.1480  0.8205
   64MOL   C17025496   1.286   6.474   2.651 -0.2904 -0.1194 -0.0348
   64MOL   C17125497   1.583   6.619   2.839 -0.4399  0.0571 -0.5769
   64MOL   H17225498   1.381   6.530   2.874  1.1774  0.5428  1.0399
   64MOL   H17325499   1.624   6.452   2.610  0.1560  1.7884  1.2369
   64MOL   H17425500   1.546   6.404   2.367  0.2702 -0.5537  0.4596
   64MOL   H17525501   1.124   6.503   2.263 -3.0650 -1.3658 -0.4647
   64MOL   H17625502   1.116   6.335   2.324 -0.3311  0.3884  0.4528
   64MOL   H17725503   1.145   6.369   2.149 -0.1887  2.7388 -0.7414
   64MOL   H17825504   1.140   6.442   2.515  0.5831 -0.4247  0.2517
   64MOL   H17925505   1.224   6.473   2.739  1.5351  1.0699  1.2856
   64MOL   H18025506   1.584   6.692   2.758 -1.0487  2.5582  1.6237
   64MOL   H18125507   1.684   6.577   2.837 -0.4259  0.0663  0.0335
   64MOL   C18225508   1.559   6.699   2.977  0.1405  0.2224  0.6411
   64MOL   C18325509   1.416   6.754   2.999  0.6596  0.4771 -0.0028
   64MOL   C18425510   1.352   6.724   3.124  0.7076  0.8110  0.4148
   64MOL   C18525511   1.234   6.797   3.161 -0.0161  0.0058  0.1025
   64MOL   C18625512   1.173   6.878   3.062  0.7451  0.3864 -0.0689
   64MOL   O18725513   1.056   6.950   3.073  0.2042 -0.7164 -0.2492
   64MOL   C18825514   1.001   6.966   3.196 -1.0272  0.1675  0.0426
   64MOL   C18925515   1.224   6.879   2.929  0.4329 -0.8256 -0.5447
   64MOL   C19025516   1.346   6.815   2.895 -0.7102 -0.2051 -0.1345
   64MOL   C19125517   1.661   6.808   2.997  0.0945  0.7394 -0.7533
   64MOL   H19225518   1.565   6.624   3.057 -0.4319 -0.5017  0.0142
   64MOL   H19325519   1.411   6.666   3.194  0.0071 -0.7122 -0.2331
   64MOL   H19425520   1.188   6.783   3.258 -0.3841  1.4676  0.1533
   64MOL   H19525521   0.962   6.870   3.230  0.3455 -0.5174 -0.2630
   64MOL   H19625522   0.912   7.029   3.196  0.8706  2.9400  0.3332
   64MOL   H19725523   1.071   7.004   3.269  1.5681 -3.2926 -0.5002
   64MOL   H19825524   1.173   6.938   2.856  1.0606 -1.5157 -1.5593
   64MOL   H19925525   1.392   6.826   2.798  0.6197  1.0964  0.6352
   64MOL   H20025526   1.659   6.869   2.907  3.2099 -0.0670 -1.4321
   64MOL   H20125527   1.625   6.872   3.077 -0.5300  0.1042 -0.5166
   64MOL   C20225528   1.807   6.757   3.033  0.5463  0.0519 -0.1436
   64MOL   C20325529   1.803   6.660   3.149 -0.0158  0.0086  0.7946
   64MOL   C20425530   1.743   6.698   3.270 -0.1742 -0.4838 -0.7157
   64MOL   C20525531   1.762   6.610   3.382  0.0799 -0.2833  0.4782
   64MOL   C20625532   1.827   6.483   3.367 -0.0958 -0.4658  0.4142
   64MOL   O20725533   1.829   6.392   3.475  0.1954  0.2202 -0.7933
   64MOL   C20825534   1.791   6.436   3.607 -0.3427  0.0291 -0.4482
   64MOL   C20925535   1.863   6.443   3.236  0.6885 -0.2400  0.1089
   64MOL   C21025536   1.865   6.529   3.127 -0.0683 -0.0028 -0.2511
   64MOL   C21125537   1.898   6.871   3.057 -0.1214 -0.7740 -0.3215
   64MOL   H21225538   1.849   6.703   2.948 -0.3285  0.1063 -0.6163
   64MOL   H21325539   1.706   6.798   3.287  1.3439  0.0855 -0.7281
   64MOL   H21425540   1.735   6.653   3.477 -1.6766  1.6504 -0.8604
   64MOL   H21525541   1.682   6.440   3.611 -0.3841 -1.5668  0.4932
   64MOL   H21625542   1.820   6.369   3.688  0.9489 -0.7046 -1.4999
   64MOL   H21725543   1.845   6.529   3.624 -1.4613  0.5153  0.5813
   64MOL   H21825544   1.913   6.350   3.212 -0.8725 -0.4232 -2.6001
   64MOL   H21925545   1.886   6.496   3.026  3.8050 -1.8846  1.0502
   64MOL   H22025546   1.846   6.926   3.134  0.8717 -1.1291  0.6232
   64MOL   H22125547   1.905   6.935   2.969  0.0178 -1.1565 -0.5939
   64MOL   C22225548   2.045   6.843   3.112  0.0216 -0.2100 -1.1155
   64MOL   C22325549   2.119   6.757   3.008  0.3097  0.2039  0.1811
   64MOL   C22425550   2.149   6.809   2.880  0.4006 -0.0960  0.2584
   64MOL   C22525551   2.199   6.726   2.781 -0.5613 -0.2617 -0.3219
   64MOL   C22625552   2.226   6.593   2.806  0.4724 -0.1411  0.0588
   64MOL   O22725553   2.261   6.516   2.700 -0.9110  0.0994 -0.0527
   64MOL   C22825554   2.304   6.384   2.727  0.8111  0.8585 -0.7870
   64MOL   C22925555   2.204   6.540   2.934  0.0753  0.7175  0.4051
   64MOL   C23025556   2.161   6.626   3.038 -0.0824 -0.4572  0.0602
   64MOL   C23125557   2.123   6.971   3.146  0.6868 -0.4248 -0.4059
   64MOL   H23225558   2.034   6.778   3.199 -1.7722 -0.0980 -1.2490
   64MOL   H23325559   2.133   6.913   2.858  0.5883  0.1927  1.4598
   64MOL   H23425560   2.206   6.753   2.676 -0.1754  0.0843 -0.2078
   64MOL   H23525561   2.340   6.352   2.630  0.0797  0.2051 -0.8467
   64MOL   H23625562   2.390   6.386   2.794 -0.2535  0.4661  0.6024
   64MOL   H23725563   2.225   6.317   2.759  0.4978  0.6792 -1.9213
   64MOL   H23825564   2.216   6.435   2.955  2.2750  0.4314 -1.9242
   64MOL   H23925565   2.143   6.589   3.138  0.5628 -3.0184 -0.7295
   64MOL   H24025566   2.229   6.954   3.128  0.8241 -1.9695  1.6749
   64MOL   H24125567   2.097   7.038   3.064  0.8539 -0.4205 -0.4556
   64MOL   C24225568   2.117   7.027   3.292 -0.2771 -0.2693  0.5228
   64MOL   C24325569   2.155   6.917   3.394 -0.2794 -0.3249  0.0938
   64MOL   C24425570   2.288   6.873   3.395 -0.1388 -0.1536  0.2729
   64MOL   C24525571   2.324   6.751   3.468 -0.0199 -0.1207 -0.3652
   64MOL   C24625572   2.217   6.676   3.537 -0.0925 -0.1703 -0.0535
   64MOL   O24725573   2.230   6.553   3.603 -0.1992 -0.7544 -0.2065
   64MOL   C24825574   2.321   6.458   3.545  0.3432  0.0771  0.4371
   64MOL   C24925575   2.092   6.733   3.540  1.2123  0.0874 -0.3135
   64MOL   C25025576   2.061   6.850   3.469 -0.2891 -0.1663  0.1342
   64MOL   C25125577   2.213   7.155   3.307  0.8913 -0.3879 -0.8908
   64MOL   H25225578   2.014   7.053   3.315  0.0627  0.6082  1.1116
   64MOL   H25325579   2.374   6.914   3.343 -1.5948  1.2390 -1.0973
   64MOL   H25425580   2.425   6.714   3.462  1.2742  3.3220 -0.3158
   64MOL   H25525581   2.422   6.498   3.541  0.9093 -1.2255  1.3539
   64MOL   H25625582   2.338   6.363   3.597  0.2403 -0.3511 -0.3007
   64MOL   H25725583   2.275   6.426   3.451  0.0312  0.1124  0.5772
   64MOL   H25825584   2.014   6.681   3.593  0.5332  3.8880  2.5996
   64MOL   H25925585   1.959   6.882   3.453  0.3452  1.3357 -1.1203
   64MOL   H26025586   2.191   7.229   3.230  1.4507  1.0569  0.3053
   64MOL   H26125587   2.313   7.119   3.285  1.1374 -0.8445  0.8802
   64MOL   C26225588   2.194   7.216   3.450 -0.2187 -0.1234 -0.0258
   64MOL   C26325589   2.064   7.292   3.458 -0.2531 -0.0591  1.4462
   64MOL   C26425590   1.950   7.226   3.503  0.0086  0.5388 -0.1865
   64MOL   C26525591   1.826   7.297   3.523 -0.0378  0.2793  0.2905
   64MOL   C26625592   1.817   7.428   3.485 -0.2825  0.6276  0.4835
   64MOL   O26725593   1.699   7.490   3.488  0.1945  0.1335 -0.4199
   64MOL   C26825594   1.677   7.613   3.430 -0.4698  0.7004  0.8107
   64MOL   C26925595   1.933   7.491   3.433 -0.2039  0.1281 -0.2524
   64MOL   C27025596   2.055   7.425   3.410 -0.1988 -0.1247  0.2092
   64MOL   C27125597   2.306   7.317   3.480  0.1533 -0.1515 -0.0057
   64MOL   H27225598   2.200   7.141   3.529  1.5013 -0.1088 -0.1130
   64MOL   H27325599   1.946   7.123   3.535  1.5236  0.5469  0.0736
   64MOL   H27425600   1.735   7.256   3.564 -0.6237  2.0992  0.8936
   64MOL   H27525601   1.710   7.616   3.326  1.2583 -0.7464  1.2893
   64MOL   H27625602   1.721   7.695   3.488 -2.0743  1.7396  0.6033
   64MOL   H27725603   1.571   7.635   3.421 -0.9607 -2.0386 -0.3426
   64MOL   H27825604   1.920   7.593   3.401 -1.8892 -0.3760 -1.1975
   64MOL   H27925605   2.138   7.481   3.371 -0.9747 -0.3843 -1.8752
   64MOL   H28025606   2.332   7.376   3.392 -0.8112 -2.4252 -1.8667
   64MOL   H28125607   2.265   7.383   3.557 -0.4184 -0.1592 -0.3055
   64MOL   C28225608   2.445   7.255   3.517  0.4509 -0.4528 -0.4182
   64MOL   C28325609   2.440   7.189   3.655 -1.1959 -0.5784 -0.8034
   64MOL   C28425610   2.456   7.051   3.669  0.5625 -0.5639 -0.2264
   64MOL   C28525611   2.437   6.990   3.796 -0.1286  0.4869 -0.3738
   64MOL   C28625612   2.407   7.069   3.908 -0.6201 -0.5615  0.0734
   64MOL   O28725613   2.383   6.999   4.018  0.2784  0.1830 -0.3986
   64MOL   C28825614   2.339   7.064   4.134  0.0068  0.3055 -0.2020
   64MOL   C28925615   2.391   7.207   3.895 -0.0687  0.6379 -0.4370
   64MOL   C29025616   2.408   7.265   3.771 -0.0310  0.0226 -0.0039
   64MOL   C29125617   2.545   7.371   3.510 -0.3359 -0.2271  0.0644
   64MOL   H29225618   2.480   7.180   3.446  0.6376 -0.3081 -0.4815
   64MOL   H29325619   2.462   6.983   3.586  1.3972  2.5521 -2.8619
   64MOL   H29425620   2.456   6.885   3.808  0.8703  0.8284  1.1322
   64MOL   H29525621   2.264   7.140   4.112 -0.1368  0.1428 -0.2740
   64MOL   H29625622   2.288   6.996   4.203  1.9260  0.5765  1.5276
   64MOL   H29725623   2.416   7.101   4.201 -1.5418  0.2032  1.6683
   64MOL   H29825624   2.348   7.262   3.977  0.6128  0.1563  0.2521
   64MOL   H29925625   2.391   7.372   3.765  0.1998  0.1248  1.0900
   64MOL   H30025626   2.528   7.429   3.420  0.1088 -1.2367 -0.6794
   64MOL   H30125627   2.512   7.442   3.586 -1.9028 -2.8627  1.9127
   64MOL   C30225628   2.695   7.334   3.505 -0.6125  0.2071  0.5063
   64MOL   C30325629   2.770   7.449   3.440 -0.4768  0.2188 -0.7136
   64MOL   C30425630   2.834   7.544   3.519 -0.2592 -0.6147 -0.2839
   64MOL   C30525631   2.908   7.646   3.458  0.0458 -0.4323 -0.3099
   64MOL   C30625632   2.923   7.652   3.320 -0.0807  0.5461  0.0032
   64MOL   O30725633   2.984   7.764   3.270  0.3264 -0.1360  0.4338
   64MOL   C30825634   3.025   7.880   3.354  0.4562  1.0868 -0.1025
   64MOL   C30925635   2.862   7.559   3.240  0.5952  0.1365  0.6748
   64MOL   C31025636   2.780   7.455   3.296 -0.8183 -0.3554  0.7234
   64MOL   C31125637   2.746   7.275   3.636 -0.3757 -0.0207 -0.1433
   64MOL   H31225638   2.708   7.251   3.436  1.3212  2.7242 -2.2745
   64MOL   H31325639   2.819   7.531   3.626  0.3613 -1.3795 -0.2830
   64MOL   H31425640   2.948   7.709   3.536 -0.2821 -0.2179 -0.3117
   64MOL   H31525641   3.112   7.864   3.417 -1.0865 -2.5319  1.2923
   64MOL   H31625642   2.932   7.901   3.407 -1.6987 -0.5745 -3.0792
   64MOL   H31725643   3.047   7.962   3.286  1.4809  1.0997  0.2473
   64MOL   H31825644   2.860   7.565   3.133  1.6851  0.6289  0.6697
   64MOL   H31925645   2.731   7.374   3.243  0.3426 -0.2675 -0.5331
   64MOL   H32025646   2.687   7.187   3.660 -0.0688 -0.3757 -0.6931
   64MOL   H32125647   2.730   7.347   3.716  0.8720  2.5275 -2.1175
   64MOL   C32225648   2.891   7.238   3.640 -0.7092  0.7693  0.1139
   64MOL   C32325649   2.930   7.145   3.530  0.2859  0.3654 -0.4286
   64MOL   C32425650   3.009   7.191   3.420 -0.2144  0.7833  0.4338
   64MOL   C32525651   3.066   7.102   3.330 -0.7308  0.5908 -0.4214
   64MOL   C32625652   3.035   6.967   3.331 -0.9190 -0.7169 -0.0993
   64MOL   O32725653   3.087   6.889   3.234 -0.3457  0.6201  0.4645
   64MOL   C32825654   3.055   6.749   3.212 -0.5882  0.1117  0.1913
   64MOL   C32925655   2.948   6.920   3.432 -0.1024 -0.6304 -0.0643
   64MOL   C33025656   2.901   7.003   3.536  0.0731 -0.7114  0.4858
   64MOL   C33125657   2.948   7.187   3.771 -0.2885 -0.0805 -0.4418
   64MOL   H33225658   2.940   7.334   3.621  0.3319 -0.2277 -2.4393
   64MOL   H33325659   3.036   7.296   3.412 -3.0355  1.4104 -1.5116
   64MOL   H33425660   3.136   7.137   3.255 -0.8926  0.8478 -0.4554
   64MOL   H33525661   2.948   6.741   3.192 -0.4716 -1.3004  0.0719
   64MOL   H33625662   3.085   6.690   3.299  1.7060  3.0446  1.4652
   64MOL   H33725663   3.110   6.725   3.121  1.1200 -0.8906  1.4591
   64MOL   H33825664   2.920   6.815   3.432 -0.0462 -0.6454 -0.2080
   64MOL   H33925665   2.846   6.973   3.623 -1.5423 -0.6511 -0.4889
   64MOL   H34025666   2.921   7.082   3.781 -0.6664 -0.1011 -1.6468
   64MOL   H34125667   3.056   7.180   3.757 -0.2368 -1.7707  0.6659
   64MOL   C34225668   2.919   7.250   3.908 -0.2245 -0.7284  0.6240
   64MOL   C34325669   2.920   7.408   3.900  0.5201  0.5108 -0.3127
   64MOL   C34425670   3.030   7.476   3.843  0.1437 -0.0210 -0.2725
   64MOL   C34525671   3.023   7.619   3.834 -0.5093  0.0543 -0.6341
   64MOL   C34625672   2.905   7.690   3.872 -0.4426  0.1970 -0.4551
   64MOL   O34725673   2.879   7.825   3.854  0.1195  0.3186  0.3224
   64MOL   C34825674   2.975   7.913   3.788  0.2932 -0.0691  0.0594
   64MOL   C34925675   2.798   7.615   3.928 -0.5726  0.1658 -0.3998
   64MOL   C35025676   2.805   7.476   3.937 -0.1968 -0.3288  0.2836
   64MOL   C35125677   3.008   7.202   4.023 -0.1252 -0.0447 -0.7439
   64MOL   H35225678   2.819   7.221   3.941 -1.4029 -0.3137 -2.3753
   64MOL   H35325679   3.115   7.425   3.802  1.7630  1.5845  1.0138
   64MOL   H35425680   3.102   7.681   3.795  2.0946 -1.4992  1.9689
   64MOL   H35525681   2.987   7.890   3.683 -2.1332 -0.2533 -0.2026
   64MOL   H35625682   2.923   8.009   3.790 -1.7478 -1.1591  0.8612
   64MOL   H35725683   3.067   7.909   3.846  0.0966 -2.9306  0.2345
   64MOL   H35825684   2.709   7.668   3.962 -0.9755 -0.3351 -0.6660
   64MOL   H35925685   2.722   7.415   3.969  0.6054 -1.2945  0.5440
   64MOL   H36025686   3.108   7.240   3.999 -1.0724  1.9408 -1.5847
   64MOL   H36125687   2.991   7.257   4.116 -1.5878 -1.2226 -0.3079
   64MOL   C36225688   3.005   7.051   4.055 -0.1677  0.3590  0.2029
   64MOL   C36325689   2.864   7.010   4.096  0.0236 -0.3444  0.0071
   64MOL   C36425690   2.809   7.058   4.216 -0.6192 -0.5123 -0.2334
   64MOL   C36525691   2.694   6.995   4.266  0.3239  0.0962 -0.4703
   64MOL   C36625692   2.632   6.887   4.195  0.4378 -0.1791  0.1243
   64MOL   O36725693   2.531   6.823   4.260  0.4342 -0.5358  0.7895
   64MOL   C36825694   2.466   6.702   4.212  0.0075  0.1629 -0.3190
   64MOL   C36925695   2.679   6.854   4.067 -0.0476  0.8868 -0.6155
   64MOL   C37025696   2.798   6.912   4.019  0.1320 -0.0988  0.0323
   64MOL   C37125697   3.104   7.011   4.163  0.2478 -0.9830 -0.4603
   64MOL   H37225698   3.025   6.999   3.961 -0.9135  0.7845 -0.2025
   64MOL   H37325699   2.855   7.138   4.272  0.8534 -0.9406 -0.8125
   64MOL   H37425700   2.648   7.024   4.360 -0.7053  1.7877 -1.4805
   64MOL   H37525701   2.445   6.713   4.106 -1.0552  0.0621 -0.1277
   64MOL   H37625702   2.536   6.619   4.217 -0.0424 -0.0862 -3.0708
   64MOL   H37725703   2.376   6.680   4.269 -0.3641  1.1106 -0.5217
   64MOL   H37825704   2.630   6.774   4.012  1.2928 -0.8676  0.6910
   64MOL   H37925705   2.840   6.867   3.931 -0.9698 -1.3032  0.1075
   64MOL   H38025706   3.200   7.061   4.152 -2.4128  4.1414 -1.6968
   64MOL   H38125707   3.070   7.039   4.263  2.3720  0.9780 -0.2397
   64MOL   C38225708   3.122   6.855   4.170 -0.4394  0.9873  1.1825
   64MOL   C38325709   3.157   6.803   4.305 -0.7715  0.4439  0.1194
   64MOL   C38425710   3.252   6.871   4.389 -0.4529 -0.3101  0.0507
   64MOL   C38525711   3.290   6.811   4.508  0.9383  0.0998 -0.2997
   64MOL   C38625712   3.238   6.683   4.550  0.4329  0.1090  0.5328
   64MOL   O38725713   3.290   6.615   4.657 -0.0690 -0.0239  0.3084
   64MOL   C38825714   3.392   6.683   4.726 -0.6313  0.1692  0.0168
   64MOL   C38925715   3.155   6.615   4.461 -0.4135 -0.0639  0.0530
   64MOL   C39025716   3.111   6.677   4.340 -0.1232  0.9832 -0.2328
   64MOL   C39125717   3.238   6.805   4.081  0.1436 -0.1288 -0.0574
   64MOL   H39225718   3.035   6.807   4.127 -0.3733  0.9537  1.0862
   64MOL   H39325719   3.286   6.971   4.369 -0.6520 -0.3437 -0.4694
   64MOL   H39425720   3.373   6.859   4.559  1.2027 -0.0806 -0.5576
   64MOL   H39525721   3.481   6.678   4.662  1.0935 -0.0921  2.3519
   64MOL   H39625722   3.413   6.617   4.810  0.5214  0.4281 -0.0541
   64MOL   H39725723   3.364   6.778   4.772 -1.6888 -1.2444  2.3475
   64MOL   H39825724   3.124   6.519   4.499 -0.0591  0.2137  1.0597
   64MOL   H39925725   3.047   6.616   4.278  1.3801  0.0722 -0.9294
   64MOL   H40025726   3.256   6.698   4.070 -0.2485 -0.0859 -1.1351
   64MOL   H40125727   3.339   6.835   4.107 -0.0840  1.4925 -1.0194
   64MOL   H40225728   3.226   6.836   3.977 -2.5308  0.1389  0.2899
   65MOL     C125729   2.353   4.197   6.581  0.1160  0.3719  0.5157
   65MOL     C225730   2.395   4.308   6.488  0.2467  0.3714 -0.4371
   65MOL     C325731   2.394   4.438   6.544 -0.3802  0.1345 -0.5245
   65MOL     C425732   2.425   4.544   6.459 -0.0404  0.8182 -0.5355
   65MOL     C525733   2.473   4.526   6.325 -0.1042  0.3425 -0.7602
   65MOL     O625734   2.514   4.621   6.236  0.2094 -0.0674 -0.1095
   65MOL     C725735   2.502   4.755   6.273  0.0983 -0.5698 -0.3631
   65MOL     C825736   2.471   4.396   6.269 -0.2025  0.0542  0.1292
   65MOL     C925737   2.442   4.284   6.352  0.5669 -0.5999  1.0149
   65MOL    C1025738   2.201   4.204   6.624 -0.2184 -0.0403 -0.8949
   65MOL    H1125739   2.420   4.199   6.667  0.0921  0.6068  0.5287
   65MOL    H1225740   2.376   4.452   6.649 -1.3903 -0.4911 -0.6104
   65MOL    H1325741   2.434   4.636   6.514 -0.2821 -2.1476  4.7106
   65MOL    H1425742   2.580   4.788   6.342  1.1123  0.3720 -1.9290
   65MOL    H1525743   2.505   4.817   6.184  1.8747  1.1718  0.8481
   65MOL    H1625744   2.412   4.770   6.333  0.3458  0.1770 -0.1680
   65MOL    H1725745   2.499   4.385   6.165 -1.7206 -0.6617 -0.2199
   65MOL    H1825746   2.443   4.182   6.316  1.6746 -0.2992  0.1757
   65MOL    H1925747   2.185   4.148   6.716 -0.3604  0.5400 -0.5659
   65MOL    H2025748   2.178   4.307   6.651 -0.7528 -0.0164 -1.4084
   65MOL    H2125749   2.368   4.098   6.538 -4.1456  0.0977 -0.5570
   65MOL    C2225750   2.099   4.163   6.520  0.9399  0.1162  0.2041
   65MOL    C2325751   2.104   4.015   6.494 -0.4818 -0.1580  0.6497
   65MOL    C2425752   2.082   3.916   6.589 -0.4268  0.3276  0.2085
   65MOL    C2525753   2.078   3.776   6.551  0.2018 -0.6445 -0.0371
   65MOL    C2625754   2.117   3.740   6.421 -1.0319 -0.0236 -0.1697
   65MOL    O2725755   2.138   3.607   6.381  0.6050  0.3370 -0.5742
   65MOL    C2825756   2.116   3.502   6.478 -0.5089 -0.2414  0.4899
   65MOL    C2925757   2.156   3.839   6.330 -0.1248  0.1936 -0.1733
   65MOL    C3025758   2.149   3.970   6.366  0.0047 -0.0628  0.6037
   65MOL    C3125759   1.954   4.213   6.555 -0.5298 -0.1674  0.5740
   65MOL    H3225760   2.133   4.201   6.424 -0.3046  1.8381  0.4190
   65MOL    H3325761   2.067   3.947   6.692  4.9438  0.7299  1.0308
   65MOL    H3425762   2.047   3.708   6.630 -1.2102  2.4473  2.2150
   65MOL    H3525763   2.149   3.534   6.577  2.1294 -0.0993 -0.3985
   65MOL    H3625764   2.174   3.416   6.444 -1.4456 -0.3449 -0.9059
   65MOL    H3725765   2.009   3.481   6.480 -0.6935  0.5958 -0.1505
   65MOL    H3825766   2.188   3.804   6.233 -0.6152  1.2434 -0.7271
   65MOL    H3925767   2.183   4.046   6.296 -0.6216  0.4457  0.8474
   65MOL    H4025768   1.884   4.130   6.548 -1.6616  0.8117  0.2473
   65MOL    H4125769   1.944   4.239   6.660 -0.6149 -0.9223  0.7581
   65MOL    C4225770   1.906   4.331   6.463 -0.5607  0.2951  0.7972
   65MOL    C4325771   1.997   4.453   6.456  0.0519 -0.2244 -0.0002
   65MOL    C4425772   2.059   4.496   6.337 -0.3552 -0.6472  0.0851
   65MOL    C4525773   2.132   4.616   6.338  0.0801  0.6670 -0.1669
   65MOL    C4625774   2.143   4.699   6.454 -0.2783 -0.0335  0.2758
   65MOL    O4725775   2.217   4.815   6.445 -0.3100  0.3458 -0.4096
   65MOL    C4825776   2.245   4.891   6.566 -0.3764  0.3757  0.1312
   65MOL    C4925777   2.082   4.653   6.576 -0.6116  0.0440 -0.1939
   65MOL    C5025778   2.015   4.530   6.575  0.1137  0.2280 -0.2934
   65MOL    C5125779   1.757   4.366   6.477 -0.7558  0.6989  0.1849
   65MOL    H5225780   1.911   4.283   6.366 -2.0389  0.0561  0.8323
   65MOL    H5325781   2.043   4.454   6.239 -0.0527  1.4586 -0.8834
   65MOL    H5425782   2.186   4.651   6.251  1.1501  0.2026  0.3077
   65MOL    H5525783   2.305   4.979   6.546  0.8281 -0.6182 -0.7484
   65MOL    H5625784   2.153   4.917   6.618  0.3531 -1.2363  2.3236
   65MOL    H5725785   2.306   4.829   6.633  2.8426  2.4079 -0.8166
   65MOL    H5825786   2.088   4.708   6.669 -2.5272 -0.8727  0.5023
   65MOL    H5925787   1.973   4.497   6.668 -0.5454 -1.1670 -1.0715
   65MOL    H6025788   1.748   4.423   6.569  0.2922 -0.5216  1.0605
   65MOL    H6125789   1.702   4.274   6.498 -2.0857  1.3021 -0.6231
   65MOL    C6225790   1.686   4.448   6.362 -0.0932 -0.2402 -0.2872
   65MOL    C6325791   1.734   4.598   6.365 -0.4353 -0.0798 -0.1433
   65MOL    C6425792   1.705   4.676   6.476  0.4028 -0.2668 -0.2603
   65MOL    C6525793   1.747   4.812   6.483 -0.5481 -0.0377  0.2632
   65MOL    C6625794   1.800   4.873   6.366  0.5673  0.0821 -0.0721
   65MOL    O6725795   1.834   5.005   6.360  0.2665  0.3353 -0.2263
   65MOL    C6825796   1.813   5.082   6.481 -0.5139 -0.3709 -0.5697
   65MOL    C6925797   1.826   4.795   6.251  0.1276 -0.0199 -0.1605
   65MOL    C7025798   1.794   4.658   6.249 -0.1362  0.1571  0.1483
   65MOL    C7125799   1.528   4.441   6.361  0.0244 -0.0413  0.4512
   65MOL    H7225800   1.719   4.407   6.266 -2.0357 -0.6147 -0.8115
   65MOL    H7325801   1.635   4.640   6.551 -0.2047  1.6326  0.0962
   65MOL    H7425802   1.721   4.866   6.573  2.4695 -0.7463  1.6140
   65MOL    H7525803   1.865   5.175   6.458  0.1980 -0.8358 -0.8565
   65MOL    H7625804   1.871   5.050   6.568 -1.8779  1.1686  0.9554
   65MOL    H7725805   1.708   5.101   6.502  0.2238  1.8484  1.3352
   65MOL    H7825806   1.878   4.846   6.171 -1.5082  0.8038 -0.7255
   65MOL    H7925807   1.807   4.589   6.167  1.5094  1.4796 -0.7485
   65MOL    H8025808   1.508   4.334   6.365  0.4939 -0.2142 -1.2390
   65MOL    H8125809   1.500   4.493   6.453  0.6387  2.0542 -0.5122
   65MOL    C8225810   1.463   4.510   6.243  0.0766 -0.3002 -0.1079
   65MOL    C8325811   1.486   4.432   6.112 -0.0460  0.8446  0.0532
   65MOL    C8425812   1.435   4.299   6.102 -0.6066 -0.5014 -0.2350
   65MOL    C8525813   1.449   4.221   5.985 -0.0774  0.8168 -0.8210
   65MOL    C8625814   1.501   4.285   5.871 -0.2585  0.1749 -0.1889
   65MOL    O8725815   1.498   4.228   5.747 -0.4303  0.3554 -0.6658
   65MOL    C8825816   1.473   4.085   5.745  0.0650  0.6566  0.8235
   65MOL    C8925817   1.539   4.423   5.879  0.1983 -0.6713 -0.9503
   65MOL    C9025818   1.548   4.494   6.001  0.2500 -0.3973  0.2106
   65MOL    C9125819   1.310   4.527   6.261 -0.4175  0.7016 -0.2996
   65MOL    H9225820   1.509   4.608   6.240  2.1922 -1.2583 -0.1136
   65MOL    H9325821   1.363   4.273   6.178  0.9256  0.2837  1.5162
   65MOL    H9425822   1.405   4.122   5.983  0.4442  0.5591 -0.0851
   65MOL    H9525823   1.380   4.059   5.795 -0.8202  0.2280 -1.0206
   65MOL    H9625824   1.560   4.045   5.798  0.3074  0.1114  0.0226
   65MOL    H9725825   1.459   4.048   5.644  1.3439 -0.5488  1.0724
   65MOL    H9825826   1.569   4.471   5.787  1.2772  1.0219  0.2649
   65MOL    H9925827   1.586   4.595   5.997 -0.1135 -0.2374  0.6566
   65MOL   H10025828   1.265   4.523   6.162 -1.7769  2.2368  0.2367
   65MOL   H10125829   1.274   4.436   6.309  0.0283  0.9249  0.4628
   65MOL   C10225830   1.255   4.663   6.309  0.5940 -0.3714 -0.0592
   65MOL   C10325831   1.110   4.666   6.338  0.2938  0.7012  0.1871
   65MOL   C10425832   1.030   4.763   6.273  1.0344  0.0380  0.3816
   65MOL   C10525833   0.894   4.762   6.300 -0.0576  0.0602  0.8027
   65MOL   C10625834   0.840   4.667   6.385 -0.1820 -0.1676 -0.2816
   65MOL   O10725835   0.710   4.649   6.404 -0.0663 -0.2257  0.0778
   65MOL   C10825836   0.625   4.747   6.359 -0.2149  0.0595  0.6547
   65MOL   C10925837   0.919   4.586   6.467  0.1881 -0.3587 -0.2797
   65MOL   C11025838   1.053   4.579   6.431 -0.4689 -0.3145 -0.2936
   65MOL   C11125839   1.328   4.720   6.444 -0.3604  0.2949 -0.0381
   65MOL   H11225840   1.270   4.743   6.237 -0.9482  0.4543  0.5275
   65MOL   H11325841   1.075   4.841   6.212  0.9724 -0.0346  0.2436
   65MOL   H11425842   0.844   4.842   6.247  0.2653 -0.2273  0.0627
   65MOL   H11525843   0.529   4.740   6.412 -0.1097  0.6348  0.9254
   65MOL   H11625844   0.671   4.843   6.383 -1.3554  0.5661  0.8657
   65MOL   H11725845   0.616   4.725   6.253  3.1230  0.3801  0.2613
   65MOL   H11825846   0.875   4.514   6.534  0.1766 -0.5606 -0.5021
   65MOL   H11925847   1.116   4.507   6.481 -0.8058  0.8963  1.9461
   65MOL   H12025848   1.313   4.640   6.517  2.0995  0.7905  1.0492
   65MOL   H12125849   1.433   4.735   6.420 -0.4679  1.3787  0.1425
   65MOL   C12225850   1.266   4.856   6.501 -0.2862 -0.0793  0.2417
   65MOL   C12325851   1.287   4.971   6.396 -1.0348 -0.1649 -0.4045
   65MOL   C12425852   1.178   5.040   6.348  0.3391 -0.0264  0.0349
   65MOL   C12525853   1.190   5.153   6.264 -0.3384  0.0870  0.8237
   65MOL   C12625854   1.316   5.197   6.216 -0.6265  0.2562 -0.2655
   65MOL   O12725855   1.320   5.312   6.138  0.4700  0.7159 -0.5249
   65MOL   C12825856   1.454   5.344   6.097  0.2623 -0.7918 -0.2844
   65MOL   C12925857   1.426   5.116   6.258 -1.1325 -0.5655 -0.2088
   65MOL   C13025858   1.415   5.013   6.354 -0.4521 -0.3191  0.3661
   65MOL   C13125859   1.329   4.893   6.631  0.0655 -0.8163  0.2250
   65MOL   H13225860   1.158   4.851   6.517 -0.5545 -0.3546 -1.5438
   65MOL   H13325861   1.080   5.027   6.393  1.0874 -0.1004  1.6817
   65MOL   H13425862   1.099   5.207   6.242  0.6958  1.1299 -1.0657
   65MOL   H13525863   1.450   5.440   6.046  1.3213 -1.1433 -1.0669
   65MOL   H13625864   1.520   5.344   6.184 -2.3241 -0.0228  1.7433
   65MOL   H13725865   1.491   5.276   6.019 -1.0353 -1.8475  0.0134
   65MOL   H13825866   1.526   5.148   6.232 -0.8715  0.6581  2.2007
   65MOL   H13925867   1.503   4.960   6.389  1.1503  1.5817 -0.6641
   65MOL   H14025868   1.305   4.997   6.650  0.9641  0.4487 -4.8255
   65MOL   H14125869   1.438   4.892   6.621 -0.0633 -0.8918 -1.3160
   65MOL   C14225870   1.306   4.796   6.751 -0.3617 -0.0212  0.3022
   65MOL   C14325871   1.328   4.869   6.886 -0.4172 -0.5163  0.2976
   65MOL   C14425872   1.261   4.990   6.912  0.5037 -0.7859  0.1783
   65MOL   C14525873   1.266   5.046   7.041  0.1927 -0.2556  0.1938
   65MOL   C14625874   1.329   4.977   7.146 -0.6548  0.2196  0.1435
   65MOL   O14725875   1.312   5.024   7.276 -0.0838  0.2381 -0.0665
   65MOL   C14825876   1.282   4.930   7.381  0.4585  0.3731 -0.6164
   65MOL   C14925877   1.390   4.856   7.115 -1.0394  0.0888  0.6648
   65MOL   C15025878   1.395   4.798   6.987 -0.8645 -0.2205 -0.2590
   65MOL   C15125879   1.164   4.735   6.746  0.1809  0.5212 -0.6099
   65MOL   H15225880   1.372   4.709   6.747  0.6403  0.7098  0.6465
   65MOL   H15325881   1.208   5.033   6.829  0.0250 -1.9367 -0.1163
   65MOL   H15425882   1.205   5.133   7.061 -0.0427 -0.5221  0.6432
   65MOL   H15525883   1.212   4.854   7.346 -2.6911  2.6730  0.4027
   65MOL   H15625884   1.376   4.880   7.404  0.1160 -0.3748 -0.8291
   65MOL   H15725885   1.239   4.974   7.472  1.9872  0.0059  0.3047
   65MOL   H15825886   1.445   4.801   7.190 -2.3511 -0.6404  1.1146
   65MOL   H15925887   1.442   4.701   6.980 -0.4231  0.0449 -1.1423
   65MOL   H16025888   1.148   4.680   6.653  1.7385 -2.3760  0.7529
   65MOL   H16125889   1.092   4.817   6.746 -1.3225 -0.7721 -1.5167
   65MOL   C16225890   1.123   4.642   6.864 -0.0491  0.0052  0.2015
   65MOL   C16325891   1.222   4.524   6.893 -0.3296  0.2252  0.1030
   65MOL   C16425892   1.286   4.445   6.796 -0.1868  0.0086  0.2842
   65MOL   C16525893   1.370   4.339   6.817  0.1122 -0.3041  0.1277
   65MOL   C16625894   1.392   4.303   6.954 -0.5683  0.2618 -0.0194
   65MOL   O16725895   1.473   4.191   6.974 -0.0156  0.0631  0.7882
   65MOL   C16825896   1.489   4.137   7.101  0.8254 -0.2720  0.4853
   65MOL   C16925897   1.332   4.378   7.057  0.8849  0.8606  0.4029
   65MOL   C17025898   1.247   4.490   7.028  0.1716 -0.5915 -0.0631
   65MOL   C17125899   0.981   4.586   6.846 -0.0030  0.5968 -0.1763
   65MOL   H17225900   1.118   4.697   6.958 -1.9238  0.0160  0.1224
   65MOL   H17325901   1.263   4.470   6.693  1.1365 -0.0330 -0.0300
   65MOL   H17425902   1.397   4.274   6.735 -1.5337  2.0727 -2.3752
   65MOL   H17525903   1.549   4.045   7.099  1.6098  0.1741  1.9358
   65MOL   H17625904   1.398   4.094   7.144  0.2589 -1.2220 -1.6284
   65MOL   H17725905   1.543   4.191   7.179 -1.5004 -0.5602  2.3595
   65MOL   H17825906   1.349   4.349   7.160 -0.7029  0.6179  0.6052
   65MOL   H17925907   1.194   4.557   7.094 -1.9518  0.3641 -2.6796
   65MOL   H18025908   0.967   4.509   6.922 -0.0212  0.8408  0.0669
   65MOL   H18125909   0.966   4.537   6.749  0.1889  4.6970 -2.3799
   65MOL   C18225910   0.865   4.679   6.880  0.1674  0.3110  0.6327
   65MOL   C18325911   0.876   4.762   7.004 -0.0815 -0.1859  0.3398
   65MOL   C18425912   0.892   4.901   6.999  0.0830 -0.1692 -0.3115
   65MOL   C18525913   0.890   4.984   7.106  1.0400 -0.1951 -0.0914
   65MOL   C18625914   0.882   4.924   7.234  0.5905 -0.2144  0.1795
   65MOL   O18725915   0.900   5.002   7.348  0.0289  0.0740 -0.1452
   65MOL   C18825916   0.940   5.138   7.337 -0.3740 -0.6542  0.0993
   65MOL   C18925917   0.878   4.787   7.246  0.4456 -0.3901 -0.4187
   65MOL   C19025918   0.885   4.703   7.131  0.0587  0.1895 -0.7242
   65MOL   C19125919   0.727   4.609   6.863 -0.1188 -0.5349 -0.0776
   65MOL   H19225920   0.857   4.755   6.802 -1.3486  1.5953  2.0053
   65MOL   H19325921   0.920   4.937   6.900 -0.2452  0.0764 -0.3177
   65MOL   H19425922   0.905   5.089   7.090 -2.5834  0.7230  1.8720
   65MOL   H19525923   0.960   5.187   7.433 -0.5194  0.2066 -0.3084
   65MOL   H19625924   0.859   5.194   7.290 -0.6186  0.6477  2.0068
   65MOL   H19725925   1.031   5.153   7.279 -1.0054  0.3545 -0.6339
   65MOL   H19825926   0.899   4.748   7.345  0.0962 -0.6156 -0.4329
   65MOL   H19925927   0.901   4.597   7.148 -0.2958 -0.0860 -2.0846
   65MOL   H20025928   0.702   4.584   6.759 -1.2127  0.8915 -0.1523
   65MOL   H20125929   0.739   4.515   6.917  1.6350 -0.5931 -0.5121
   65MOL   C20225930   0.607   4.682   6.920  0.3532 -0.2223 -0.0809
   65MOL   C20325931   0.487   4.592   6.932  1.1935 -0.1775  0.0443
   65MOL   C20425932   0.432   4.566   7.058  0.3582  0.6378 -0.8149
   65MOL   C20525933   0.318   4.482   7.073  0.1739 -0.0191  0.2111
   65MOL   C20625934   0.256   4.420   6.964 -0.3624 -0.0715  0.0731
   65MOL   O20725935   0.139   4.350   6.996 -0.0124  0.0284  0.4050
   65MOL   C20825936   0.031   4.365   6.902  0.1229 -0.2008 -0.0737
   65MOL   C20925937   0.305   4.453   6.834  0.9202 -0.0460 -0.0954
   65MOL   C21025938   0.422   4.533   6.820 -0.4568 -0.2315 -0.3108
   65MOL   C21125939   0.582   4.814   6.849  0.2551  0.0076 -0.6640
   65MOL   H21225940   0.626   4.704   7.025  1.0359 -1.6924  0.1107
   65MOL   H21325941   0.472   4.600   7.153 -0.9752  0.7391 -0.2867
   65MOL   H21425942   0.269   4.464   7.167 -0.3510  0.4081  0.0223
   65MOL   H21525943   0.049   4.324   6.803  0.1462  2.0009 -0.9894
   65MOL   H21625944   7.991   4.303   6.944  1.0071 -1.3174 -0.0039
   65MOL   H21725945   8.035   4.466   6.885 -1.7171 -0.4024  2.2407
   65MOL   H21825946   0.247   4.419   6.750 -0.0666  1.2648  0.0489
   65MOL   H21925947   0.447   4.551   6.717  0.4910  0.1967 -0.0075
   65MOL   H22025948   0.562   4.804   6.742  1.9936 -4.2889 -0.6842
   65MOL   H22125949   0.677   4.869   6.851  0.0340  0.5648 -3.1746
   65MOL   C22225950   0.514   4.930   6.937  0.0666 -0.3897 -0.0925
   65MOL   C22325951   0.565   5.073   6.916  0.1595  0.5737 -0.4056
   65MOL   C22425952   0.617   5.143   7.023  0.2137 -0.1975  0.2667
   65MOL   C22525953   0.638   5.284   7.007  0.4283 -0.4833  0.2053
   65MOL   C22625954   0.608   5.352   6.883  0.0825  0.1328  0.3906
   65MOL   O22725955   0.618   5.484   6.858 -0.9367 -0.2437 -0.6973
   65MOL   C22825956   0.691   5.569   6.945  0.1611  0.4838 -0.0328
   65MOL   C22925957   0.563   5.271   6.776  0.0659 -0.4435 -0.8477
   65MOL   C23025958   0.549   5.131   6.796  0.0553 -0.3377 -0.0218
   65MOL   C23125959   0.361   4.933   6.904 -0.1462 -0.3094  0.5739
   65MOL   H23225960   0.531   4.900   7.040  0.3841 -1.5210 -0.4681
   65MOL   H23325961   0.645   5.085   7.110  1.1672 -0.1692 -0.0149
   65MOL   H23425962   0.669   5.332   7.098  1.5119 -0.9078  0.0684
   65MOL   H23525963   0.799   5.560   6.952  0.0767 -0.0508  0.6144
   65MOL   H23625964   0.696   5.667   6.898 -1.5012  0.5504 -0.0815
   65MOL   H23725965   0.653   5.589   7.045  1.6122 -0.8422  0.7997
   65MOL   H23825966   0.523   5.309   6.683  0.7008 -0.3756 -1.0960
   65MOL   H23925967   0.516   5.073   6.710 -0.4746 -0.0520 -0.0099
   65MOL   H24025968   0.323   5.033   6.881 -0.2245 -0.9839 -2.4410
   65MOL   H24125969   0.334   4.878   6.814 -0.2012 -0.1410  0.4874
   65MOL   C24225970   0.274   4.890   7.024  0.8542 -0.6395  0.0984
   65MOL   C24325971   0.283   4.988   7.143 -0.2631  0.0866 -0.0268
   65MOL   C24425972   0.358   4.949   7.256  0.0874 -0.0370  0.2406
   65MOL   C24525973   0.361   5.043   7.362 -0.2073  0.0565  0.4591
   65MOL   C24625974   0.295   5.167   7.354  0.6096 -1.0062  0.1375
   65MOL   O24725975   0.301   5.265   7.445  0.3796  0.2708  0.4470
   65MOL   C24825976   0.319   5.229   7.578  0.0219 -0.2872 -0.0550
   65MOL   C24925977   0.230   5.203   7.235 -0.9683  0.2249 -0.1802
   65MOL   C25025978   0.228   5.115   7.133  0.0358 -0.2001  0.0070
   65MOL   C25125979   0.124   4.863   6.980 -0.1485  0.1009  0.0558
   65MOL   H25225980   0.301   4.793   7.064 -1.5904 -0.5981  1.9792
   65MOL   H25325981   0.403   4.852   7.269  2.0952  0.9796  1.0105
   65MOL   H25425982   0.428   5.019   7.443  0.3706  0.8150  0.2142
   65MOL   H25525983   0.416   5.181   7.592 -0.2562 -0.9000 -0.2639
   65MOL   H25625984   0.310   5.315   7.645 -2.7448  1.6723 -2.7795
   65MOL   H25725985   0.246   5.157   7.615  1.9995 -1.8805  0.8814
   65MOL   H25825986   0.176   5.296   7.228  0.6977  1.1068 -1.8544
   65MOL   H25925987   0.185   5.152   7.041  2.0204  3.9218  0.6533
   65MOL   H26025988   0.119   4.784   6.904 -1.4087  0.7584 -0.5507
   65MOL   H26125989   0.109   4.957   6.927 -3.1085  0.2954  1.1654
   65MOL   C26225990   0.006   4.860   7.086  0.0121 -0.3708  0.7499
   65MOL   C26325991   0.024   4.749   7.192  0.2619  0.5914 -0.4160
   65MOL   C26425992   0.063   4.782   7.322  0.8924  0.4107  0.1664
   65MOL   C26525993   0.093   4.681   7.420  0.3077  0.0003  0.3761
   65MOL   C26625994   0.079   4.550   7.379 -0.0783 -0.2778 -0.8304
   65MOL   O26725995   0.100   4.452   7.475 -0.1785  0.1266 -0.3629
   65MOL   C26825996   0.109   4.320   7.437  1.0738  0.0446  0.3352
   65MOL   C26925997   0.028   4.512   7.253 -0.7300 -0.1856  0.4019
   65MOL   C27025998   0.005   4.610   7.156  0.3245  1.1037  0.1012
   65MOL   C27125999   7.909   4.854   7.019  0.2101  0.7487 -0.3559
   65MOL   H27226000   0.010   4.958   7.135  0.2273 -0.4929  0.9747
   65MOL   H27326001   0.048   4.885   7.350 -1.5778  0.9626 -2.9270
   65MOL   H27426002   0.104   4.695   7.526 -0.2359  1.1027  0.2878
   65MOL   H27526003   0.124   4.256   7.524  0.4513  0.1542  0.5251
   65MOL   H27626004   0.185   4.305   7.360  2.1315 -1.2510  1.5882
   65MOL   H27726005   0.008   4.298   7.403  1.4793  0.1380 -0.9544
   65MOL   H27826006   0.007   4.413   7.214  0.2587 -0.5762  0.8443
   65MOL   H27926007   8.009   4.586   7.057  1.6921  0.2462 -0.2063
   65MOL   H28026008   7.903   4.948   6.964 -3.3542  0.0798 -1.1815
   65MOL   H28126009   7.906   4.768   6.953 -1.5388  0.9766 -0.5778
   65MOL   C28226010   7.786   4.851   7.119 -0.1464 -0.1464 -0.8040
   65MOL   C28326011   7.644   4.836   7.044 -0.8497  0.5111  0.0483
   65MOL   C28426012   7.572   4.719   7.064 -0.7129  0.5788  0.0076
   65MOL   C28526013   7.472   4.677   6.973 -0.2154  0.4449  0.4410
   65MOL   C28626014   7.431   4.769   6.870 -0.3515 -0.2005  0.4112
   65MOL   O28726015   7.327   4.734   6.791  0.1965  0.3649  0.2121
   65MOL   C28826016   7.306   4.813   6.671  0.0520 -0.0229 -0.6087
   65MOL   C28926017   7.504   4.892   6.854  0.7429  0.4970  0.1758
   65MOL   C29026018   7.607   4.931   6.945 -0.0263 -0.1920 -0.0080
   65MOL   C29126019   7.791   4.978   7.206 -0.3218 -0.3192  0.9668
   65MOL   H29226020   7.795   4.762   7.180  0.6515 -0.6485 -1.6466
   65MOL   H29326021   7.604   4.645   7.136  1.3759  3.3091  2.0096
   65MOL   H29426022   7.424   4.580   6.978  1.2390 -0.3666 -0.7883
   65MOL   H29526023   7.389   4.806   6.600  0.6595  2.7264 -0.2541
   65MOL   H29626024   7.223   4.773   6.611  0.3002 -1.3891 -0.0418
   65MOL   H29726025   7.285   4.918   6.691  1.0042 -0.0340  0.4389
   65MOL   H29826026   7.499   4.951   6.764  1.7988 -1.7788 -1.4188
   65MOL   H29926027   7.673   5.015   6.926 -1.1247  0.5405 -0.6433
   65MOL   H30026028   7.884   4.986   7.262 -0.2564  1.0680  0.6847
   65MOL   H30126029   7.793   5.059   7.132  1.5043 -2.0578 -0.9760
   65MOL   C30226030   7.681   5.001   7.314  0.0348 -0.3288  0.1080
   65MOL   C30326031   7.663   4.885   7.407 -0.0871  0.0855 -0.0231
   65MOL   C30426032   7.533   4.832   7.437  0.3005  0.2453 -0.8446
   65MOL   C30526033   7.517   4.716   7.519  0.7206  0.6771 -0.0808
   65MOL   C30626034   7.631   4.661   7.579  0.0742  0.5084 -0.3168
   65MOL   O30726035   7.637   4.547   7.654 -0.5720 -0.0364  0.3550
   65MOL   C30826036   7.515   4.481   7.694  0.1625  0.7895  0.9808
   65MOL   C30926037   7.759   4.726   7.570 -0.5380  0.7445  0.0617
   65MOL   C31026038   7.776   4.826   7.468 -0.1675 -0.2070 -0.3440
   65MOL   C31126039   7.702   5.132   7.394  0.1181  0.0554  0.0391
   65MOL   H31226040   7.587   5.006   7.260  0.7843  0.3886 -1.1414
   65MOL   H31326041   7.444   4.878   7.397  0.2880  0.4984 -0.5216
   65MOL   H31426042   7.416   4.678   7.522  0.6290  0.8518 -0.8576
   65MOL   H31526043   7.536   4.409   7.773 -2.6896  0.1643  1.2112
   65MOL   H31626044   7.472   4.439   7.603  0.1352  1.2324  0.7826
   65MOL   H31726045   7.452   4.563   7.728 -1.3335 -0.2496  0.7333
   65MOL   H31826046   7.844   4.672   7.607 -1.4031 -1.0563 -0.5408
   65MOL   H31926047   7.874   4.870   7.455  0.8046 -2.4781 -0.8775
   65MOL   H32026048   7.685   5.211   7.320 -2.3869  0.7937  1.3412
   65MOL   H32126049   7.800   5.137   7.442 -0.4766 -1.1281  1.3964
   65MOL   C32226050   7.596   5.163   7.500 -0.2781  0.3746 -0.7279
   65MOL   C32326051   7.559   5.311   7.495 -0.2384 -0.2032  0.2590
   65MOL   C32426052   7.629   5.405   7.577 -0.6910  0.4613 -0.1637
   65MOL   C32526053   7.583   5.537   7.592  0.3173  0.1516 -0.3969
   65MOL   C32626054   7.469   5.578   7.513  0.7775 -0.9985 -0.1521
   65MOL   O32726055   7.418   5.705   7.517  0.5016 -0.5854  0.3839
   65MOL   C32826056   7.471   5.792   7.624  0.3486 -0.3270  0.3095
   65MOL   C32926057   7.400   5.485   7.433  0.2116 -1.2595  0.2616
   65MOL   C33026058   7.448   5.359   7.421 -0.3583  0.5058 -0.0539
   65MOL   C33126059   7.645   5.105   7.633 -0.0888 -0.0216 -0.1857
   65MOL   H33226060   7.510   5.102   7.472 -1.3979  1.5228  0.2011
   65MOL   H33326061   7.707   5.372   7.644 -0.7611 -1.4576 -0.9905
   65MOL   H33426062   7.629   5.610   7.656 -0.7982  1.0681 -0.6288
   65MOL   H33526063   7.458   5.758   7.726 -0.2853 -0.5107  0.1694
   65MOL   H33626064   7.424   5.890   7.621 -0.4891 -0.7665 -1.7614
   65MOL   H33726065   7.575   5.825   7.614  0.7319 -2.0168 -1.6036
   65MOL   H33826066   7.312   5.512   7.377  0.3785 -0.1410  0.5236
   65MOL   H33926067   7.396   5.282   7.365  0.4432 -0.4944  0.5514
   65MOL   H34026068   7.674   5.001   7.623  1.1517  0.1875  1.0383
   65MOL   H34126069   7.742   5.154   7.645 -0.9792  2.0677 -1.1874
   65MOL   C34226070   7.557   5.133   7.759 -0.8800  0.0084 -0.2908
   65MOL   C34326071   7.649   5.114   7.879 -0.1301 -0.0535 -0.1283
   65MOL   C34426072   7.680   5.227   7.955 -0.2177  0.0292 -1.1913
   65MOL   C34526073   7.762   5.212   0.031 -0.4366  0.2653 -0.0571
   65MOL   C34626074   7.800   5.083   0.077  0.1045  0.6546  0.1591
   65MOL   O34726075   7.874   5.072   0.188 -0.1407  0.3435 -0.2928
   65MOL   C34826076   7.867   4.952   0.265 -0.0366 -0.6324  0.4107
   65MOL   C34926077   7.769   4.971   8.037 -0.2335 -0.1550  0.6002
   65MOL   C35026078   7.698   4.986   7.917  1.2071  0.4156  1.2101
   65MOL   C35126079   7.430   5.054   7.747 -0.5481 -0.0333  0.0836
   65MOL   H35226080   7.526   5.237   7.752 -0.5664  0.0847 -0.5120
   65MOL   H35326081   7.649   5.324   7.920  3.9287  1.4541 -1.1550
   65MOL   H35426082   7.788   5.302   0.084 -0.0142  0.3993 -0.4797
   65MOL   H35526083   7.764   4.931   0.293  0.0201 -0.5302  0.6993
   65MOL   H35626084   7.899   4.863   0.210  0.6437 -0.1994  0.1042
   65MOL   H35726085   7.922   4.961   0.359 -1.5573 -1.9284  1.4552
   65MOL   H35826086   7.804   4.872   0.020  3.1281  0.5974 -0.9825
   65MOL   H35926087   7.668   4.897   7.863 -1.5014  0.7044  2.1569
   65MOL   H36026088   7.357   5.112   7.690 -0.3517  1.7127  1.5508
   65MOL   H36126089   7.448   4.963   7.690 -1.5685  0.6403 -1.3227
   65MOL   C36226090   7.358   5.024   7.883 -0.5369  0.1803 -0.0955
   65MOL   C36326091   7.249   4.913   7.862  1.2750 -0.2416  1.4961
   65MOL   C36426092   7.287   4.772   7.880 -0.6835 -0.2382  0.2399
   65MOL   C36526093   7.194   4.670   7.854 -0.3983  0.6365 -0.1368
   65MOL   C36626094   7.059   4.695   7.834  0.2731  0.7569  0.2016
   65MOL   O36726095   6.976   4.587   7.838  0.3086 -0.1725 -0.3259
   65MOL   C36826096   6.849   4.591   7.776  0.8393 -0.0910  0.5496
   65MOL   C36926097   7.029   4.828   7.803  0.4024  1.3972 -0.2283
   65MOL   C37026098   7.116   4.936   7.816  0.0089 -0.3780 -0.2836
   65MOL   C37126099   7.302   5.150   7.946  0.1607  0.3054  0.5442
   65MOL   H37226100   7.439   4.978   7.939 -2.0987 -3.8750 -0.9654
   65MOL   H37326101   7.391   4.745   7.892 -0.0619  1.3877 -1.3505
   65MOL   H37426102   7.229   4.569   7.871 -1.7258  0.2492  0.3446
   65MOL   H37526103   6.777   4.641   7.841 -1.0032 -1.8337 -0.1048
   65MOL   H37626104   6.842   4.655   7.688  1.8120  0.1603  0.6471
   65MOL   H37726105   6.811   4.491   7.759 -0.3919  0.3118  0.8974
   65MOL   H37826106   6.926   4.852   7.780  0.3190  1.1293 -0.1363
   65MOL   H37926107   7.076   5.036   7.807  0.5473 -0.2551 -1.5488
   65MOL   H38026108   7.382   5.221   7.967  0.9580  0.2329 -2.1600
   65MOL   H38126109   7.241   5.208   7.877  1.1075 -0.5055 -0.9991
   65MOL   C38226110   7.234   5.136   0.043  0.0832  0.7240 -0.4378
   65MOL   C38326111   7.136   5.251   0.066  0.3663  0.5250 -0.3637
   65MOL   C38426112   7.018   5.246   8.038  0.1158 -0.2120 -0.3342
   65MOL   C38526113   6.914   5.342   0.019  0.3196  0.2933  0.5091
   65MOL   C38626114   6.942   5.453   0.107 -0.4812 -0.4522  0.0388
   65MOL   O38726115   6.843   5.547   0.126 -0.3556 -0.0922  0.0734
   65MOL   C38826116   6.864   5.656   0.216 -0.3615  0.3234 -0.7650
   65MOL   C38926117   7.067   5.459   0.171 -0.2033  0.6404  0.5811
   65MOL   C39026118   7.170   5.358   0.147  0.1518  0.4598 -0.3994
   65MOL   C39126119   7.338   5.116   0.165  0.2924 -0.2408  0.3609
   65MOL   H39226120   7.176   5.044   0.043 -2.5306  2.3079  0.5949
   65MOL   H39326121   6.999   5.175   7.959  0.5003 -0.4269 -0.2359
   65MOL   H39426122   6.829   5.347   7.993  2.3348  3.2114 -2.0228
   65MOL   H39526123   6.962   5.704   0.207  0.9247 -2.2732 -1.1424
   65MOL   H39626124   6.876   5.615   0.316 -0.7985  0.5374 -0.6244
   65MOL   H39726125   6.787   5.734   0.213 -0.3102  0.4346  0.5890
   65MOL   H39826126   7.094   5.537   0.241 -1.4305  1.4183  0.1956
   65MOL   H39926127   7.259   5.358   0.209 -0.5238  0.8331  0.5813
   65MOL   H40026128   7.419   5.189   0.172  0.6056 -0.8364  3.8283
   65MOL   H40126129   7.392   5.029   0.128  1.7879  0.3460  1.1058
   65MOL   H40226130   7.309   5.090   0.267  0.8232  0.8213  0.7907
   66MOL     C126131   3.387   1.912   4.010  0.4349 -0.0899  0.4460
   66MOL     C226132   3.309   1.820   4.105  0.1872 -0.4553 -0.2637
   66MOL     C326133   3.217   1.871   4.205 -0.3703  0.1601  0.3050
   66MOL     C426134   3.150   1.781   4.289 -0.4796  0.6970 -0.3734
   66MOL     C526135   3.173   1.646   4.279  0.1147 -0.5729 -0.3073
   66MOL     O626136   3.101   1.563   4.356  0.0780  0.3170 -0.5323
   66MOL     C726137   2.965   1.546   4.304 -0.3735  0.0875 -0.0316
   66MOL     C826138   3.265   1.598   4.185  0.0201  0.3074  0.4146
   66MOL     C926139   3.331   1.680   4.101  0.0255 -0.5257  0.8099
   66MOL    C1026140   3.541   1.882   4.017  0.2577  0.2778  0.6532
   66MOL    H1126141   3.366   2.015   4.040 -1.4270  0.4971 -2.6346
   66MOL    H1226142   3.199   1.978   4.206 -1.7922 -0.0628 -0.3758
   66MOL    H1326143   3.087   1.825   4.365 -0.0394  0.5027  0.1062
   66MOL    H1426144   2.968   1.471   4.225 -1.9480 -1.5648  1.4229
   66MOL    H1526145   2.898   1.502   4.378  2.0104 -0.2734  2.0202
   66MOL    H1626146   2.908   1.633   4.273 -1.3559 -1.2987 -2.2251
   66MOL    H1726147   3.271   1.491   4.172 -0.5485  0.2851  0.3283
   66MOL    H1826148   3.390   1.632   4.024 -0.4445 -0.9070  0.6860
   66MOL    H1926149   3.568   1.884   4.122 -2.8517  0.4406  1.5238
   66MOL    H2026150   3.564   1.784   3.974  2.6923  1.2297 -0.2889
   66MOL    H2126151   3.359   1.881   3.909  0.1412 -0.2227  0.5649
   66MOL    C2226152   3.623   1.979   3.924 -0.4877  0.0020 -0.5176
   66MOL    C2326153   3.602   2.124   3.961 -0.1320 -0.0288 -0.1906
   66MOL    C2426154   3.503   2.202   3.904  0.5786 -0.7471 -0.8250
   66MOL    C2526155   3.485   2.338   3.946  0.4278  0.0728  0.1427
   66MOL    C2626156   3.575   2.394   4.044  0.1037 -0.6713 -0.2650
   66MOL    O2726157   3.562   2.523   4.077  0.6136 -0.5712 -0.2581
   66MOL    C2826158   3.488   2.609   3.996  0.3369 -0.2982  0.2434
   66MOL    C2926159   3.679   2.315   4.101 -0.2254 -0.0205  0.6715
   66MOL    C3026160   3.681   2.179   4.063 -0.3875 -0.0560  0.1350
   66MOL    C3126161   3.772   1.935   3.917 -0.5411  0.3263 -0.5245
   66MOL    H3226162   3.568   1.978   3.830 -0.8963 -3.4093 -0.3224
   66MOL    H3326163   3.441   2.152   3.831 -1.3031 -1.7063  1.3756
   66MOL    H3426164   3.401   2.390   3.904  1.6049 -0.5753 -3.1346
   66MOL    H3526165   3.504   2.600   3.889 -1.8090 -0.4464 -0.0934
   66MOL    H3626166   3.499   2.717   4.009  1.3918  0.0028 -2.7562
   66MOL    H3726167   3.383   2.595   4.021  0.1366  3.7213  2.0801
   66MOL    H3826168   3.738   2.357   4.181  2.8117 -0.1399 -1.4330
   66MOL    H3926169   3.748   2.127   4.130  1.4513  0.5846 -1.1896
   66MOL    H4026170   3.823   1.954   4.011  3.4899 -1.8146 -2.1289
   66MOL    H4126171   3.787   1.827   3.906 -0.2010  0.3819 -0.6008
   66MOL    C4226172   3.856   2.002   3.807  0.3660 -0.9200  0.2612
   66MOL    C4326173   3.786   1.989   3.676 -0.4857 -0.0161 -0.1343
   66MOL    C4426174   3.765   2.101   3.591  0.1768 -0.4375 -0.0918
   66MOL    C4526175   3.719   2.079   3.457  0.2802 -0.0212 -0.0528
   66MOL    C4626176   3.690   1.948   3.416  0.1481 -0.2021 -0.1958
   66MOL    O4726177   3.623   1.923   3.297  0.0678 -0.5325  0.0352
   66MOL    C4826178   3.619   2.022   3.200  0.0407  0.5437  0.1939
   66MOL    C4926179   3.710   1.838   3.501  0.1739 -0.2577 -0.6498
   66MOL    C5026180   3.761   1.864   3.626 -0.2658 -0.0984 -0.0928
   66MOL    C5126181   4.003   1.949   3.798  0.2075 -0.2072  0.2659
   66MOL    H5226182   3.849   2.109   3.827 -1.1503 -0.7730 -1.0202
   66MOL    H5326183   3.776   2.205   3.618  3.0031 -0.2705 -1.7390
   66MOL    H5426184   3.709   2.160   3.386 -0.7147 -0.4012 -0.3580
   66MOL    H5526185   3.552   2.106   3.220 -2.0634 -0.8689 -0.6309
   66MOL    H5626186   3.712   2.074   3.179  1.6715 -2.3405  0.0423
   66MOL    H5726187   3.580   1.984   3.105  0.8324 -0.3045  0.1984
   66MOL    H5826188   3.683   1.736   3.480  2.9804 -0.8760 -1.4595
   66MOL    H5926189   3.779   1.782   3.694  0.9310  0.7316  0.6145
   66MOL    H6026190   4.003   1.841   3.807 -0.9590 -0.1214  1.4684
   66MOL    H6126191   4.058   1.973   3.889  1.4953  0.9818 -0.7992
   66MOL    C6226192   4.092   2.026   3.687  0.2348  1.0207  0.3567
   66MOL    C6326193   4.197   1.928   3.641  0.4233  0.6019  0.1563
   66MOL    C6426194   4.292   1.882   3.737  0.1230  0.8025  0.6039
   66MOL    C6526195   4.385   1.782   3.703 -0.4117 -0.4019 -0.3106
   66MOL    C6626196   4.389   1.746   3.567 -0.3870 -0.7862  0.4478
   66MOL    O6726197   4.476   1.654   3.513  0.0794  0.1634 -0.2148
   66MOL    C6826198   4.615   1.675   3.550  0.1559  0.5424 -0.6258
   66MOL    C6926199   4.292   1.781   3.478  0.1465 -0.1521  0.9548
   66MOL    C7026200   4.200   1.879   3.511 -0.0426  0.3875  0.9285
   66MOL    C7126201   4.149   2.159   3.738  0.6495  0.6365  0.2413
   66MOL    H7226202   4.031   2.042   3.598  0.4341 -0.0165  0.0336
   66MOL    H7326203   4.291   1.921   3.838 -0.0680  0.2739  0.8139
   66MOL    H7426204   4.459   1.756   3.777  1.6255  1.0945 -1.7498
   66MOL    H7526205   4.672   1.667   3.457  0.5708 -0.6332 -0.2862
   66MOL    H7626206   4.645   1.598   3.621  1.1055  2.0692  0.6511
   66MOL    H7726207   4.643   1.777   3.573  0.3343  0.5549 -0.8921
   66MOL    H7826208   4.291   1.747   3.376 -2.4240  2.5773 -0.0290
   66MOL    H7926209   4.130   1.910   3.436 -0.0678 -1.8993 -0.0243
   66MOL    H8026210   4.070   2.219   3.783 -2.4029 -2.5077 -0.6731
   66MOL    H8126211   4.220   2.142   3.819  0.0533 -1.3050  0.3823
   66MOL    C8226212   4.212   2.253   3.629  0.1270  0.1388 -0.1523
   66MOL    C8326213   4.122   2.274   3.510  0.5912  1.1962  0.4235
   66MOL    C8426214   4.162   2.227   3.380  0.2935 -0.3189 -0.4843
   66MOL    C8526215   4.090   2.250   3.266 -0.0532  0.6970  0.9175
   66MOL    C8626216   3.973   2.330   3.267  0.9448 -0.0396  0.4132
   66MOL    O8726217   3.916   2.350   3.144  0.1425  0.0812  0.2397
   66MOL    C8826218   3.783   2.395   3.149  0.2199  0.2605  0.2119
   66MOL    C8926219   3.920   2.363   3.400 -0.0005  0.0690 -0.7234
   66MOL    C9026220   3.993   2.338   3.516  0.1832  0.0146 -0.1810
   66MOL    C9126221   4.237   2.385   3.702  0.0925 -0.2677  0.8938
   66MOL    H9226222   4.305   2.203   3.600 -0.4150 -2.1091  1.8586
   66MOL    H9326223   4.259   2.179   3.375  0.9392  0.8041  0.8999
   66MOL    H9426224   4.134   2.215   3.174 -0.9017 -3.1402  1.8946
   66MOL    H9526225   3.784   2.500   3.181  2.6433  0.2729  0.1633
   66MOL    H9626226   3.716   2.336   3.212 -1.1597  1.0505 -0.4936
   66MOL    H9726227   3.739   2.397   3.050 -0.8570 -0.7634  0.6570
   66MOL    H9826228   3.829   2.421   3.412 -1.8997 -2.3449 -2.6861
   66MOL    H9926229   3.951   2.366   3.611  0.8839 -0.1753  0.1817
   66MOL   H10026230   4.146   2.420   3.751 -0.5976 -0.8310  0.0199
   66MOL   H10126231   4.318   2.349   3.766  1.2101 -0.1994 -0.4664
   66MOL   C10226232   4.284   2.509   3.615 -0.1775 -0.2566 -0.3123
   66MOL   C10326233   4.179   2.623   3.602 -0.0292 -0.3758 -0.6695
   66MOL   C10426234   4.156   2.701   3.716 -0.0711  0.2815 -0.4347
   66MOL   C10526235   4.074   2.814   3.706 -0.3284  0.5852  0.3306
   66MOL   C10626236   4.028   2.859   3.579 -0.0417 -0.3283 -0.1853
   66MOL   O10726237   3.964   2.985   3.582  0.3249 -0.1676 -0.3032
   66MOL   C10826238   4.015   3.085   3.489  0.2028 -0.1183 -0.3983
   66MOL   C10926239   4.051   2.782   3.463 -0.5418 -0.6915 -0.1167
   66MOL   C11026240   4.126   2.657   3.478 -0.4193  0.0327 -0.1640
   66MOL   C11126241   4.422   2.565   3.659 -1.0135 -0.6554 -0.1104
   66MOL   H11226242   4.301   2.470   3.515  1.7735  3.5546 -1.5621
   66MOL   H11326243   4.185   2.672   3.816 -1.0941  0.3515 -0.1148
   66MOL   H11426244   4.048   2.862   3.799 -1.2356 -0.1717  0.4774
   66MOL   H11526245   4.034   3.051   3.388 -1.0332 -0.0823 -0.6423
   66MOL   H11626246   3.954   3.174   3.496 -2.2728 -1.8358  0.4657
   66MOL   H11726247   4.118   3.095   3.525 -0.2708 -1.6839  1.4888
   66MOL   H11826248   4.019   2.808   3.364 -1.7816 -0.9657  0.1980
   66MOL   H11926249   4.150   2.601   3.389 -0.4803  2.0140 -1.4597
   66MOL   H12026250   4.421   2.674   3.664  1.8604 -0.6545  2.4962
   66MOL   H12126251   4.442   2.528   3.760 -0.1810 -1.3276 -0.5160
   66MOL   C12226252   4.532   2.514   3.568  0.1914 -0.3374  0.3461
   66MOL   C12326253   4.668   2.547   3.628 -0.0133  0.7843  0.4698
   66MOL   C12426254   4.765   2.446   3.668 -0.2531  0.2210 -0.7546
   66MOL   C12526255   4.897   2.490   3.718  0.3158  0.2678  0.4365
   66MOL   C12626256   4.931   2.624   3.731 -0.7214  0.2514  0.4427
   66MOL   O12726257   5.055   2.655   3.784  0.1327 -0.4203 -0.2380
   66MOL   C12826258   5.068   2.790   3.825  0.0149  0.7453 -0.2054
   66MOL   C12926259   4.834   2.714   3.679  0.9911 -0.4623  0.8553
   66MOL   C13026260   4.707   2.677   3.635  0.3143 -0.4975 -0.4419
   66MOL   C13126261   4.522   2.582   3.431 -0.0924 -0.1301  0.7803
   66MOL   H13226262   4.513   2.408   3.555  0.2476 -0.4563  1.1889
   66MOL   H13326263   4.741   2.341   3.654 -1.0251  0.3397 -0.3584
   66MOL   H13426264   4.975   2.420   3.742  2.1933  1.7696 -1.1490
   66MOL   H13526265   4.990   2.825   3.892 -0.0102 -0.3966  0.3816
   66MOL   H13626266   5.163   2.816   3.872 -0.1196 -0.0451  0.5078
   66MOL   H13726267   5.073   2.852   3.735 -1.6244  2.5590  0.9221
   66MOL   H13826268   4.860   2.819   3.677 -0.6461 -0.0044  2.2920
   66MOL   H13926269   4.643   2.757   3.602 -0.6328 -0.3823  1.5923
   66MOL   H14026270   4.546   2.689   3.429 -2.0081  0.3669  2.3843
   66MOL   H14126271   4.423   2.563   3.388  0.9857 -1.8508 -1.0077
   66MOL   C14226272   4.628   2.522   3.338  0.0389  0.0871 -0.1239
   66MOL   C14326273   4.593   2.371   3.307 -0.4918  0.0739  0.2750
   66MOL   C14426274   4.481   2.337   3.227  0.2139 -0.9030 -0.7963
   66MOL   C14526275   4.457   2.203   3.193  0.3660 -0.2790 -0.5845
   66MOL   C14626276   4.545   2.105   3.245  0.2779  0.3690  0.3785
   66MOL   O14726277   4.504   1.979   3.220  0.2559  0.2329 -0.8054
   66MOL   C14826278   4.598   1.876   3.218 -0.1164  0.3982 -0.1193
   66MOL   C14926279   4.658   2.140   3.320  0.1796  0.4419 -0.5057
   66MOL   C15026280   4.688   2.274   3.352 -0.2507 -0.1806  0.0223
   66MOL   C15126281   4.641   2.610   3.210 -0.0998  0.3396 -0.6498
   66MOL   H15226282   4.725   2.526   3.387 -0.0702  0.2871  0.0770
   66MOL   H15326283   4.404   2.410   3.205  1.0876  0.5404  0.8545
   66MOL   H15426284   4.379   2.166   3.128 -1.5651  1.3987  0.7284
   66MOL   H15526285   4.607   1.816   3.308 -0.0343 -1.1083 -1.1233
   66MOL   H15626286   4.574   1.801   3.142  1.2990 -0.2768  0.0880
   66MOL   H15726287   4.701   1.909   3.201  0.3053  0.2270  2.0505
   66MOL   H15826288   4.728   2.065   3.354 -1.1464 -1.4726 -1.9311
   66MOL   H15926289   4.775   2.310   3.406 -0.3170  1.0615 -0.6781
   66MOL   H16026290   4.638   2.716   3.236 -1.6621  0.3800 -0.9393
   66MOL   H16126291   4.550   2.602   3.150 -1.0679 -0.2632  0.8570
   66MOL   C16226292   4.770   2.576   3.124 -0.3448 -0.1982 -0.6699
   66MOL   C16326293   4.888   2.622   3.212  0.1924 -0.1440 -0.5620
   66MOL   C16426294   4.906   2.749   3.261 -0.6675 -1.0178  0.1686
   66MOL   C16526295   5.011   2.781   3.344 -0.0943  0.0316 -0.6191
   66MOL   C16626296   5.098   2.684   3.387  0.0780 -0.4559 -0.0245
   66MOL   O16726297   5.193   2.724   3.472  0.8344 -0.5356  0.4301
   66MOL   C16826298   5.280   2.629   3.528  0.2999  0.1795  0.3919
   66MOL   C16926299   5.091   2.555   3.331  0.0010  0.0308 -0.6508
   66MOL   C17026300   4.984   2.521   3.244 -0.1042 -0.2856  0.0293
   66MOL   C17126301   4.766   2.653   2.986 -0.3351  0.2350 -0.3841
   66MOL   H17226302   4.765   2.469   3.103  2.4111 -0.0674 -2.2738
   66MOL   H17326303   4.843   2.830   3.229 -0.6145 -0.5231  1.2758
   66MOL   H17426304   5.021   2.882   3.382 -0.7742 -0.2954  0.4724
   66MOL   H17526305   5.351   2.599   3.451 -1.6048  0.4386 -1.5216
   66MOL   H17626306   5.233   2.540   3.571 -1.2553  0.8286  0.0790
   66MOL   H17726307   5.344   2.678   3.601 -0.5361  1.8440  0.0372
   66MOL   H17826308   5.173   2.489   3.354 -2.4313 -1.7535  3.5204
   66MOL   H17926309   4.968   2.418   3.214  1.2315 -0.2504 -0.8120
   66MOL   H18026310   4.869   2.675   2.956 -0.0402  0.0463  0.4705
   66MOL   H18126311   4.729   2.754   3.002  0.6293  0.6087 -0.4825
   66MOL   C18226312   4.696   2.587   2.872 -0.5500 -0.0468  0.6260
   66MOL   C18326313   4.732   2.630   2.731 -0.0163  0.3398 -0.3858
   66MOL   C18426314   4.847   2.566   2.673  0.7144 -0.3442 -0.8170
   66MOL   C18526315   4.901   2.616   2.555  0.3361  0.0267 -0.5340
   66MOL   C18626316   4.853   2.740   2.493 -0.3250  1.0822  0.1317
   66MOL   O18726317   4.892   2.793   2.372 -0.0216 -0.2553  0.0567
   66MOL   C18826318   4.959   2.698   2.290  0.2926  0.2660 -0.3029
   66MOL   C18926319   4.740   2.801   2.557  0.5056 -0.1103 -0.3407
   66MOL   C19026320   4.680   2.752   2.675 -0.6024 -0.2044  0.2883
   66MOL   C19126321   4.540   2.568   2.893  0.5126  0.2364  0.0699
   66MOL   H19226322   4.730   2.483   2.868  1.4346  0.4034  3.6815
   66MOL   H19326323   4.882   2.469   2.707 -1.8776 -1.5271 -1.4090
   66MOL   H19426324   4.978   2.558   2.507  1.2000  0.5567  0.1897
   66MOL   H19526325   4.983   2.736   2.191 -0.2529  0.7161 -0.2670
   66MOL   H19626326   4.894   2.612   2.272  0.5856  0.1833 -0.9530
   66MOL   H19726327   5.051   2.672   2.342  0.6143 -0.2959 -1.1425
   66MOL   H19826328   4.706   2.894   2.514 -1.0459  0.0316  1.1406
   66MOL   H19926329   4.597   2.802   2.722  0.2088 -0.0502  1.5988
   66MOL   H20026330   4.523   2.499   2.975 -2.2111  1.4751  0.5957
   66MOL   H20126331   4.493   2.657   2.935  1.0355  0.6364 -0.1785
   66MOL   C20226332   4.454   2.528   2.765 -0.1356  0.9061  0.7947
   66MOL   C20326333   4.302   2.544   2.795 -0.3808  0.0044  0.2016
   66MOL   C20426334   4.226   2.599   2.694  0.2628  0.2459  0.0542
   66MOL   C20526335   4.086   2.617   2.716 -0.9261 -0.4276 -0.6234
   66MOL   C20626336   4.029   2.576   2.836  0.7199 -0.3950 -0.4724
   66MOL   O20726337   3.900   2.572   2.872 -0.0894  0.3354  0.6108
   66MOL   C20826338   3.807   2.606   2.766 -0.1608  0.0325 -0.3770
   66MOL   C20926339   4.114   2.539   2.946 -0.1160 -0.3562 -0.0356
   66MOL   C21026340   4.247   2.515   2.924  0.0308  0.3312  0.1718
   66MOL   C21126341   4.492   2.381   2.719 -0.7094 -0.1981  0.7234
   66MOL   H21226342   4.467   2.602   2.686 -1.4450 -2.4261 -2.7055
   66MOL   H21326343   4.273   2.647   2.610  1.2222 -0.1033  0.3890
   66MOL   H21426344   4.020   2.655   2.639 -0.5112  0.0580 -0.7423
   66MOL   H21526345   3.825   2.709   2.736 -1.5813  0.0094 -1.3237
   66MOL   H21626346   3.830   2.534   2.687  1.8019 -1.4576  1.4649
   66MOL   H21726347   3.706   2.588   2.802 -0.0663  0.2712  0.0157
   66MOL   H21826348   4.082   2.512   3.045  1.1152 -2.9258 -0.2915
   66MOL   H21926349   4.310   2.467   2.997 -1.7655  0.0048  1.5389
   66MOL   H22026350   4.470   2.313   2.802 -1.0747 -0.4450  0.4266
   66MOL   H22126351   4.599   2.367   2.706 -0.6733 -1.6641  2.3404
   66MOL   C22226352   4.420   2.333   2.586  0.6316 -0.1399 -0.2395
   66MOL   C22326353   4.431   2.436   2.473 -0.3056  0.3610 -0.2866
   66MOL   C22426354   4.548   2.505   2.446 -0.3755 -0.3012  0.3536
   66MOL   C22526355   4.536   2.607   2.347 -0.6515  0.7279 -0.6704
   66MOL   C22626356   4.426   2.626   2.269 -0.5553 -0.2022  0.0475
   66MOL   O22726357   4.431   2.722   2.171  0.1795 -0.2274  0.0603
   66MOL   C22826358   4.339   2.727   2.065  0.2324 -0.2187 -0.4107
   66MOL   C22926359   4.314   2.549   2.291  0.2358  0.4986 -0.5376
   66MOL   C23026360   4.313   2.451   2.398 -0.0951  0.2907  0.0575
   66MOL   C23126361   4.470   2.195   2.538  0.1702  0.4302  0.6581
   66MOL   H23226362   4.313   2.337   2.609  0.3862  1.0250 -1.4696
   66MOL   H23326363   4.643   2.506   2.497 -1.2984 -2.1204  2.1787
   66MOL   H23426364   4.625   2.661   2.320 -1.4184  0.6538 -3.4483
   66MOL   H23526365   4.383   2.792   1.989  0.4726  0.1141  0.0105
   66MOL   H23626366   4.325   2.627   2.024 -1.3774 -0.5828  0.9723
   66MOL   H23726367   4.236   2.752   2.089  0.1058 -1.5730  0.4899
   66MOL   H23826368   4.223   2.576   2.239  0.1460 -0.6609 -0.9946
   66MOL   H23926369   4.228   2.387   2.412 -0.8712  1.4900  0.9122
   66MOL   H24026370   4.399   2.151   2.468  0.2836  0.1560  0.7145
   66MOL   H24126371   4.565   2.213   2.487 -1.9277  1.4220 -3.1401
   66MOL   C24226372   4.496   2.085   2.643  0.0864 -0.5366 -0.3469
   66MOL   C24326373   4.386   2.022   2.727 -0.6266  0.2804 -0.2393
   66MOL   C24426374   4.295   1.942   2.665  0.4243 -0.0728  0.1639
   66MOL   C24526375   4.189   1.883   2.734 -0.2959 -0.2481 -0.1609
   66MOL   C24626376   4.177   1.899   2.875 -0.1952  0.3729  0.0286
   66MOL   O24726377   4.084   1.840   2.953  0.2550 -0.4535 -0.6591
   66MOL   C24826378   3.968   1.788   2.890 -0.1226 -0.2208 -0.1186
   66MOL   C24926379   4.276   1.978   2.947  0.0284 -0.1937  0.0336
   66MOL   C25026380   4.379   2.038   2.867  0.1331 -0.8045 -0.0234
   66MOL   C25126381   4.602   1.987   2.597  0.0520  0.4006 -0.1153
   66MOL   H25226382   4.556   2.140   2.715 -0.6626  0.2747 -0.3354
   66MOL   H25326383   4.299   1.933   2.557 -1.7687  0.7829 -0.0196
   66MOL   H25426384   4.110   1.836   2.678 -0.4671 -0.9512  0.6448
   66MOL   H25526385   3.985   1.699   2.831  0.1524  0.4249 -1.0315
   66MOL   H25626386   3.888   1.784   2.964  0.1449  1.6355  0.3013
   66MOL   H25726387   3.925   1.866   2.826  1.4260  0.5188 -0.2849
   66MOL   H25826388   4.260   2.004   3.050 -0.0759  1.0597 -0.2798
   66MOL   H25926389   4.461   2.085   2.920  0.6079 -1.0902 -0.5064
   66MOL   H26026390   4.679   2.037   2.539  2.4733 -1.5048  1.3777
   66MOL   H26126391   4.552   1.912   2.534 -0.5637  2.3244 -1.9800
   66MOL   C26226392   4.675   1.917   2.715 -1.3046  0.7013  0.6278
   66MOL   C26326393   4.775   2.011   2.785  0.3186  0.1205 -0.1486
   66MOL   C26426394   4.877   2.067   2.707  0.2862  0.2025  0.1833
   66MOL   C26526395   4.966   2.160   2.765 -0.6911  0.1486  0.3973
   66MOL   C26626396   4.945   2.204   2.897  0.2820  0.1510 -0.5445
   66MOL   O26726397   5.007   2.314   2.953  0.2076 -0.2884 -0.0907
   66MOL   C26826398   5.131   2.352   2.898 -0.4210  0.0424  0.0364
   66MOL   C26926399   4.834   2.155   2.970  1.2015 -0.2723  0.4373
   66MOL   C27026400   4.755   2.053   2.916  0.2924 -0.3652  0.5690
   66MOL   C27126401   4.738   1.774   2.682 -0.2912  0.2082  0.0164
   66MOL   H27226402   4.596   1.904   2.789  0.8938  0.3755  2.9882
   66MOL   H27326403   4.887   2.025   2.608 -0.0825 -0.5848  0.4716
   66MOL   H27426404   5.050   2.190   2.705 -0.6096 -4.0208 -1.7103
   66MOL   H27526405   5.176   2.436   2.951  0.0121 -0.5539  0.6225
   66MOL   H27626406   5.108   2.394   2.800  0.2421 -0.9863 -0.5645
   66MOL   H27726407   5.192   2.263   2.893  2.8100  2.2551 -1.5706
   66MOL   H27826408   4.808   2.195   3.066  1.5158  0.4366  0.2315
   66MOL   H27926409   4.672   2.014   2.973 -1.2026 -1.5216 -2.3568
   66MOL   H28026410   4.773   1.764   2.579 -0.3629  0.2967 -0.0158
   66MOL   H28126411   4.835   1.772   2.732  1.5351 -1.8655 -3.4077
   66MOL   C28226412   4.645   1.654   2.725 -0.7084 -0.1412 -1.0826
   66MOL   C28326413   4.731   1.530   2.723  0.0978  0.1795  0.3360
   66MOL   C28426414   4.758   1.451   2.835  0.3366 -0.6216  0.3017
   66MOL   C28526415   4.819   1.325   2.820 -0.2426 -0.8186  0.3448
   66MOL   C28626416   4.852   1.271   2.694  0.7841 -0.5479  0.8879
   66MOL   O28726417   4.883   1.136   2.682 -0.1205 -0.2759 -0.2074
   66MOL   C28826418   4.873   1.072   2.552  0.1518  0.0852  0.6242
   66MOL   C28926419   4.833   1.358   2.583 -0.2807 -0.6999 -0.2208
   66MOL   C29026420   4.776   1.482   2.600  0.0618  0.3213  0.1646
   66MOL   C29126421   4.518   1.640   2.637 -0.3553  0.2033 -0.4115
   66MOL   H29226422   4.620   1.676   2.828  0.8465  0.3229 -0.7866
   66MOL   H29326423   4.733   1.496   2.930 -0.8679  1.4992 -0.9804
   66MOL   H29426424   4.838   1.262   2.905  0.1419 -1.8889 -0.5263
   66MOL   H29526425   4.884   0.964   2.562 -1.9918 -0.2909 -0.8568
   66MOL   H29626426   4.784   1.095   2.494 -0.9176 -1.9021  1.4655
   66MOL   H29726427   4.958   1.093   2.487  0.4755  0.6813  1.2278
   66MOL   H29826428   4.851   1.325   2.482 -2.8582 -1.6083 -0.4084
   66MOL   H29926429   4.768   1.534   2.505 -0.8176  0.1261  0.1235
   66MOL   H30026430   4.453   1.723   2.665 -0.6639 -0.0204 -0.4752
   66MOL   H30126431   4.556   1.647   2.536  0.7458  1.5025  0.0750
   66MOL   C30226432   4.439   1.509   2.655  0.7390 -0.0895 -0.3633
   66MOL   C30326433   4.401   1.481   2.808 -0.3197  0.4577  0.0840
   66MOL   C30426434   4.315   1.556   2.884  0.7882 -0.1564 -0.5485
   66MOL   C30526435   4.290   1.525   3.019  0.1370  0.1494 -1.0357
   66MOL   C30626436   4.343   1.402   3.075  0.1295  0.0780 -0.6207
   66MOL   O30726437   4.315   1.348   3.195 -0.9857 -0.0519  0.2242
   66MOL   C30826438   4.279   1.432   3.295 -0.1508  0.8843  0.6698
   66MOL   C30926439   4.420   1.319   2.991  0.6505 -0.4493  0.3398
   66MOL   C31026440   4.446   1.362   2.860  0.2368  0.5808 -0.6344
   66MOL   C31126441   4.318   1.502   2.560 -0.0072 -0.2323  0.4763
   66MOL   H31226442   4.506   1.425   2.637  0.1007 -0.8120  0.5807
   66MOL   H31326443   4.273   1.642   2.834  1.5325  0.3617 -0.2929
   66MOL   H31426444   4.217   1.589   3.067 -0.8421 -1.2159 -0.6790
   66MOL   H31526445   4.361   1.460   3.362  0.9525 -2.1985  0.7064
   66MOL   H31626446   4.206   1.382   3.359 -0.8803  0.1673 -0.7072
   66MOL   H31726447   4.233   1.525   3.263  2.3217  1.5699 -1.0480
   66MOL   H31826448   4.464   1.222   3.010  2.5181 -0.0652 -1.8229
   66MOL   H31926449   4.499   1.293   2.796  1.8470 -0.2824  1.5628
   66MOL   H32026450   4.336   1.554   2.466 -2.4752  0.9194  0.5996
   66MOL   H32126451   4.232   1.557   2.598  0.7376  1.8383 -0.7151
   66MOL   C32226452   4.284   1.359   2.524  0.6652  0.1426  0.6040
   66MOL   C32326453   4.400   1.297   2.447 -0.1616  0.5359  0.8316
   66MOL   C32426454   4.405   1.154   2.462 -0.6145  0.2408  0.6095
   66MOL   C32526455   4.510   1.082   2.394  0.2604  0.5713  0.2706
   66MOL   C32626456   4.596   1.145   2.305 -1.3161  0.3561  0.3137
   66MOL   O32726457   4.691   1.076   2.233  0.4996  0.0188 -0.2155
   66MOL   C32826458   4.688   0.933   2.234  0.6186 -0.1543 -0.0919
   66MOL   C32926459   4.585   1.283   2.286 -0.2701  0.5811  0.0515
   66MOL   C33026460   4.495   1.363   2.359 -0.3200 -0.0127 -0.3822
   66MOL   C33126461   4.145   1.329   2.450  0.4437  0.0054 -0.7330
   66MOL   H33226462   4.281   1.314   2.624 -1.0843 -1.3045 -0.0636
   66MOL   H33326463   4.352   1.087   2.528  0.7361 -1.2063  0.2839
   66MOL   H33426464   4.516   0.977   2.419 -0.7525  0.7324  1.2070
   66MOL   H33526465   4.614   0.877   2.176  2.4874 -0.5972 -2.1195
   66MOL   H33626466   4.692   0.895   2.336 -0.2941 -1.2769 -0.4558
   66MOL   H33726467   4.781   0.904   2.186  0.4620 -0.0824 -0.4416
   66MOL   H33826468   4.652   1.327   2.213 -0.6217  0.4225 -0.3699
   66MOL   H33926469   4.513   1.467   2.337  0.2102 -0.0809 -0.2863
   66MOL   H34026470   4.137   1.396   2.365  0.8461 -0.6573 -1.3035
   66MOL   H34126471   4.145   1.228   2.409 -0.3750  0.0753 -0.9024
   66MOL   C34226472   4.033   1.342   2.559 -0.0997 -0.6527 -0.1960
   66MOL   C34326473   4.049   1.243   2.672  0.5379  0.0630  0.0281
   66MOL   C34426474   4.062   1.109   2.656  0.1436  0.2389 -0.2037
   66MOL   C34526475   4.092   1.025   2.760  0.6209  0.1087 -0.4598
   66MOL   C34626476   4.102   1.066   2.895  0.5953 -0.2610  0.0517
   66MOL   O34726477   4.132   0.991   3.006  0.0273  0.3589  0.5952
   66MOL   C34826478   4.175   0.858   2.986 -0.0762 -0.5507  0.0126
   66MOL   C34926479   4.086   1.205   2.914  0.0682  0.5672 -0.1097
   66MOL   C35026480   4.064   1.294   2.806  0.2750 -0.5566  0.2988
   66MOL   C35126481   3.891   1.332   2.494 -0.9327 -0.3666 -0.4736
   66MOL   H35226482   4.053   1.446   2.584  2.2951 -0.7035 -1.7513
   66MOL   H35326483   4.058   1.056   2.561  1.1774  2.4009 -1.4979
   66MOL   H35426484   4.104   0.918   2.749 -0.9965 -0.6701  4.1364
   66MOL   H35526485   4.249   0.861   2.906 -0.7014 -3.3448 -0.7317
   66MOL   H35626486   4.226   0.814   3.072 -2.3009 -0.0509  1.6664
   66MOL   H35726487   4.094   0.790   2.958  0.0447  0.0054 -1.7329
   66MOL   H35826488   4.080   1.245   3.014 -0.3443 -0.7802  0.4271
   66MOL   H35926489   4.053   1.400   2.826 -0.4598 -0.8929  1.7019
   66MOL   H36026490   3.884   1.379   2.397 -0.0874 -2.4593 -1.5881
   66MOL   H36126491   3.868   1.227   2.474 -1.4511 -0.6794  1.6343
   66MOL   C36226492   3.780   1.377   2.595 -0.6170 -0.3955  0.3505
   66MOL   C36326493   3.666   1.279   2.595 -0.5777  0.3036  0.0593
   66MOL   C36426494   3.649   1.197   2.707 -0.4890 -0.2859 -0.3844
   66MOL   C36526495   3.546   1.100   2.715  0.4133 -0.6765 -0.3960
   66MOL   C36626496   3.453   1.090   2.614  0.3940 -1.1766  0.0800
   66MOL   O36726497   3.343   1.011   2.647 -0.8050 -0.0840  0.3043
   66MOL   C36826498   3.222   1.019   2.572  0.6149 -0.4300  0.8036
   66MOL   C36926499   3.462   1.175   2.503  0.0127  0.2305  0.4076
   66MOL   C37026500   3.566   1.267   2.495 -0.8302  0.6647 -0.6533
   66MOL   C37126501   3.735   1.524   2.559  0.2999  0.0043 -0.6416
   66MOL   H37226502   3.816   1.383   2.697  1.1844 -0.7202 -0.2504
   66MOL   H37326503   3.713   1.207   2.794 -1.5273 -1.3868  0.5237
   66MOL   H37426504   3.535   1.040   2.805 -0.8826  1.8121  1.1523
   66MOL   H37526505   3.225   0.964   2.478  2.5990 -1.0914  1.2383
   66MOL   H37626506   3.144   0.976   2.634  0.5613 -0.1534  0.9276
   66MOL   H37726507   3.210   1.123   2.541  0.3142 -0.3894  1.0588
   66MOL   H37826508   3.392   1.162   2.422  1.0321  0.5517 -0.5402
   66MOL   H37926509   3.574   1.328   2.406  1.0912  0.4890 -0.6375
   66MOL   H38026510   3.825   1.583   2.571  0.6959 -1.2140  2.8543
   66MOL   H38126511   3.716   1.535   2.452  3.9347  1.0398 -1.2376
   66MOL   C38226512   3.615   1.582   2.639 -0.3994 -0.7351 -0.3088
   66MOL   C38326513   3.571   1.716   2.570 -0.0435 -0.3166  0.0468
   66MOL   C38426514   3.447   1.718   2.505 -0.1641 -0.1452 -0.2685
   66MOL   C38526515   3.408   1.833   2.439 -0.5096 -0.3058 -0.1196
   66MOL   C38626516   3.495   1.942   2.420  0.0206 -0.0365  0.1342
   66MOL   O38726517   3.434   2.056   2.371  0.3742 -0.1377  0.1111
   66MOL   C38826518   3.521   2.150   2.309 -0.1151 -0.0708 -0.7071
   66MOL   C38926519   3.622   1.938   2.479 -0.1945  0.9540 -0.6658
   66MOL   C39026520   3.660   1.820   2.554  0.2763  0.6834 -0.5915
   66MOL   C39126521   3.632   1.607   2.792 -0.6917  0.2122 -0.3025
   66MOL   H39226522   3.534   1.512   2.621 -0.5680 -0.8138  0.7317
   66MOL   H39326523   3.387   1.629   2.507 -0.3145 -0.0753 -1.3638
   66MOL   H39426524   3.308   1.848   2.399 -0.8456  1.4315  1.2894
   66MOL   H39526525   3.546   2.225   2.384  0.0846 -2.3180  1.5558
   66MOL   H39626526   3.488   2.194   2.215 -0.8615 -0.0060 -0.4196
   66MOL   H39726527   3.619   2.114   2.278 -0.6615  1.0539 -3.8955
   66MOL   H39826528   3.686   2.026   2.479  0.9970  0.1108 -1.7132
   66MOL   H39926529   3.753   1.828   2.608 -0.4444 -0.3279  0.8337
   66MOL   H40026530   3.693   1.528   2.835  1.0804  1.9433  0.4599
   66MOL   H40126531   3.549   1.635   2.856 -0.9304 -0.2106 -0.4226
   66MOL   H40226532   3.697   1.695   2.792 -0.8730  0.3909  2.8510
   67MOL     C126533   4.731   2.407   6.697  0.6668  0.0614  0.5283
   67MOL     C226534   4.720   2.412   6.549 -0.3302 -0.0836  0.6856
   67MOL     C326535   4.684   2.531   6.484 -0.2674 -0.7207  0.1449
   67MOL     C426536   4.686   2.539   6.341 -0.3971 -0.7496  0.5032
   67MOL     C526537   4.723   2.429   6.260 -0.3506  0.2068 -0.4646
   67MOL     O626538   4.724   2.437   6.121 -0.2291 -0.0935 -0.0970
   67MOL     C726539   4.733   2.555   6.061 -0.2434  0.4895  0.2743
   67MOL     C826540   4.748   2.300   6.326 -0.8592 -0.1890 -0.5433
   67MOL     C926541   4.756   2.299   6.469 -0.2468  0.0911  0.4409
   67MOL    C1026542   4.623   2.318   6.747  0.1102 -0.5318  0.4998
   67MOL    H1126543   4.723   2.499   6.754 -1.0392  0.1683  0.1526
   67MOL    H1226544   4.662   2.621   6.539 -1.5302 -0.6079 -0.5281
   67MOL    H1326545   4.660   2.636   6.302  0.8015 -0.4264  0.4947
   67MOL    H1426546   4.637   2.601   6.036  0.7288  3.1425  1.2347
   67MOL    H1526547   4.788   2.625   6.124 -1.0023  0.5948  0.8192
   67MOL    H1626548   4.789   2.540   5.968  0.8183  1.1881  0.8009
   67MOL    H1726549   4.778   2.213   6.269  1.0654 -1.7021  2.6554
   67MOL    H1826550   4.791   2.213   6.523 -0.0830  0.9401  1.7098
   67MOL    H1926551   4.526   2.355   6.715  0.8897  1.8680  0.8610
   67MOL    H2026552   4.627   2.220   6.699  0.2072  0.0636 -0.7043
   67MOL    H2126553   4.828   2.374   6.733  1.3010  1.9147  0.5149
   67MOL    C2226554   4.621   2.297   6.903 -0.6231  0.5666  0.5045
   67MOL    C2326555   4.481   2.237   6.947 -0.3700 -0.6263 -0.4013
   67MOL    C2426556   4.412   2.301   7.049 -0.2848 -0.0746 -0.4308
   67MOL    C2526557   4.278   2.262   7.071  0.3310  0.0312  0.7997
   67MOL    C2626558   4.221   2.156   7.006 -0.3051  0.2907  0.3518
   67MOL    O2726559   4.096   2.125   7.050  0.3220 -0.6318  0.4761
   67MOL    C2826560   4.023   2.022   6.994  0.0041  0.1341 -0.1714
   67MOL    C2926561   4.289   2.090   6.903 -0.1244 -0.2424 -0.1081
   67MOL    C3026562   4.418   2.132   6.870 -0.2515 -0.1626 -0.4083
   67MOL    C3126563   4.743   2.206   6.950  0.2155 -0.1972 -0.2262
   67MOL    H3226564   4.634   2.393   6.953 -0.2180  0.6459  0.2480
   67MOL    H3326565   4.444   2.388   7.105 -0.3601 -1.2291  1.4758
   67MOL    H3426566   4.222   2.315   7.146  0.5571  0.5520  0.6019
   67MOL    H3526567   3.934   1.997   7.052 -0.0186  0.9435  0.1495
   67MOL    H3626568   4.077   1.928   6.985  2.3686  1.4940 -0.7725
   67MOL    H3726569   4.001   2.056   6.893 -1.1821 -1.6598 -0.5446
   67MOL    H3826570   4.237   2.006   6.861 -0.7482 -0.7342  1.6093
   67MOL    H3926571   4.471   2.094   6.784  1.7571  0.2651  0.6041
   67MOL    H4026572   4.734   2.112   6.896  0.2871  0.1262 -0.8008
   67MOL    H4126573   4.831   2.258   6.911 -0.2972  1.1758  0.3987
   67MOL    C4226574   4.745   2.173   7.109 -0.0125  0.1944  0.0480
   67MOL    C4326575   4.776   2.296   7.197  0.3712 -0.2738 -0.0407
   67MOL    C4426576   4.885   2.372   7.160 -0.3815  0.6198  0.6279
   67MOL    C4526577   4.924   2.472   7.256  0.9994 -0.3646 -0.1256
   67MOL    C4626578   4.842   2.506   7.366 -0.9447  0.0172 -0.3040
   67MOL    O4726579   4.881   2.600   7.454  0.3651  0.4844 -0.3401
   67MOL    C4826580   4.777   2.686   7.501  0.3325  0.1736  0.5602
   67MOL    C4926581   4.729   2.424   7.399 -0.2898  0.2377  0.1659
   67MOL    C5026582   4.691   2.324   7.307 -0.2875 -0.8612  0.3822
   67MOL    C5126583   4.838   2.061   7.140  0.2130  0.3715 -0.5286
   67MOL    H5226584   4.650   2.127   7.137  0.8115 -1.0963  0.7536
   67MOL    H5326585   4.955   2.351   7.081  1.4313 -0.5434  2.4918
   67MOL    H5426586   5.016   2.517   7.224 -0.2179  2.1642 -0.2137
   67MOL    H5526587   4.807   2.784   7.538  0.1675 -0.1449  1.5627
   67MOL    H5626588   4.705   2.694   7.419 -0.4517 -0.4527  1.1757
   67MOL    H5726589   4.728   2.648   7.591  1.0390  1.0196  1.3109
   67MOL    H5826590   4.677   2.446   7.491  1.5323  0.9239  1.0559
   67MOL    H5926591   4.602   2.268   7.328 -3.1065  2.4295 -2.1294
   67MOL    H6026592   4.846   2.062   7.248 -1.7864  2.4865 -0.3547
   67MOL    H6126593   4.938   2.074   7.098  0.7292  0.0535  0.5916
   67MOL    C6226594   4.775   1.921   7.109 -0.2273 -0.4832 -0.5504
   67MOL    C6326595   4.645   1.893   7.189  0.5361 -0.1828  0.1686
   67MOL    C6426596   4.520   1.918   7.126  0.1048  0.9017 -0.1362
   67MOL    C6526597   4.404   1.894   7.198 -0.1046  0.1124 -0.0854
   67MOL    C6626598   4.406   1.853   7.333 -0.0415 -0.1204 -0.5870
   67MOL    O6726599   4.289   1.847   7.405  0.0413  0.0322 -0.5987
   67MOL    C6826600   4.199   1.743   7.347 -0.1523 -0.6011 -0.6838
   67MOL    C6926601   4.525   1.840   7.403 -0.5824  0.2050 -0.0944
   67MOL    C7026602   4.643   1.854   7.330  0.4147 -0.7500 -1.1311
   67MOL    C7126603   4.873   1.800   7.125 -0.2467  0.1568  0.3073
   67MOL    H7226604   4.742   1.922   7.005 -3.7648 -0.7535  0.4990
   67MOL    H7326605   4.515   1.950   7.023 -2.5340  1.6133  0.1792
   67MOL    H7426606   4.309   1.907   7.149 -0.2802  0.1410  0.2580
   67MOL    H7526607   4.131   1.712   7.425  0.0626  0.0749 -0.2245
   67MOL    H7626608   4.260   1.657   7.320  0.2603 -0.6145  0.2549
   67MOL    H7726609   4.155   1.785   7.256 -0.2967 -1.2687 -0.9200
   67MOL    H7826610   4.542   1.789   7.497  0.3930  0.6824 -0.0034
   67MOL    H7926611   4.729   1.833   7.391 -0.7012  0.3165  0.8609
   67MOL    H8026612   4.946   1.819   7.204 -1.6329 -0.0997  1.6503
   67MOL    H8126613   4.827   1.711   7.167 -0.0937 -0.0733 -0.0076
   67MOL    C8226614   4.937   1.774   6.991  0.0500 -0.1585 -0.5399
   67MOL    C8326615   5.014   1.892   6.928 -0.0291  0.7677 -0.4814
   67MOL    C8426616   4.984   1.954   6.803  0.2197 -0.3804 -0.3425
   67MOL    C8526617   5.072   2.051   6.751  0.0991  0.9797  0.1704
   67MOL    C8626618   5.192   2.086   6.814 -0.0105  0.0286  0.1633
   67MOL    O8726619   5.284   2.169   6.759 -0.0166 -0.2964 -0.0899
   67MOL    C8826620   5.261   2.239   6.637  0.6765 -0.0149 -0.3355
   67MOL    C8926621   5.224   2.030   6.941  0.5113  1.0010  0.0668
   67MOL    C9026622   5.136   1.933   7.001 -0.8039 -0.2751  0.1614
   67MOL    C9126623   5.032   1.648   6.969 -0.0921 -0.6190 -0.0217
   67MOL    H9226624   4.853   1.750   6.926 -1.0950  0.7032  0.5937
   67MOL    H9326625   4.901   1.919   6.744 -0.6833 -0.6919  1.1168
   67MOL    H9426626   5.037   2.088   6.655  1.1251 -1.2435 -1.0913
   67MOL    H9526627   5.357   2.277   6.602  0.4035  0.7341 -0.2897
   67MOL    H9626628   5.175   2.307   6.643 -1.7485 -2.5706 -3.7429
   67MOL    H9726629   5.224   2.168   6.563 -0.4033 -0.8463  0.9907
   67MOL    H9826630   5.316   2.061   6.989  1.0687  1.0494 -1.0061
   67MOL    H9926631   5.168   1.881   7.089  0.1229 -2.3903 -1.3718
   67MOL   H10026632   5.124   1.671   7.023 -0.6256 -0.4609  0.8194
   67MOL   H10126633   4.988   1.564   7.023  0.5779 -3.3631 -3.5813
   67MOL   C10226634   5.048   1.583   6.829  0.1947 -0.4489 -0.0429
   67MOL   C10326635   5.161   1.475   6.826 -0.1507 -0.2302  0.1275
   67MOL   C10426636   5.134   1.337   6.817  0.3808  0.0340  0.0388
   67MOL   C10526637   5.242   1.248   6.814  0.0989  0.2901 -0.5096
   67MOL   C10626638   5.378   1.291   6.824  0.0872 -0.6520 -0.3755
   67MOL   O10726639   5.477   1.196   6.818  0.5761  0.3883  0.0086
   67MOL   C10826640   5.607   1.233   6.872  1.2149  0.1419  0.8005
   67MOL   C10926641   5.399   1.429   6.843 -0.0897  0.6540  1.0549
   67MOL   C11026642   5.292   1.520   6.850  0.5610  0.2350  0.3738
   67MOL   C11126643   4.921   1.535   6.762 -0.1847  0.3035 -0.1390
   67MOL   H11226644   5.086   1.667   6.771 -0.9504 -0.0749 -0.2535
   67MOL   H11326645   5.030   1.307   6.809  1.3614 -3.6525  0.2919
   67MOL   H11426646   5.226   1.145   6.789  1.8841 -0.6742  2.1137
   67MOL   H11526647   5.596   1.265   6.975  0.4023 -0.9779  1.0720
   67MOL   H11626648   5.674   1.147   6.873  1.1051 -0.0266 -1.7542
   67MOL   H11726649   5.649   1.312   6.810  0.2864  1.0469  1.2995
   67MOL   H11826650   5.498   1.466   6.865  0.3392 -0.3869  0.8556
   67MOL   H11926651   5.303   1.626   6.868  1.8183  0.1751 -0.0095
   67MOL   H12026652   4.884   1.445   6.812  1.5818  1.0088  2.5268
   67MOL   H12126653   4.849   1.616   6.770  2.3199  2.6057 -0.1153
   67MOL   C12226654   4.931   1.515   6.609  0.9187 -0.2312 -0.8608
   67MOL   C12326655   4.996   1.631   6.537 -0.4919 -0.3294  0.1428
   67MOL   C12426656   5.134   1.632   6.513  0.1013 -0.0873 -0.6442
   67MOL   C12526657   5.202   1.740   6.456 -0.0499  0.5987  0.0762
   67MOL   C12626658   5.123   1.857   6.427 -0.2071  0.9302 -0.3020
   67MOL   O12726659   5.175   1.966   6.362  0.1112 -0.2881 -0.1883
   67MOL   C12826660   5.292   1.953   6.291  0.6619 -0.4724  0.4768
   67MOL   C12926661   4.985   1.860   6.464  0.4990 -0.1572  0.0048
   67MOL   C13026662   4.915   1.747   6.515 -0.2472 -0.2865 -0.2796
   67MOL   C13126663   4.795   1.472   6.541 -0.6608 -0.2064  0.0393
   67MOL   H13226664   5.004   1.434   6.607  1.9024  0.6172 -0.1849
   67MOL   H13326665   5.180   1.536   6.532 -2.2747 -0.8498  1.6524
   67MOL   H13426666   5.308   1.734   6.435 -0.1985 -2.2095 -0.0032
   67MOL   H13526667   5.301   2.036   6.222  0.1568 -1.5413 -0.9019
   67MOL   H13626668   5.370   1.964   6.366  0.7756  3.8894 -0.1950
   67MOL   H13726669   5.314   1.858   6.243 -0.7728 -0.1510 -0.8485
   67MOL   H13826670   4.929   1.947   6.432 -0.2033 -1.0780 -1.2801
   67MOL   H13926671   4.810   1.761   6.536  0.3573 -0.6488  3.3287
   67MOL   H14026672   4.805   1.480   6.433  0.0202  1.3043  0.1987
   67MOL   H14126673   4.718   1.545   6.567 -1.6288 -1.2998  0.2661
   67MOL   C14226674   4.747   1.323   6.576 -0.7451 -0.7494 -0.1120
   67MOL   C14326675   4.599   1.313   6.553 -0.3093 -0.0830  0.2075
   67MOL   C14426676   4.546   1.319   6.421 -0.3703  0.4270  0.8981
   67MOL   C14526677   4.405   1.292   6.400  0.2867 -0.6203 -0.6682
   67MOL   C14626678   4.322   1.261   6.511  0.0685  0.0279  0.4633
   67MOL   O14726679   4.194   1.215   6.494  0.1959 -0.0723 -0.2148
   67MOL   C14826680   4.183   1.104   6.409  0.8204 -0.4002  0.6005
   67MOL   C14926681   4.373   1.273   6.638  0.6361 -0.0827 -0.4333
   67MOL   C15026682   4.511   1.298   6.656 -0.5880 -0.5132  0.5585
   67MOL   C15126683   4.839   1.218   6.504 -0.0931 -0.5851 -0.1019
   67MOL   H15226684   4.768   1.300   6.681  0.0284 -1.8855 -0.5081
   67MOL   H15326685   4.607   1.334   6.333 -2.2319 -0.9904 -0.6918
   67MOL   H15426686   4.379   1.299   6.295  3.3423  1.5186 -1.3833
   67MOL   H15526687   4.179   1.146   6.309 -3.1590 -1.0171  0.4157
   67MOL   H15626688   4.264   1.031   6.403  3.2069  2.1560  0.4828
   67MOL   H15726689   4.091   1.049   6.426 -0.0982  1.2177  1.0095
   67MOL   H15826690   4.304   1.241   6.714  0.7644 -0.7807 -0.5994
   67MOL   H15926691   4.553   1.292   6.755  0.7385 -2.0313 -0.0829
   67MOL   H16026692   4.944   1.229   6.532 -0.8528 -0.1812  2.7618
   67MOL   H16126693   4.834   1.243   6.398 -0.0655 -1.4762 -0.3142
   67MOL   C16226694   4.795   1.071   6.521 -0.1497  0.1163  0.5182
   67MOL   C16326695   4.816   1.022   6.663  0.7875  0.3818 -0.1905
   67MOL   C16426696   4.709   0.972   6.740  0.0158 -0.0272 -0.4316
   67MOL   C16526697   4.729   0.927   6.874  0.0711  0.4865 -0.4391
   67MOL   C16626698   4.859   0.943   6.935 -0.0260 -0.0140 -0.4881
   67MOL   O16726699   4.890   0.897   7.059  0.2135  0.1801 -0.3329
   67MOL   C16826700   4.782   0.890   7.150  0.4627 -0.5966 -0.1486
   67MOL   C16926701   4.961   0.990   6.856 -0.1178 -0.7464 -0.0639
   67MOL   C17026702   4.942   1.035   6.727 -0.2110 -0.0714  0.3655
   67MOL   C17126703   4.877   0.978   6.423 -0.0591  0.5611  0.2099
   67MOL   H17226704   4.691   1.070   6.489  0.4328  3.0166 -1.6566
   67MOL   H17326705   4.618   0.950   6.687 -1.0587  1.2370  0.8531
   67MOL   H17426706   4.644   0.882   6.923  0.0943 -1.1819 -1.8593
   67MOL   H17526707   4.726   0.797   7.142 -0.5104 -0.0112 -0.2094
   67MOL   H17626708   4.719   0.978   7.144 -3.4711 -3.2169  0.9517
   67MOL   H17726709   4.823   0.888   7.251 -0.7412 -0.4317  0.3420
   67MOL   H17826710   5.064   0.997   6.890 -0.4655 -0.3513  0.9251
   67MOL   H17926711   5.027   1.066   6.668  0.1122 -0.7648  0.4634
   67MOL   H18026712   4.825   0.886   6.449  1.7475 -0.5783 -0.0838
   67MOL   H18126713   4.977   0.982   6.467  0.1917 -0.7337 -0.2219
   67MOL   C18226714   4.872   0.997   6.270  0.3984  0.5927 -0.4455
   67MOL   C18326715   4.741   1.060   6.218 -0.5246 -0.3568  0.9376
   67MOL   C18426716   4.619   0.992   6.244  0.4889 -0.2954 -0.4077
   67MOL   C18526717   4.501   1.034   6.189 -0.5340  0.1565  0.0860
   67MOL   C18626718   4.496   1.148   6.111  1.0605  0.3454  0.6457
   67MOL   O18726719   4.384   1.200   6.045 -0.1945 -0.4652 -0.0878
   67MOL   C18826720   4.292   1.106   5.993  0.1352 -0.2174 -0.1501
   67MOL   C18926721   4.615   1.220   6.083  0.1869  0.2721  0.3290
   67MOL   C19026722   4.740   1.171   6.138  0.5361 -0.9062  0.4146
   67MOL   C19126723   4.902   0.867   6.197  0.3204 -0.2815 -1.0832
   67MOL   H19226724   4.957   1.061   6.247  1.4742  0.1698  2.1439
   67MOL   H19326725   4.620   0.910   6.314  1.1937 -0.5466 -0.7103
   67MOL   H19426726   4.410   0.992   6.228  0.4035 -1.0325  1.0455
   67MOL   H19526727   4.256   1.144   5.897  2.1588  1.0494 -0.4499
   67MOL   H19626728   4.202   1.111   6.054  0.8221  0.0970  0.8377
   67MOL   H19726729   4.329   1.005   5.972 -2.4797 -1.0087 -1.1309
   67MOL   H19826730   4.610   1.293   6.004 -1.3806 -0.2603 -0.0882
   67MOL   H19926731   4.832   1.216   6.105  0.6517 -1.1677  0.3828
   67MOL   H20026732   4.846   0.788   6.247  2.8959 -1.6320 -0.2665
   67MOL   H20126733   4.863   0.873   6.095 -0.4805  1.6043 -0.6922
   67MOL   C20226734   5.052   0.836   6.189  0.3109  0.3623  0.1822
   67MOL   C20326735   5.080   0.736   6.073 -0.3102 -0.6679  0.2181
   67MOL   C20426736   5.152   0.783   5.959  0.1167 -0.3728 -0.0109
   67MOL   C20526737   5.157   0.702   5.841  0.2509 -0.1119  0.1752
   67MOL   C20626738   5.100   0.571   5.844 -0.4523 -0.2863  0.0454
   67MOL   O20726739   5.094   0.491   5.732  0.6739  0.2897  0.0650
   67MOL   C20826740   5.080   0.559   5.610  0.0150 -0.5545  0.1628
   67MOL   C20926741   5.044   0.521   5.965 -0.2002  0.1978 -0.5001
   67MOL   C21026742   5.032   0.601   6.077  0.8640  0.0284  0.9731
   67MOL   C21126743   5.124   0.774   6.317  0.1858 -0.4056  0.9597
   67MOL   H21226744   5.103   0.932   6.183  2.6997 -0.7896  1.4127
   67MOL   H21326745   5.202   0.878   5.948 -0.0728 -0.4670 -1.7429
   67MOL   H21426746   5.202   0.736   5.748  0.4313  1.1404  0.7183
   67MOL   H21526747   5.176   0.603   5.584 -0.2499  1.2490  2.1288
   67MOL   H21626748   5.052   0.485   5.535  0.0608 -0.4364  0.0305
   67MOL   H21726749   4.997   0.630   5.606 -0.1543 -0.7972 -0.7254
   67MOL   H21826750   5.006   0.420   5.967 -0.3074  0.1748 -2.4508
   67MOL   H21926751   4.987   0.558   6.165  0.2623 -1.8874 -0.2466
   67MOL   H22026752   5.091   0.671   6.333  0.2055 -0.4001  1.0398
   67MOL   H22126753   5.098   0.835   6.404 -1.6703 -1.0460  0.8777
   67MOL   C22226754   5.278   0.766   6.302 -0.5805 -0.2037 -0.0488
   67MOL   C22326755   5.339   0.904   6.317 -0.4823 -0.5752  0.0703
   67MOL   C22426756   5.333   0.965   6.443 -0.2174  0.5555  0.1716
   67MOL   C22526757   5.384   1.094   6.475  0.3499  0.8345  0.3760
   67MOL   C22626758   5.457   1.158   6.371  0.2600  0.6461  0.2122
   67MOL   O22726759   5.508   1.281   6.389  0.0258 -0.0810 -0.3256
   67MOL   C22826760   5.516   1.344   6.515 -0.1791  0.2909 -0.6028
   67MOL   C22926761   5.476   1.093   6.247 -0.2174  0.3256 -0.5871
   67MOL   C23026762   5.413   0.968   6.217  1.0117  0.5813 -0.2866
   67MOL   C23126763   5.345   0.675   6.399 -0.3428  0.1048  0.5341
   67MOL   H23226764   5.297   0.732   6.200 -2.4360 -1.8020  0.0967
   67MOL   H23326765   5.279   0.916   6.523 -0.9530 -2.0136 -1.8360
   67MOL   H23426766   5.376   1.130   6.577  1.0508  1.3253  0.2613
   67MOL   H23526767   5.567   1.435   6.484  0.6137  0.4304  1.0151
   67MOL   H23626768   5.412   1.364   6.542  0.5586  3.3115  0.1965
   67MOL   H23726769   5.568   1.304   6.602 -0.4987 -0.0412 -0.5649
   67MOL   H23826770   5.533   1.142   6.170  2.1440 -1.7325 -0.1865
   67MOL   H23926771   5.418   0.928   6.117 -2.3958  2.4286 -1.2624
   67MOL   H24026772   5.445   0.717   6.413  0.4190 -1.2884 -0.5596
   67MOL   H24126773   5.302   0.693   6.497 -0.2470 -3.3561  1.2998
   67MOL   C24226774   5.354   0.518   6.370 -0.6803  0.5257 -0.2035
   67MOL   C24326775   5.436   0.483   6.245 -0.2227  0.1895  0.2583
   67MOL   C24426776   5.367   0.426   6.140  0.0606  0.1761 -0.3323
   67MOL   C24526777   5.435   0.395   6.018  0.1748 -0.1599  0.5870
   67MOL   C24626778   5.574   0.409   6.012  0.0263 -0.6504  0.0671
   67MOL   O24726779   5.653   0.360   5.906  0.9223  0.5893 -0.2853
   67MOL   C24826780   5.790   0.400   5.884 -0.5589  0.3434  0.1540
   67MOL   C24926781   5.642   0.453   6.127 -0.0340 -0.2390 -0.5354
   67MOL   C25026782   5.571   0.504   6.239  0.3712  0.7330  0.0849
   67MOL   C25126783   5.409   0.440   6.486 -0.0277 -0.4459 -0.2239
   67MOL   H25226784   5.254   0.480   6.347 -0.5209  0.4416 -0.7817
   67MOL   H25326785   5.260   0.410   6.141 -0.1827  1.6704 -0.3238
   67MOL   H25426786   5.384   0.346   5.936 -0.3552  1.3831 -0.0278
   67MOL   H25526787   5.827   0.345   5.797 -0.2410  2.0423 -0.8167
   67MOL   H25626788   5.805   0.507   5.866  0.5185  0.1587 -0.0885
   67MOL   H25726789   5.851   0.360   5.965 -1.1349  2.6585  1.7768
   67MOL   H25826790   5.749   0.449   6.138 -0.2986 -2.3287  1.6034
   67MOL   H25926791   5.621   0.546   6.326  1.8805  2.6729 -1.6744
   67MOL   H26026792   5.503   0.480   6.525  0.0022 -1.8991  1.2380
   67MOL   H26126793   5.433   0.340   6.450 -2.3452 -1.2140  0.2529
   67MOL   C26226794   5.305   0.429   6.601  0.3234 -0.2055 -0.3110
   67MOL   C26326795   5.300   0.552   6.695 -0.2603 -0.6597  0.4071
   67MOL   C26426796   5.419   0.617   6.737 -0.4877  0.2031 -0.3100
   67MOL   C26526797   5.421   0.720   6.828  0.1832 -0.3384 -0.4328
   67MOL   C26626798   5.300   0.774   6.870  0.6259 -0.0284  0.1181
   67MOL   O26726799   5.291   0.893   6.935 -0.0147 -0.0513  0.5391
   67MOL   C26826800   5.408   0.950   6.982 -0.2738  0.0667 -0.1134
   67MOL   C26926801   5.180   0.714   6.830 -0.3540  0.6938  0.0827
   67MOL   C27026802   5.174   0.602   6.742 -0.0701  0.2055  0.4166
   67MOL   C27126803   5.304   0.306   6.695 -0.2371 -0.1718  0.4354
   67MOL   H27226804   5.212   0.430   6.544  0.3558  0.1948 -0.3557
   67MOL   H27326805   5.513   0.588   6.694 -0.9884 -1.7285 -0.1438
   67MOL   H27426806   5.517   0.764   6.852 -0.6929  0.2593  2.1021
   67MOL   H27526807   5.459   0.914   7.071  1.3210 -1.6793 -1.7105
   67MOL   H27626808   5.393   1.056   7.006  0.5124  0.0517  0.4517
   67MOL   H27726809   5.479   0.966   6.901 -0.8176  1.8381 -0.2717
   67MOL   H27826810   5.085   0.753   6.865  0.1942  0.3192  2.0829
   67MOL   H27926811   5.081   0.568   6.698 -0.6028  2.5394 -0.3004
   67MOL   H28026812   5.401   0.308   6.745 -0.2209  1.7170  0.3951
   67MOL   H28126813   5.225   0.318   6.769 -1.8545  0.4887 -1.3644
   67MOL   C28226814   5.287   0.167   6.624  0.5444  0.0514 -0.7437
   67MOL   C28326815   5.147   0.153   6.575  0.1065 -0.3988  0.3785
   67MOL   C28426816   5.040   0.115   6.655  0.0099  0.5559 -0.2347
   67MOL   C28526817   4.909   0.100   6.598  0.5365  0.5250 -0.3070
   67MOL   C28626818   4.891   0.106   6.460 -0.1679  0.1684  0.3534
   67MOL   O28726819   4.775   0.086   6.387  0.1352  0.5308  0.2550
   67MOL   C28826820   4.660   0.033   6.445  0.0023  0.3583  0.1439
   67MOL   C28926821   4.995   0.154   6.382  0.3827 -0.3161  0.0367
   67MOL   C29026822   5.120   0.183   6.436 -0.1111 -0.1627  1.1323
   67MOL   C29126823   5.343   0.044   6.711  0.8103  0.2081  0.2509
   67MOL   H29226824   5.347   0.173   6.533 -0.3212  0.7465 -1.2817
   67MOL   H29326825   5.054   0.096   6.761 -4.2982  1.0579  0.5426
   67MOL   H29426826   4.826   0.063   6.656  1.1772  1.7490  1.4526
   67MOL   H29526827   4.645   0.075   6.545 -1.0729  0.9336 -0.2593
   67MOL   H29626828   4.582   0.061   6.375  0.9156 -1.3489 -1.6042
   67MOL   H29726829   4.662   7.965   6.462 -1.7114  0.1505 -0.9317
   67MOL   H29826830   4.968   0.181   6.281  2.2378  2.2114  0.1693
   67MOL   H29926831   5.197   0.222   6.371 -0.3937 -2.0798 -0.4138
   67MOL   H30026832   5.441   0.062   6.754  0.8195 -1.5029  0.9792
   67MOL   H30126833   5.285   0.042   6.803  2.3689  1.2554  1.2808
   67MOL   C30226834   5.347   7.948   6.633  0.1828  0.0448 -0.9690
   67MOL   C30326835   5.424   7.963   6.503 -0.3256 -0.0902  0.2661
   67MOL   C30426836   5.539   0.005   6.498 -0.1833  0.7694 -0.1368
   67MOL   C30526837   5.603   0.027   6.373 -0.4387 -0.7413  0.5957
   67MOL   C30626838   5.548   8.016   6.257  0.5678 -0.3898 -0.5396
   67MOL   O30726839   5.631   8.038   6.151  0.0449 -0.0377  0.2945
   67MOL   C30826840   5.580   8.031   6.019  0.0541 -0.2931  1.1469
   67MOL   C30926841   5.428   7.944   6.260 -0.4780 -0.2738 -0.5563
   67MOL   C31026842   5.369   7.914   6.386  0.1470 -0.1222  0.0610
   67MOL   C31126843   5.407   7.839   6.732  0.8141 -0.1266  0.5486
   67MOL   H31226844   5.243   7.929   6.608 -0.6947  1.3886  1.4785
   67MOL   H31326845   5.590   0.047   6.584 -0.2514 -1.1603  0.8700
   67MOL   H31426846   5.691   0.087   6.360  0.6284 -2.8580 -2.4917
   67MOL   H31526847   5.663   0.003   5.949  0.0535 -2.7593  0.7035
   67MOL   H31626848   5.500   0.061   5.994 -1.3508 -1.7353  1.5881
   67MOL   H31726849   5.537   7.932   6.006  0.0735 -0.0500 -0.9838
   67MOL   H31826850   5.382   7.912   6.168 -0.3272  2.6659 -1.6927
   67MOL   H31926851   5.280   7.853   6.389  0.5100 -0.6452  0.5748
   67MOL   H32026852   5.352   7.852   6.825  0.0410  2.9585 -0.2808
   67MOL   H32126853   5.507   7.873   6.758  1.5027 -0.7845 -1.2067
   67MOL   C32226854   5.402   7.696   6.680  0.2973  0.7395  0.6065
   67MOL   C32326855   5.253   7.656   6.653 -0.1127 -0.6532  0.7275
   67MOL   C32426856   5.211   7.637   6.517 -0.1402  0.6293 -0.2268
   67MOL   C32526857   5.078   7.591   6.494 -0.0066  0.7730 -0.1690
   67MOL   C32626858   4.988   7.573   6.599 -0.8510  0.2156 -0.2781
   67MOL   O32726859   4.863   7.530   6.568 -0.0206  0.1849  0.0204
   67MOL   C32826860   4.762   7.539   6.668  0.2018 -0.6667 -0.5919
   67MOL   C32926861   5.034   7.605   6.735  0.3059  0.1448  0.2927
   67MOL   C33026862   5.166   7.628   6.763 -0.1191  0.2758  0.5045
   67MOL   C33126863   5.494   7.594   6.758  0.7316 -0.1125  0.4472
   67MOL   H33226864   5.445   7.711   6.581  0.2111 -3.9365 -0.2677
   67MOL   H33326865   5.280   7.635   6.434  2.0103  3.2865  1.4393
   67MOL   H33426866   5.050   7.564   6.394  0.9687 -2.0038  0.2497
   67MOL   H33526867   4.720   7.636   6.694 -0.3089 -1.2628  0.8940
   67MOL   H33626868   4.792   7.476   6.752  2.2656 -1.8552 -2.1961
   67MOL   H33726869   4.670   7.499   6.624  1.0333 -0.8810 -2.1671
   67MOL   H33826870   4.965   7.598   6.818  1.2882 -1.1132  1.0278
   67MOL   H33926871   5.199   7.644   6.864  0.3284 -0.7926  0.5284
   67MOL   H34026872   5.588   7.644   6.785  0.0957  1.0156  0.6031
   67MOL   H34126873   5.443   7.590   6.854 -1.2474 -1.1589 -0.6289
   67MOL   C34226874   5.510   7.450   6.707  0.4530  0.5726 -0.1691
   67MOL   C34326875   5.560   7.347   6.814  0.7774  0.1362 -1.4386
   67MOL   C34426876   5.667   7.376   6.900 -0.7898  0.2327  0.4330
   67MOL   C34526877   5.726   7.284   6.989 -0.8112  0.1848  0.0459
   67MOL   C34626878   5.664   7.160   7.003  0.1432 -0.0583 -0.2433
   67MOL   O34726879   5.718   7.073   7.092 -0.2290 -0.1926 -0.5599
   67MOL   C34826880   5.678   6.938   7.102  0.3078  0.5239  0.7218
   67MOL   C34926881   5.553   7.128   6.918 -0.0381  0.1892 -0.7572
   67MOL   C35026882   5.508   7.220   6.825  0.5821  0.0051 -0.5661
   67MOL   C35126883   5.615   7.453   6.592 -0.5483 -0.2641  0.2515
   67MOL   H35226884   5.417   7.402   6.675 -0.1739 -0.4177  3.0031
   67MOL   H35326885   5.718   7.470   6.885  0.0556 -0.4570 -1.1367
   67MOL   H35426886   5.815   7.323   7.035 -1.3075  1.3533  0.0470
   67MOL   H35526887   5.574   6.934   7.133  0.1473  2.8748  0.5261
   67MOL   H35626888   5.696   6.891   7.005  0.9549  0.7128  0.7486
   67MOL   H35726889   5.740   6.868   7.158 -0.0420 -1.2163 -0.9844
   67MOL   H35826890   5.507   7.030   6.918 -0.2070  0.2209  1.8719
   67MOL   H35926891   5.428   7.181   6.764  0.4215 -0.4070 -0.0929
   67MOL   H36026892   5.589   7.536   6.527  1.4081  0.2151  0.0553
   67MOL   H36126893   5.712   7.482   6.632  0.6366 -2.9693 -0.5524
   67MOL   C36226894   5.634   7.322   6.518  0.5868 -0.7409  0.2494
   67MOL   C36326895   5.778   7.268   6.529 -0.2134 -0.4489 -0.2872
   67MOL   C36426896   5.881   7.352   6.478  0.0103  0.3917 -0.5582
   67MOL   C36526897   6.010   7.305   6.477  0.0814 -0.4478  0.2371
   67MOL   C36626898   6.045   7.183   6.522 -0.4968  0.6045  0.6613
   67MOL   O36726899   6.177   7.156   6.523 -0.8800 -0.0443  0.3903
   67MOL   C36826900   6.232   7.061   6.615  0.7505  0.1770  0.3251
   67MOL   C36926901   5.946   7.097   6.560 -0.0895  0.5522  0.0384
   67MOL   C37026902   5.808   7.135   6.569 -0.0378  0.0717  0.7430
   67MOL   C37126903   5.582   7.326   6.370 -0.4448 -0.0923 -0.1135
   67MOL   H37226904   5.578   7.239   6.560  3.0566 -1.8804  1.3559
   67MOL   H37326905   5.867   7.453   6.443 -0.0109  0.3970 -0.5347
   67MOL   H37426906   6.085   7.369   6.433  0.3400 -0.2144  1.0143
   67MOL   H37526907   6.340   7.049   6.609  0.7151 -1.1788  2.0046
   67MOL   H37626908   6.208   7.110   6.709  0.3979  0.2780  0.1861
   67MOL   H37726909   6.183   6.963   6.615  1.6986 -0.3051  1.4158
   67MOL   H37826910   5.965   6.992   6.578  0.4384  0.3932 -1.4280
   67MOL   H37926911   5.733   7.060   6.589 -2.4196  1.9578 -0.7181
   67MOL   H38026912   5.607   7.426   6.333  0.3063 -0.7788 -1.4797
   67MOL   H38126913   5.632   7.259   6.300  2.0943  1.8147 -0.1914
   67MOL   C38226914   5.430   7.308   6.350 -0.5042  0.3031 -0.1703
   67MOL   C38326915   5.376   7.175   6.405 -0.1891  1.4059 -0.4479
   67MOL   C38426916   5.294   7.182   6.518  0.6509  0.6545 -0.4205
   67MOL   C38526917   5.257   7.064   6.591 -0.0091 -0.5824 -0.3046
   67MOL   C38626918   5.304   6.935   6.551  0.0103 -0.3631 -0.1665
   67MOL   O38726919   5.268   6.817   6.613 -0.0099 -0.2950 -0.2365
   67MOL   C38826920   5.218   6.829   6.746 -0.3345 -0.0660 -0.8843
   67MOL   C38926921   5.379   6.932   6.433 -0.0587 -1.0207 -0.4202
   67MOL   C39026922   5.420   7.050   6.362  0.1012  0.7574 -0.3055
   67MOL   C39126923   5.395   7.311   6.199 -0.4162 -0.3774 -0.3284
   67MOL   H39226924   5.375   7.392   6.394 -0.1122  1.3727 -1.6659
   67MOL   H39326925   5.259   7.278   6.554 -0.5187  1.7530 -4.3073
   67MOL   H39426926   5.200   7.077   6.682 -0.3035  1.3154 -0.7527
   67MOL   H39526927   5.293   6.860   6.819 -1.9017  2.2118 -0.1744
   67MOL   H39626928   5.181   6.727   6.756 -1.6518  0.4378 -0.4775
   67MOL   H39726929   5.138   6.899   6.767  1.0770  1.9009 -1.9143
   67MOL   H39826930   5.416   6.832   6.414  0.1377 -0.8579 -0.9072
   67MOL   H39926931   5.485   7.042   6.277  1.5252  3.7177  0.4400
   67MOL   H40026932   5.421   7.409   6.161 -0.2556  0.2704  1.3927
   67MOL   H40126933   5.289   7.291   6.185 -0.1415 -1.7190 -0.5696
   67MOL   H40226934   5.446   7.237   6.138 -0.7008  0.6057 -1.7616
   68MOL     C126935   3.415   5.492   3.422  0.0904 -0.0660  0.3004
   68MOL     C226936   3.512   5.448   3.312  0.9795  0.2775  0.0749
   68MOL     C326937   3.534   5.309   3.293  0.0098 -0.1344  0.1649
   68MOL     C426938   3.619   5.270   3.183 -0.6257 -0.0924  0.1091
   68MOL     C526939   3.681   5.369   3.102  0.0590  0.1124  0.2727
   68MOL     O626940   3.755   5.322   2.997 -0.5406 -0.6569  0.5718
   68MOL     C726941   3.820   5.416   2.913  0.2509  0.7056 -0.3443
   68MOL     C826942   3.655   5.506   3.127  0.4908  0.4209 -0.2633
   68MOL     C926943   3.580   5.550   3.236 -0.9385 -0.0980 -0.0606
   68MOL    C1026944   3.441   5.429   3.560 -0.2086 -0.1627  0.0907
   68MOL    H1126945   3.311   5.483   3.390  0.1033  1.7163 -0.2977
   68MOL    H1226946   3.483   5.239   3.357 -0.1057 -0.7714 -0.6273
   68MOL    H1326947   3.626   5.163   3.173 -0.7755 -0.2483  1.5210
   68MOL    H1426948   3.840   5.386   2.810  2.3858 -2.3143  0.8813
   68MOL    H1526949   3.770   5.512   2.897 -0.8232  0.1395 -0.4376
   68MOL    H1626950   3.911   5.442   2.967 -0.2802  0.4466  0.6827
   68MOL    H1726951   3.686   5.585   3.060  3.5831 -0.5139  0.0067
   68MOL    H1826952   3.560   5.655   3.251 -1.7660 -0.2742  0.0901
   68MOL    H1926953   3.359   5.432   3.631 -0.4837  0.2275 -0.2463
   68MOL    H2026954   3.462   5.322   3.553 -1.2026 -0.3252 -0.3533
   68MOL    H2126955   3.436   5.599   3.435 -0.2776  0.0359  0.0565
   68MOL    C2226956   3.553   5.514   3.639  0.0620  1.3620 -0.1093
   68MOL    C2326957   3.509   5.646   3.692  0.7205 -0.4613 -0.1612
   68MOL    C2426958   3.564   5.758   3.634  0.7755  0.5675  0.3892
   68MOL    C2526959   3.512   5.884   3.663 -0.8383 -0.7198 -1.1507
   68MOL    C2626960   3.408   5.899   3.755 -0.3050  0.1066  0.3799
   68MOL    O2726961   3.384   6.031   3.794  0.4882  0.0471  0.2599
   68MOL    C2826962   3.275   6.065   3.875  0.2068 -0.5127 -0.1494
   68MOL    C2926963   3.346   5.786   3.810 -0.3826  0.0571  0.8695
   68MOL    C3026964   3.392   5.657   3.769 -0.6237 -0.3512 -0.2715
   68MOL    C3126965   3.618   5.424   3.751  0.3561 -0.0195 -0.4669
   68MOL    H3226966   3.637   5.524   3.570  0.8214  0.8778  0.7228
   68MOL    H3326967   3.645   5.752   3.563  1.8758  3.4427  1.3129
   68MOL    H3426968   3.538   5.978   3.616 -0.9899 -0.2273 -0.2644
   68MOL    H3526969   3.184   6.009   3.858 -1.2914  1.6680  0.4304
   68MOL    H3626970   3.249   6.168   3.850 -0.0147 -0.6378 -0.4279
   68MOL    H3726971   3.299   6.067   3.982 -0.3483 -0.1021 -0.0276
   68MOL    H3826972   3.265   5.785   3.882 -0.3965  1.5274  0.8918
   68MOL    H3926973   3.332   5.572   3.796 -2.1838  0.6760 -0.4367
   68MOL    H4026974   3.550   5.420   3.836 -1.5897 -0.5314 -1.9845
   68MOL    H4126975   3.637   5.328   3.703  1.0426 -0.1402  0.0507
   68MOL    C4226976   3.760   5.465   3.795  0.6182  0.0647  0.7447
   68MOL    C4326977   3.858   5.491   3.680 -0.4155  0.3804  0.1157
   68MOL    C4426978   3.897   5.384   3.610 -0.3644  0.3717  0.4401
   68MOL    C4526979   3.989   5.399   3.511  0.2562 -0.3878 -0.8336
   68MOL    C4626980   4.045   5.526   3.486 -1.3019 -0.2151  0.1263
   68MOL    O4726981   4.138   5.532   3.386  0.0424 -0.3552  0.0454
   68MOL    C4826982   4.224   5.642   3.371 -1.1587  0.5953 -0.2137
   68MOL    C4926983   4.006   5.634   3.561  0.1935 -0.1691 -0.1559
   68MOL    C5026984   3.906   5.623   3.657  0.7850  0.8394 -0.2618
   68MOL    C5126985   3.825   5.376   3.904  1.2399 -0.5364 -0.4003
   68MOL    H5226986   3.736   5.561   3.842  0.4008 -0.2637  1.3180
   68MOL    H5326987   3.859   5.283   3.622  0.5407 -0.1679 -1.0462
   68MOL    H5426988   4.018   5.312   3.455  1.2071 -1.4025  1.1867
   68MOL    H5526989   4.168   5.736   3.372  0.0644  1.3355  1.7210
   68MOL    H5626990   4.301   5.640   3.448 -2.0243 -0.5124  0.6493
   68MOL    H5726991   4.273   5.636   3.274 -2.9053  2.7181 -1.2539
   68MOL    H5826992   4.025   5.737   3.534  0.8872 -0.0036  0.9389
   68MOL    H5926993   3.863   5.709   3.707 -1.3807 -1.2503  1.5912
   68MOL    H6026994   3.930   5.403   3.914  0.8503  1.1596 -0.7011
   68MOL    H6126995   3.824   5.269   3.881 -0.0699 -0.4544 -0.7629
   68MOL    C6226996   3.762   5.393   4.046 -0.0556  0.8358  0.5050
   68MOL    C6326997   3.873   5.407   4.152 -0.1429 -0.3394 -0.8987
   68MOL    C6426998   3.958   5.299   4.188 -0.2324 -0.5452  1.0282
   68MOL    C6526999   4.069   5.321   4.278 -0.8147  0.6248 -0.1435
   68MOL    C6627000   4.090   5.450   4.328  0.2741  0.2183  0.4568
   68MOL    O6727001   4.206   5.476   4.400 -0.3165  0.2030  0.6213
   68MOL    C6827002   4.232   5.382   4.502  0.6898 -0.6314 -0.4886
   68MOL    C6927003   4.005   5.555   4.296 -0.1877  0.3229  0.0520
   68MOL    C7027004   3.894   5.535   4.207 -0.0088 -0.1503 -0.5324
   68MOL    C7127005   3.670   5.270   4.072  0.2665  0.0281  0.5438
   68MOL    H7227006   3.702   5.484   4.049 -1.0425  0.2431 -0.8091
   68MOL    H7327007   3.941   5.205   4.138 -0.5284 -0.3274  0.7238
   68MOL    H7427008   4.139   5.242   4.304 -0.0733  1.4256  0.3204
   68MOL    H7527009   4.264   5.426   4.597  4.2987  0.3761 -2.0631
   68MOL    H7627010   4.309   5.308   4.480  0.3772 -1.7422  2.0366
   68MOL    H7727011   4.138   5.329   4.518  0.2230 -0.1848 -1.6537
   68MOL    H7827012   4.033   5.651   4.337  1.9595 -0.5142  0.6234
   68MOL    H7927013   3.825   5.616   4.186 -1.3663 -1.4020 -0.9454
   68MOL    H8027014   3.603   5.261   3.987  1.4561  0.8516 -0.5081
   68MOL    H8127015   3.732   5.181   4.082 -0.1723 -0.7788 -3.2789
   68MOL    C8227016   3.590   5.276   4.195  0.3623  1.2469 -0.2951
   68MOL    C8327017   3.490   5.385   4.189 -0.7874 -0.3284  0.3818
   68MOL    C8427018   3.503   5.495   4.280  0.9767  0.1609  0.0176
   68MOL    C8527019   3.407   5.597   4.274  1.0055 -0.1229 -0.2805
   68MOL    C8627020   3.319   5.603   4.168  0.4948  0.4863  0.6340
   68MOL    O8727021   3.239   5.710   4.137 -0.1811  0.6953  0.2825
   68MOL    C8827022   3.249   5.829   4.219  0.0705 -0.2768 -0.0845
   68MOL    C8927023   3.305   5.501   4.077 -0.4770  0.9418 -0.5192
   68MOL    C9027024   3.385   5.387   4.092  0.1964 -0.5396 -0.2774
   68MOL    C9127025   3.505   5.153   4.234  0.2333 -0.1807 -0.1486
   68MOL    H9227026   3.661   5.298   4.275 -0.3541  1.9400  0.1595
   68MOL    H9327027   3.572   5.496   4.362 -0.1623 -1.0870  1.0077
   68MOL    H9427028   3.416   5.681   4.341 -1.2171  0.5298 -0.7374
   68MOL    H9527029   3.212   5.823   4.322  0.1266 -0.0471 -0.0479
   68MOL    H9627030   3.191   5.909   4.173 -0.4074 -1.4745 -1.5982
   68MOL    H9727031   3.353   5.863   4.218  0.3360 -0.9751  1.5043
   68MOL    H9827032   3.238   5.501   3.992  1.3224 -1.4986 -1.9987
   68MOL    H9927033   3.378   5.298   4.032 -1.3367 -0.7538  0.1984
   68MOL   H10027034   3.436   5.183   4.312  0.7661 -1.5771  0.8656
   68MOL   H10127035   3.452   5.125   4.143  1.3172 -1.8124 -0.3030
   68MOL   C10227036   3.583   5.023   4.276  0.4006 -0.3393  0.4708
   68MOL   C10327037   3.718   5.045   4.348  0.0662 -0.3455 -0.3927
   68MOL   C10427038   3.839   4.992   4.303 -0.2967  0.4770  0.0360
   68MOL   C10527039   3.964   5.009   4.368  0.0051  0.5112 -0.1263
   68MOL   C10627040   3.971   5.064   4.496  0.3618 -0.3489 -0.6432
   68MOL   O10727041   4.087   5.069   4.559 -0.2229  0.1784  0.1237
   68MOL   C10827042   4.079   5.083   4.703  0.4147  0.5495  0.0664
   68MOL   C10927043   3.850   5.130   4.540 -0.3820 -0.0783 -0.2517
   68MOL   C11027044   3.728   5.126   4.460 -0.1332  0.4727 -0.0180
   68MOL   C11127045   3.492   4.941   4.374  0.1570  0.9658 -0.0236
   68MOL   H11227046   3.596   4.969   4.183  1.5641 -0.7484  0.8681
   68MOL   H11327047   3.846   4.929   4.216  0.6286  0.4651  0.1197
   68MOL   H11427048   4.050   4.962   4.322  0.7976  0.0915  1.7566
   68MOL   H11527049   4.160   5.025   4.748  1.8870  3.0018  0.6947
   68MOL   H11627050   4.120   5.181   4.730  1.6784  0.4470 -1.3819
   68MOL   H11727051   3.985   5.055   4.749 -0.4679  0.8781 -1.4968
   68MOL   H11827052   3.843   5.197   4.625 -1.5509  0.1831 -0.5469
   68MOL   H11927053   3.642   5.178   4.502 -0.7258 -1.5425  1.3358
   68MOL   H12027054   3.564   4.873   4.418 -0.1281  0.6154 -0.0976
   68MOL   H12127055   3.447   5.002   4.452 -0.6041 -0.0216  0.3080
   68MOL   C12227056   3.380   4.850   4.305  0.1512  0.1318 -0.1088
   68MOL   C12327057   3.327   4.907   4.172 -1.0364  0.3672  0.6326
   68MOL   C12427058   3.382   4.870   4.045 -0.3974 -0.4778  0.1880
   68MOL   C12527059   3.326   4.926   3.921 -0.2445  0.1220 -1.1779
   68MOL   C12627060   3.225   5.023   3.934 -0.2104  0.2919 -0.0959
   68MOL   O12727061   3.172   5.090   3.826  0.3458  0.3502 -0.1567
   68MOL   C12827062   3.234   5.082   3.695  0.3411 -0.0494  0.1846
   68MOL   C12927063   3.167   5.056   4.062  0.2696 -0.1229  0.5334
   68MOL   C13027064   3.215   4.997   4.177 -0.3107 -0.2247  0.8500
   68MOL   C13127065   3.262   4.803   4.394 -0.4074  0.1404  0.0154
   68MOL   H13227066   3.442   4.762   4.293 -0.5151 -0.2535 -0.7591
   68MOL   H13327067   3.460   4.797   4.057  0.7761  1.2086  3.2803
   68MOL   H13427068   3.372   4.903   3.826  0.4052 -0.9569 -0.6181
   68MOL   H13527069   3.182   5.136   3.616  0.5964 -1.4624 -0.9685
   68MOL   H13627070   3.322   5.144   3.707 -1.3693  2.5051 -0.0369
   68MOL   H13727071   3.271   4.983   3.667 -1.2902 -0.2444 -1.3665
   68MOL   H13827072   3.085   5.127   4.061  0.0803 -0.3420 -0.9074
   68MOL   H13927073   3.165   5.028   4.268 -1.3471  0.4502  0.0596
   68MOL   H14027074   3.179   4.746   4.353 -1.0036 -0.4000  1.9116
   68MOL   H14127075   3.216   4.892   4.437 -0.8135 -1.1593  2.3796
   68MOL   C14227076   3.318   4.720   4.513  0.8517 -0.0795  0.0565
   68MOL   C14327077   3.200   4.711   4.614 -0.5205 -0.2009  0.6184
   68MOL   C14427078   3.215   4.744   4.753 -0.2907  0.3288 -0.0056
   68MOL   C14527079   3.112   4.731   4.842 -0.2769  0.5881  0.2611
   68MOL   C14627080   2.989   4.673   4.806 -0.3721  0.3305  0.1539
   68MOL   O14727081   2.898   4.660   4.910  0.8786 -0.0847  0.0589
   68MOL   C14827082   2.773   4.600   4.879  0.1752 -0.2725  0.1800
   68MOL   C14927083   2.961   4.647   4.668  0.3058 -0.0698 -0.3680
   68MOL   C15027084   3.071   4.662   4.578 -0.0593  0.0282  0.4086
   68MOL   C15127085   3.364   4.580   4.454 -0.2084  0.2703 -0.5230
   68MOL   H15227086   3.392   4.782   4.563  0.2862  0.6730 -0.0381
   68MOL   H15327087   3.312   4.779   4.784  0.1997 -0.2768 -0.8441
   68MOL   H15427088   3.131   4.768   4.942 -2.2982  2.9042 -0.1891
   68MOL   H15527089   2.782   4.493   4.863 -0.6467 -0.5461  1.4552
   68MOL   H15627090   2.711   4.609   4.968  1.4170  0.5505  0.9856
   68MOL   H15727091   2.722   4.649   4.796  0.1769  0.7139  0.7575
   68MOL   H15827092   2.867   4.605   4.635 -0.1942  1.1641 -0.5571
   68MOL   H15927093   3.055   4.630   4.476  0.7333 -1.9796  0.8944
   68MOL   H16027094   3.465   4.591   4.414 -0.1541 -1.1577 -0.7782
   68MOL   H16127095   3.309   4.557   4.363 -0.1560 -2.0125  0.0046
   68MOL   C16227096   3.358   4.460   4.549 -0.3473  0.0723  0.1834
   68MOL   C16327097   3.502   4.409   4.579 -0.0253  0.1911 -0.3203
   68MOL   C16427098   3.562   4.450   4.698 -0.3246  0.0203 -0.2881
   68MOL   C16527099   3.687   4.392   4.727 -0.5436 -0.0933  0.0114
   68MOL   C16627100   3.751   4.305   4.639  0.2109  0.0881 -1.7591
   68MOL   O16727101   3.861   4.236   4.691  0.4588 -0.2548  0.2125
   68MOL   C16827102   3.951   4.188   4.595  0.1688 -0.1429  0.0541
   68MOL   C16927103   3.689   4.268   4.524  0.1758  1.1364  0.0658
   68MOL   C17027104   3.559   4.311   4.495 -0.7315 -0.2584  0.4554
   68MOL   C17127105   3.260   4.355   4.494 -0.3877  0.7829  0.8324
   68MOL   H17227106   3.320   4.489   4.647  1.1638 -0.6089  0.9875
   68MOL   H17327107   3.519   4.518   4.770 -0.3170  0.1145 -0.3735
   68MOL   H17427108   3.724   4.414   4.826  0.3444 -0.8662 -0.1404
   68MOL   H17527109   3.973   4.262   4.518  0.3231 -0.0997  0.1395
   68MOL   H17627110   3.942   4.086   4.556  0.5720  0.0167 -0.4618
   68MOL   H17727111   4.048   4.184   4.644  0.4473 -0.2747 -0.5081
   68MOL   H17827112   3.728   4.191   4.459 -0.1657  1.1116 -0.1135
   68MOL   H17927113   3.511   4.273   4.406  1.6116 -1.8427 -0.1853
   68MOL   H18027114   3.296   4.331   4.394  2.7130  0.8956  1.8943
   68MOL   H18127115   3.161   4.399   4.479 -3.0277 -5.5284 -2.4286
   68MOL   C18227116   3.242   4.226   4.579  0.3994  0.2311 -1.0314
   68MOL   C18327117   3.180   4.117   4.495 -0.4020  0.4540  0.4973
   68MOL   C18427118   3.260   4.023   4.435 -0.0719  0.8533 -0.7497
   68MOL   C18527119   3.210   3.924   4.345 -0.0113 -0.0432  0.0744
   68MOL   C18627120   3.074   3.914   4.322  0.3592 -0.4778  0.1668
   68MOL   O18727121   3.031   3.804   4.253 -0.4140 -0.3330 -0.2771
   68MOL   C18827122   2.890   3.781   4.255 -0.0643 -0.5352  0.1054
   68MOL   C18927123   2.992   4.011   4.386  0.5231  0.2437 -0.0891
   68MOL   C19027124   3.045   4.113   4.467  0.1593  0.0711 -0.1147
   68MOL   C19127125   3.160   4.258   4.705 -0.4803 -0.0585 -0.1665
   68MOL   H19227126   3.345   4.200   4.602  0.4975  1.1334 -0.4479
   68MOL   H19327127   3.366   4.016   4.455  0.0714 -0.1274 -1.7839
   68MOL   H19427128   3.279   3.853   4.301 -0.3109 -0.7016  0.6498
   68MOL   H19527129   2.831   3.863   4.214 -3.2320 -2.7419  0.0554
   68MOL   H19627130   2.850   3.763   4.355 -1.0696  1.2845  0.0460
   68MOL   H19727131   2.875   3.692   4.194  1.0054 -1.0953  0.6426
   68MOL   H19827132   2.886   4.020   4.366  0.5306 -1.7465 -1.2055
   68MOL   H19927133   2.977   4.192   4.495 -1.9464 -1.5885 -0.4027
   68MOL   H20027134   3.177   4.361   4.740  1.1060 -0.8612  1.5327
   68MOL   H20127135   3.053   4.264   4.684 -0.3256  0.1825 -0.9114
   68MOL   C20227136   3.181   4.159   4.824  0.1912 -0.2977  1.0901
   68MOL   C20327137   3.057   4.146   4.911 -1.1258  0.5163  0.1535
   68MOL   C20427138   2.994   4.249   4.982 -0.8545 -0.3824  0.3316
   68MOL   C20527139   2.874   4.230   5.047 -0.2225 -0.1164  0.2526
   68MOL   C20627140   2.819   4.105   5.064 -0.4658 -0.1895  0.2409
   68MOL   O20727141   2.695   4.104   5.113  0.8690  0.1256  0.1277
   68MOL   C20827142   2.629   3.984   5.096 -0.3515  0.2208 -0.4455
   68MOL   C20927143   2.889   3.996   5.005 -0.6032 -0.3046  0.4628
   68MOL   C21027144   3.003   4.013   4.930  0.2474  0.3415 -0.1816
   68MOL   C21127145   3.292   4.213   4.912  0.6863 -0.2449  0.0370
   68MOL   H21227146   3.200   4.063   4.776  1.5563  0.9567 -0.9769
   68MOL   H21327147   3.041   4.347   4.985 -1.9724  0.1904 -0.3594
   68MOL   H21427148   2.820   4.308   5.099 -2.1432 -0.5502 -1.0730
   68MOL   H21527149   2.675   3.907   5.158 -0.4568  0.7430  0.2906
   68MOL   H21627150   2.536   3.990   5.151 -0.9971  2.4681 -1.7318
   68MOL   H21727151   2.608   3.948   4.995 -1.5368 -1.3676  0.3537
   68MOL   H21827152   2.854   3.894   5.011 -0.8392 -0.1762  1.3610
   68MOL   H21927153   3.050   3.924   4.890 -1.3699 -0.7223  0.2540
   68MOL   H22027154   3.277   4.316   4.944  0.7225 -0.2319  0.0127
   68MOL   H22127155   3.380   4.209   4.846 -1.0877  0.2999 -2.4378
   68MOL   C22227156   3.330   4.122   5.036  0.0858  0.0984 -0.1516
   68MOL   C22327157   3.485   4.096   5.051 -0.2301  0.8529 -0.8256
   68MOL   C22427158   3.571   4.205   5.025 -0.3626 -0.0259  0.1116
   68MOL   C22527159   3.710   4.187   5.041 -0.1677  0.0552  0.1067
   68MOL   C22627160   3.766   4.067   5.086  0.3859 -0.2825  0.0460
   68MOL   O22727161   3.901   4.056   5.097 -0.7302  0.1704  0.5558
   68MOL   C22827162   3.980   4.100   4.987 -0.3228  0.4710 -0.0748
   68MOL   C22927163   3.688   3.961   5.115 -0.1284 -1.1749 -0.3790
   68MOL   C23027164   3.545   3.974   5.091  0.5438  0.2558  0.5671
   68MOL   C23127165   3.273   4.182   5.173 -0.5110  0.5033 -0.2264
   68MOL   H23227166   3.295   4.025   5.001  0.9604 -0.1593 -0.3417
   68MOL   H23327167   3.533   4.305   5.015 -2.2633 -0.7959 -0.7752
   68MOL   H23427168   3.775   4.272   5.033  0.1247 -0.1062  0.7079
   68MOL   H23527169   4.068   4.036   4.988  1.4605  2.8113  0.4535
   68MOL   H23627170   3.929   4.063   4.899  2.0415  0.4123 -1.4731
   68MOL   H23727171   4.007   4.206   4.982  2.8569 -0.2154  1.0389
   68MOL   H23827172   3.733   3.870   5.152 -0.5765 -1.2267  0.0375
   68MOL   H23927173   3.485   3.885   5.106  1.2030 -0.8810 -3.0796
   68MOL   H24027174   3.342   4.262   5.200  2.0554 -0.9345 -2.3070
   68MOL   H24127175   3.172   4.222   5.173 -0.2710  1.1313  0.3280
   68MOL   C24227176   3.294   4.081   5.284 -0.3987  0.0972 -0.1331
   68MOL   C24327177   3.340   4.152   5.417  0.7439 -0.3590 -0.3306
   68MOL   C24427178   3.249   4.216   5.503 -0.0404  0.6013 -0.6784
   68MOL   C24527179   3.284   4.289   5.614  0.4127  0.2103  0.5970
   68MOL   C24627180   3.428   4.301   5.647  0.3012  0.3060 -0.8927
   68MOL   O24727181   3.478   4.376   5.754 -0.1213  0.8348  0.1736
   68MOL   C24827182   3.387   4.464   5.818 -0.0695 -0.4537 -0.4401
   68MOL   C24927183   3.521   4.234   5.566 -0.0602 -0.1975 -0.2615
   68MOL   C25027184   3.474   4.165   5.453  0.0504 -0.0631  0.1281
   68MOL   C25127185   3.177   3.988   5.295 -0.1062  0.0563  0.7210
   68MOL   H25227186   3.378   4.014   5.264  0.1562 -0.0465  2.4185
   68MOL   H25327187   3.149   4.222   5.464 -1.4232 -0.6184  2.5573
   68MOL   H25427188   3.205   4.343   5.665  0.8878  0.9992  0.5033
   68MOL   H25527189   3.317   4.508   5.746  0.4896  2.1604  0.5688
   68MOL   H25627190   3.332   4.404   5.891  0.5794  0.8400  1.1266
   68MOL   H25727191   3.452   4.538   5.864 -0.0856 -1.2987  0.9432
   68MOL   H25827192   3.624   4.235   5.597  0.4506  0.0189 -1.9038
   68MOL   H25927193   3.552   4.119   5.394 -0.6191  1.9590 -2.3869
   68MOL   H26027194   3.134   3.963   5.198  0.8091 -0.4168  0.4342
   68MOL   H26127195   3.108   4.049   5.353 -0.1520 -0.0421  0.7697
   68MOL   C26227196   3.207   3.858   5.368  0.5329 -0.7316 -0.1861
   68MOL   C26327197   3.290   3.762   5.281  0.5690 -0.2259  0.1187
   68MOL   C26427198   3.409   3.713   5.335 -0.0515  0.1796 -0.4414
   68MOL   C26527199   3.499   3.632   5.266 -0.5112  0.2168  0.1781
   68MOL   C26627200   3.473   3.603   5.126 -0.3311  0.3829  0.4490
   68MOL   O26727201   3.556   3.528   5.043  0.2974  0.3794 -0.1748
   68MOL   C26827202   3.678   3.470   5.088 -0.2794 -0.0704  0.2144
   68MOL   C26927203   3.355   3.655   5.066  1.1227  0.3389 -0.7200
   68MOL   C27027204   3.260   3.724   5.149  0.0300  0.3536  0.0539
   68MOL   C27127205   3.079   3.789   5.430  0.0498 -0.4567  0.0470
   68MOL   H27227206   3.259   3.885   5.459  2.7381  0.0788 -1.6466
   68MOL   H27327207   3.422   3.733   5.440 -2.0060  1.3719 -0.3934
   68MOL   H27427208   3.590   3.606   5.318 -0.1672 -0.2708 -0.6588
   68MOL   H27527209   3.746   3.459   5.004  0.8046  3.2436  0.5729
   68MOL   H27627210   3.656   3.372   5.132 -0.3832 -0.4421 -0.6598
   68MOL   H27727211   3.731   3.534   5.158  1.5194 -0.3750 -0.8548
   68MOL   H27827212   3.335   3.622   4.965  0.4527 -0.2262 -0.4004
   68MOL   H27927213   3.162   3.747   5.108  0.7176  0.1743 -1.7340
   68MOL   H28027214   3.019   3.763   5.343 -1.2115  1.3467  0.3584
   68MOL   H28127215   3.105   3.691   5.470 -0.3216 -0.9210 -0.8285
   68MOL   C28227216   3.010   3.877   5.543  0.5466  0.0303  0.6839
   68MOL   C28327217   3.036   3.830   5.686 -0.4272 -0.2830 -0.6774
   68MOL   C28427218   2.984   3.717   5.752 -0.3687  0.5990 -0.4766
   68MOL   C28527219   3.017   3.696   5.893  1.1701 -0.1322  0.2765
   68MOL   C28627220   3.106   3.787   5.962 -0.2877 -0.0025 -0.0572
   68MOL   O28727221   3.153   3.747   6.084 -0.5025  0.3330 -0.2967
   68MOL   C28827222   3.257   3.819   6.148 -0.3750 -0.3034 -0.0322
   68MOL   C28927223   3.154   3.899   5.895 -0.1439 -0.2007 -0.5244
   68MOL   C29027224   3.118   3.914   5.762  0.2264  0.3123 -0.2495
   68MOL   C29127225   2.854   3.888   5.516  0.1522 -0.1920 -0.2561
   68MOL   H29227226   3.043   3.980   5.531 -0.7104  0.3814  0.0580
   68MOL   H29327227   2.918   3.645   5.707 -2.5746  1.0615  1.9358
   68MOL   H29427228   2.982   3.611   5.949  1.2785 -0.6685 -0.4586
   68MOL   H29527229   3.223   3.915   6.185  0.3004 -0.6287  1.4669
   68MOL   H29627230   3.290   3.757   6.231  0.3119  0.0776 -0.0168
   68MOL   H29727231   3.333   3.820   6.069  0.0752  2.3795  0.4051
   68MOL   H29827232   3.225   3.972   5.930  0.1426 -0.4638 -0.5552
   68MOL   H29927233   3.164   3.998   5.711  1.7948  0.3431  1.1694
   68MOL   H30027234   2.831   3.911   5.412  0.9586 -1.0399 -0.6326
   68MOL   H30127235   2.817   3.785   5.520 -1.4348  0.4405  1.3753
   68MOL   C30227236   2.770   3.983   5.601 -0.3991 -0.1101  0.4320
   68MOL   C30327237   2.823   4.124   5.593 -0.1334 -0.6812 -0.3077
   68MOL   C30427238   2.847   4.188   5.467 -0.0650 -0.3766  0.2138
   68MOL   C30527239   2.897   4.318   5.464  0.0975  0.0135  0.6953
   68MOL   C30627240   2.903   4.391   5.586 -0.0898 -0.0945 -0.0276
   68MOL   O30727241   2.930   4.527   5.601  0.3338  0.0697 -0.4773
   68MOL   C30827242   3.006   4.576   5.489  0.2863  0.3049  0.7169
   68MOL   C30927243   2.888   4.324   5.709  0.5409  0.3138 -0.2877
   68MOL   C31027244   2.846   4.193   5.712 -0.2423  0.5948 -0.5366
   68MOL   C31127245   2.620   3.965   5.562  0.1068  0.6803 -0.1403
   68MOL   H31227246   2.775   3.947   5.704  1.5025  0.5777  0.6044
   68MOL   H31327247   2.824   4.134   5.376 -3.3776  1.7024 -0.2620
   68MOL   H31427248   2.913   4.358   5.365 -0.1450  0.7092  0.9333
   68MOL   H31527249   3.038   4.677   5.516 -1.9604  1.6055 -1.2005
   68MOL   H31627250   2.936   4.580   5.405 -0.0784  0.1685  1.0127
   68MOL   H31727251   3.101   4.525   5.478 -0.4761 -1.3765  1.7658
   68MOL   H31827252   2.886   4.378   5.803 -1.5190  1.3897 -0.9227
   68MOL   H31927253   2.828   4.144   5.807  0.6221  0.6651 -0.3356
   68MOL   H32027254   2.607   3.859   5.540 -1.3105  1.2648 -2.2011
   68MOL   H32127255   2.606   3.996   5.459 -0.2918  3.8093  0.8006
   68MOL   C32227256   2.516   4.021   5.664 -0.0672  0.5073 -0.9049
   68MOL   C32327257   2.543   3.991   5.810  0.0204 -0.1189  0.2855
   68MOL   C32427258   2.555   3.859   5.853 -0.7933 -0.0600  0.0232
   68MOL   C32527259   2.582   3.826   5.986  0.2588 -0.6419  0.2146
   68MOL   C32627260   2.589   3.933   6.083 -0.8218 -0.0879  0.3510
   68MOL   O32727261   2.611   3.914   6.215 -0.3393 -0.3951  0.2332
   68MOL   C32827262   2.573   3.787   6.267  0.3877  0.5206 -0.5267
   68MOL   C32927263   2.580   4.065   6.038 -0.1303  0.9126 -0.3822
   68MOL   C33027264   2.546   4.097   5.904  0.0579  0.7200  0.1489
   68MOL   C33127265   2.377   3.976   5.626  0.0913  0.0197 -0.8091
   68MOL   H33227266   2.539   4.127   5.661 -2.5396  1.0803 -0.8982
   68MOL   H33327267   2.550   3.778   5.781  1.0340  2.7508 -3.4036
   68MOL   H33427268   2.582   3.721   6.012 -0.3222 -1.1852 -1.8685
   68MOL   H33527269   2.587   3.787   6.375 -0.8693 -2.6187 -0.3004
   68MOL   H33627270   2.634   3.703   6.233 -1.4799 -0.3725 -1.8251
   68MOL   H33727271   2.471   3.764   6.233  0.9559  0.8679 -2.5710
   68MOL   H33827272   2.582   4.139   6.117 -2.2462  1.1079 -0.4827
   68MOL   H33927273   2.543   4.200   5.874  5.7202  1.1206  0.5757
   68MOL   H34027274   2.380   3.867   5.638  1.4385 -0.1041 -2.0845
   68MOL   H34127275   2.307   3.994   5.707  1.5801  1.6049  0.1314
   68MOL   C34227276   2.328   4.025   5.494 -0.1750 -0.3047  0.0579
   68MOL   C34327277   2.334   4.178   5.492 -0.7127 -0.5987  0.3454
   68MOL   C34427278   2.427   4.252   5.410  0.6993 -0.4154  0.0822
   68MOL   C34527279   2.435   4.390   5.418 -0.4773  0.0268  0.3065
   68MOL   C34627280   2.346   4.462   5.505 -0.6617 -0.1170 -0.2179
   68MOL   O34727281   2.359   4.598   5.519  0.3550  0.2438 -0.3224
   68MOL   C34827282   2.484   4.662   5.477  0.2941  0.7719 -0.0032
   68MOL   C34927283   2.255   4.391   5.582  0.3686  0.4043  0.3738
   68MOL   C35027284   2.250   4.252   5.578  0.5406 -0.6481 -0.4334
   68MOL   C35127285   2.184   3.972   5.462 -0.0942 -0.4815  0.2897
   68MOL   H35227286   2.401   3.989   5.422  0.8096  0.1642  0.7968
   68MOL   H35327287   2.502   4.201   5.351  1.8201  0.1220  1.0067
   68MOL   H35427288   2.514   4.436   5.361 -1.2603 -0.4171 -1.1534
   68MOL   H35527289   2.469   4.693   5.374 -2.0950 -0.3600 -0.0234
   68MOL   H35627290   2.481   4.760   5.523 -1.3327  0.2266  1.0725
   68MOL   H35727291   2.570   4.602   5.507  0.9146 -0.6948 -4.3220
   68MOL   H35827292   2.191   4.445   5.650  1.4433 -0.2604  1.9393
   68MOL   H35927293   2.171   4.202   5.633 -0.2751 -0.7932 -1.7068
   68MOL   H36027294   2.122   3.986   5.550  0.0696  0.2232  0.3003
   68MOL   H36127295   2.134   4.031   5.385  1.3177  1.0207  0.4771
   68MOL   C36227296   2.179   3.822   5.422  0.3578  0.5663  0.5443
   68MOL   C36327297   2.233   3.794   5.285  0.0746 -0.2571  0.1137
   68MOL   C36427298   2.164   3.847   5.174  0.8790  0.9691 -0.0904
   68MOL   C36527299   2.211   3.828   5.043  0.0802  0.5606 -0.2817
   68MOL   C36627300   2.337   3.762   5.016  0.9604 -0.3912 -0.5824
   68MOL   O36727301   2.371   3.752   4.888  0.2055 -0.4752  0.0345
   68MOL   C36827302   2.323   3.631   4.827 -0.9376 -0.0924 -0.5675
   68MOL   C36927303   2.409   3.709   5.127 -0.6715 -0.5276  0.2970
   68MOL   C37027304   2.353   3.723   5.257 -1.1898 -0.6015  0.8360
   68MOL   C37127305   2.043   3.753   5.442 -0.0139 -0.5457  0.2394
   68MOL   H37227306   2.247   3.769   5.489  1.3770 -0.1708 -1.0481
   68MOL   H37327307   2.070   3.897   5.191  1.1368  1.7913 -1.0516
   68MOL   H37427308   2.145   3.852   4.961 -2.2641  0.8837  1.6556
   68MOL   H37527309   2.216   3.609   4.830 -0.5326 -2.1249 -0.2828
   68MOL   H37627310   2.346   3.642   4.721  1.9129  0.3460  0.0563
   68MOL   H37727311   2.375   3.542   4.861 -0.7054  0.2049 -0.1502
   68MOL   H37827312   2.510   3.678   5.106  0.4046  2.5317  0.7254
   68MOL   H37927313   2.402   3.682   5.345 -0.0023  1.6399  1.2468
   68MOL   H38027314   1.971   3.810   5.384  0.2367  2.8534  3.0763
   68MOL   H38127315   2.049   3.652   5.401  1.2453  0.8814 -3.2420
   68MOL   C38227316   1.990   3.736   5.590 -0.6650 -0.5293 -0.8984
   68MOL   C38327317   2.084   3.666   5.686  0.6040  0.3503 -0.0978
   68MOL   C38427318   2.135   3.730   5.801  0.2536  0.2694 -0.3887
   68MOL   C38527319   2.212   3.661   5.893  1.0676  0.8045  0.1256
   68MOL   C38627320   2.242   3.524   5.877 -0.0084 -0.4768 -0.0067
   68MOL   O38727321   2.311   3.446   5.969  0.4618 -0.7406 -0.1368
   68MOL   C38827322   2.310   3.493   6.108  0.1557  0.2224  0.3009
   68MOL   C38927323   2.195   3.462   5.757 -0.4910  0.1384 -0.1033
   68MOL   C39027324   2.116   3.529   5.663 -0.4907  0.4174  0.3179
   68MOL   C39127325   1.847   3.673   5.585  0.2666  0.0181 -0.4121
   68MOL   H39227326   1.964   3.832   5.634 -3.8586 -2.5154  1.7764
   68MOL   H39327327   2.110   3.833   5.817 -1.9896 -0.1189 -1.2554
   68MOL   H39427328   2.243   3.718   5.980 -0.6734 -0.6818  1.7767
   68MOL   H39527329   2.395   3.557   6.133 -0.1904  0.7348  0.1859
   68MOL   H39627330   2.321   3.410   6.177 -0.6923 -2.0071 -2.1461
   68MOL   H39727331   2.218   3.547   6.130 -1.7296 -1.9505 -1.8686
   68MOL   H39827332   2.221   3.358   5.742 -0.4385  0.2090 -0.5120
   68MOL   H39927333   2.072   3.474   5.582  0.6043 -0.1405  0.1001
   68MOL   H40027334   1.787   3.721   5.508  0.8237 -0.1796 -0.9741
   68MOL   H40127335   1.816   3.685   5.689  0.8472  0.2274 -0.2605
   68MOL   H40227336   1.850   3.567   5.563  0.4269 -0.4435  1.7094
   69MOL     C127337   0.806   7.852   6.309  0.2101  0.4727  0.2500
   69MOL     C227338   0.724   7.967   6.278 -0.4874 -0.5441  0.4972
   69MOL     C327339   0.586   7.953   6.271 -0.1293 -0.6312  0.0837
   69MOL     C427340   0.500   0.023   6.240 -0.0884  0.0523  0.0650
   69MOL     C527341   0.556   0.155   6.221 -0.1948 -0.3524  0.5860
   69MOL     O627342   0.494   0.277   6.205  0.7171  0.3622 -0.1060
   69MOL     C727343   0.348   0.279   6.207  0.1794  0.4581 -0.0101
   69MOL     C827344   0.701   0.161   6.203  0.7366  0.0524 -0.0133
   69MOL     C927345   0.783   0.050   6.232  1.4483 -0.1603 -0.0577
   69MOL    C1027346   0.767   7.724   6.234 -0.3602 -0.7273  0.0518
   69MOL    H1127347   0.791   7.839   6.416 -1.7892 -0.6609 -0.1409
   69MOL    H1227348   0.539   7.862   6.308  0.2657  0.0143  2.2166
   69MOL    H1327349   0.395   0.006   6.258  0.1524 -1.9785 -0.2584
   69MOL    H1427350   0.313   0.254   6.307 -0.9000 -1.2219 -0.7886
   69MOL    H1527351   0.316   0.377   6.171  3.6159  1.5143 -0.3915
   69MOL    H1627352   0.302   0.202   6.145  2.1068 -0.8247  0.1018
   69MOL    H1727353   0.740   0.255   6.167  0.0217  0.7715  1.0521
   69MOL    H1827354   0.891   0.058   6.233  1.4536 -0.3676  1.3686
   69MOL    H1927355   0.713   7.675   6.315  0.9532 -2.2470  0.0258
   69MOL    H2027356   0.691   7.738   6.158  1.6685  0.8306 -1.7338
   69MOL    H2127357   0.909   7.883   6.293  0.0172  1.3119  0.5653
   69MOL    C2227358   0.886   7.650   6.170  0.4375  0.4887  0.3582
   69MOL    C2327359   1.005   7.625   6.261  0.5479 -0.0191  0.3956
   69MOL    C2427360   1.130   7.672   6.231  0.3892 -0.4094 -0.2171
   69MOL    C2527361   1.235   7.635   6.320  0.4767 -0.5941 -0.5591
   69MOL    C2627362   1.224   7.563   6.438 -0.3525  0.2907  0.0139
   69MOL    O2727363   1.318   7.534   6.529 -0.0104 -0.4600  0.1443
   69MOL    C2827364   1.438   7.607   6.528 -0.2512 -0.1302  0.4623
   69MOL    C2927365   1.096   7.515   6.471 -0.2637 -0.0925 -0.5828
   69MOL    C3027366   0.983   7.552   6.384  0.4626  0.0930  0.1851
   69MOL    C3127367   0.835   7.522   6.096 -0.0620 -0.0912  0.2590
   69MOL    H3227368   0.923   7.724   6.099  0.9234  1.5674  1.7212
   69MOL    H3327369   1.160   7.732   6.146 -1.9220 -1.6564 -1.9565
   69MOL    H3427370   1.337   7.659   6.295  0.2244 -0.3095 -1.3275
   69MOL    H3527371   1.505   7.566   6.452  1.6978  0.1962  1.9693
   69MOL    H3627372   1.499   7.583   6.615  0.6688 -0.3262 -0.2353
   69MOL    H3727373   1.435   7.713   6.505  1.3321  0.0733  1.1304
   69MOL    H3827374   1.090   7.456   6.561  2.8778  2.9414  1.7783
   69MOL    H3927375   0.885   7.514   6.408  0.9284 -1.5606 -0.4346
   69MOL    H4027376   0.807   7.457   6.179  0.7362 -1.6268 -0.6605
   69MOL    H4127377   0.748   7.546   6.035  0.6558  0.2394 -0.6434
   69MOL    C4227378   0.938   7.453   6.003  0.1794 -0.0723  0.0692
   69MOL    C4327379   0.999   7.553   5.913 -0.1000 -0.5340 -0.0590
   69MOL    C4427380   0.917   7.626   5.825  0.3886 -0.0721  0.0068
   69MOL    C4527381   0.971   7.728   5.741 -0.0679 -0.6286 -0.0813
   69MOL    C4627382   1.107   7.753   5.750 -0.0647 -0.1110 -0.6565
   69MOL    O4727383   1.165   7.840   5.659  0.6471  0.1263 -0.7971
   69MOL    C4827384   1.100   7.856   5.536 -0.4664 -0.2739 -0.2155
   69MOL    C4927385   1.193   7.686   5.838  0.5282 -0.3056 -0.1360
   69MOL    C5027386   1.138   7.586   5.918 -0.7560 -0.5751 -0.0088
   69MOL    C5127387   0.883   7.326   5.934  0.3302  0.2781 -0.2590
   69MOL    H5227388   1.023   7.434   6.068  0.3533  0.4232 -0.0043
   69MOL    H5327389   0.811   7.610   5.838  0.1192  2.1583  0.8227
   69MOL    H5427390   0.901   7.772   5.672 -0.0796  0.7546  0.7882
   69MOL    H5527391   1.013   7.921   5.535 -0.8961 -0.8485 -1.0783
   69MOL    H5627392   1.180   7.888   5.469  0.9682 -1.0354  1.0988
   69MOL    H5727393   1.067   7.758   5.499  1.7173 -1.0866 -0.1013
   69MOL    H5827394   1.298   7.712   5.835  0.7222 -1.1004 -0.7363
   69MOL    H5927395   1.196   7.553   6.003 -0.5196  0.8932  0.4223
   69MOL    H6027396   0.968   7.275   5.886  0.7709  1.0891 -0.3425
   69MOL    H6127397   0.808   7.362   5.864  0.0800  0.9400  0.3531
   69MOL    C6227398   0.832   7.224   6.037 -0.4710 -0.4659 -0.1541
   69MOL    C6327399   0.942   7.166   6.122 -0.2789 -0.1012  0.6871
   69MOL    C6427400   1.036   7.072   6.077  0.3140  0.5751  0.1646
   69MOL    C6527401   1.141   7.030   6.162  0.0815  0.1421  0.2855
   69MOL    C6627402   1.144   7.064   6.301  0.2638 -0.5543  0.1842
   69MOL    O6727403   1.229   7.011   6.392 -0.1719 -0.2517 -0.7017
   69MOL    C6827404   1.336   6.928   6.337  0.5188  0.5178  0.0554
   69MOL    C6927405   1.039   7.141   6.346 -0.2205  0.3404 -0.9554
   69MOL    C7027406   0.942   7.194   6.264 -0.1253  0.6652  0.0906
   69MOL    C7127407   0.758   7.110   5.967 -0.2734 -0.4074  0.4187
   69MOL    H7227408   0.758   7.279   6.095 -0.3246 -1.5792  1.1334
   69MOL    H7327409   1.036   7.035   5.975  0.1959 -0.2637  0.4668
   69MOL    H7427410   1.226   6.970   6.133  0.1232  0.1038  0.4821
   69MOL    H7527411   1.390   6.885   6.421 -0.5884 -1.7342 -0.3646
   69MOL    H7627412   1.409   6.988   6.282  0.1989 -0.7847 -1.8111
   69MOL    H7727413   1.307   6.845   6.273 -0.6237  1.5487 -0.7898
   69MOL    H7827414   1.027   7.185   6.444 -0.3221  3.7782 -2.4272
   69MOL    H7927415   0.860   7.256   6.295  0.2066  1.2810 -0.2620
   69MOL    H8027416   0.799   7.094   5.867  1.1185  1.7967  0.6012
   69MOL    H8127417   0.777   7.013   6.013 -1.0817 -0.2831  1.0091
   69MOL    C8227418   0.602   7.129   5.936 -0.0503 -0.3355 -0.0729
   69MOL    C8327419   0.569   7.060   5.807  0.0158  0.0442  0.2035
   69MOL    C8427420   0.587   6.917   5.795 -0.2099 -0.2619 -0.0359
   69MOL    C8527421   0.547   6.854   5.676  0.3230  0.3260  0.3698
   69MOL    C8627422   0.499   6.918   5.566 -0.5551  0.5306 -0.1588
   69MOL    O8727423   0.476   6.841   5.456  0.0928 -0.3988 -0.2275
   69MOL    C8827424   0.410   6.889   5.340 -0.6814  0.1013 -0.3219
   69MOL    C8927425   0.473   7.058   5.574 -0.0148  0.1597  0.1339
   69MOL    C9027426   0.512   7.129   5.697 -0.0981  0.2835 -0.4255
   69MOL    C9127427   0.518   7.089   6.058 -0.1098 -0.4513 -0.0042
   69MOL    H9227428   0.583   7.236   5.921  0.3947  0.0530  2.0139
   69MOL    H9327429   0.611   6.873   5.891 -1.4312  1.8812  1.3063
   69MOL    H9427430   0.564   6.748   5.669 -2.9998 -0.2397 -0.1430
   69MOL    H9527431   0.438   6.993   5.320 -0.5563  0.3657  1.1624
   69MOL    H9627432   0.302   6.887   5.350 -0.5230  1.1079  2.0298
   69MOL    H9727433   0.433   6.840   5.246  0.4165 -2.0611  1.0260
   69MOL    H9827434   0.440   7.116   5.488  1.2205 -0.3890 -0.7255
   69MOL    H9927435   0.506   7.237   5.705  1.8392  0.2761  1.4095
   69MOL   H10027436   0.520   6.983   6.087  0.0194  0.1051  2.1174
   69MOL   H10127437   0.578   7.139   6.134  3.1182 -2.0823 -1.3816
   69MOL   C10227438   0.377   7.153   6.067  0.4640  0.4559 -0.5096
   69MOL   C10327439   0.274   7.090   5.978  0.1801  0.2005  0.6047
   69MOL   C10427440   0.186   7.178   5.903 -0.7883  0.2385  0.2060
   69MOL   C10527441   0.081   7.123   5.826  0.3448 -0.1802 -0.4352
   69MOL   C10627442   0.060   6.981   5.828  0.4454  0.2688  0.1382
   69MOL   O10727443   7.999   6.911   5.763 -0.0628 -0.9167 -0.1696
   69MOL   C10827444   7.886   6.981   5.738  0.8143  0.6411 -0.3299
   69MOL   C10927445   0.142   6.904   5.910 -0.9679  0.1111  0.2489
   69MOL   C11027446   0.258   6.952   5.970  0.1924  0.0589  0.2486
   69MOL   C11127447   0.331   7.152   6.219  0.1456  0.3007  0.0776
   69MOL   H11227448   0.389   7.253   6.026 -0.5325  0.6655 -0.2974
   69MOL   H11327449   0.180   7.285   5.916  0.3501  0.4396 -0.8934
   69MOL   H11427450   0.014   7.192   5.775  2.0393  1.8394 -0.0123
   69MOL   H11527451   7.839   7.012   5.831 -0.5377 -1.8486 -0.1116
   69MOL   H11627452   7.894   7.068   5.674 -0.7156 -0.0179 -1.4563
   69MOL   H11727453   7.804   6.921   5.696 -0.3480  1.4148  0.7781
   69MOL   H11827454   0.128   6.797   5.918  0.4826 -0.3314 -2.4786
   69MOL   H11927455   0.327   6.885   6.019 -0.7217 -0.2710  1.1015
   69MOL   H12027456   0.318   7.047   6.243  3.7755  0.3996  2.9242
   69MOL   H12127457   0.414   7.190   6.278  1.3565  1.8218 -2.5126
   69MOL   C12227458   0.212   7.235   6.257  1.0368 -0.4910  0.2608
   69MOL   C12327459   0.219   7.388   6.229 -0.2718  0.2381 -0.3321
   69MOL   C12427460   0.329   7.458   6.285  0.0067  0.9289  0.7383
   69MOL   C12527461   0.338   7.595   6.263  0.0424 -0.2895 -0.6141
   69MOL   C12627462   0.248   7.667   6.187  0.3585  0.2487  0.1599
   69MOL   O12727463   0.281   7.796   6.164  0.0952  0.7897  0.6146
   69MOL   C12827464   0.203   7.862   6.072 -0.0034  0.4607  0.2363
   69MOL   C12927465   0.128   7.597   6.155  0.4021  0.1368  0.1885
   69MOL   C13027466   0.113   7.455   6.168  0.0190 -1.0256  0.1582
   69MOL   C13127467   0.160   7.199   6.407  0.3477  0.4661 -0.3882
   69MOL   H13227468   0.138   7.199   6.185  2.6918 -1.2095 -1.1225
   69MOL   H13327469   0.406   7.409   6.344  0.9342  0.2545 -0.9949
   69MOL   H13427470   0.428   7.644   6.298  1.1444 -0.4978 -3.0278
   69MOL   H13527471   0.246   7.952   6.028  0.1690 -0.4121 -1.4429
   69MOL   H13627472   0.181   7.808   5.980 -0.0441 -1.7932  1.5281
   69MOL   H13727473   0.108   7.895   6.114 -2.1168 -2.7151 -1.7778
   69MOL   H13827474   0.053   7.654   6.103  0.4826 -0.4013 -0.5257
   69MOL   H13927475   0.026   7.408   6.126 -0.9312  1.6933 -1.0666
   69MOL   H14027476   0.208   7.265   6.479 -0.1045 -1.3387  1.6035
   69MOL   H14127477   0.203   7.102   6.432  0.8907  0.9045  0.3946
   69MOL   C14227478   0.010   7.214   6.432  0.5567  0.0307  0.2347
   69MOL   C14327479   7.968   7.151   6.317 -0.0370  0.5507 -0.6371
   69MOL   C14427480   8.002   7.028   6.273 -0.0640  0.3095 -0.4737
   69MOL   C14527481   7.935   6.970   6.164  0.6959  0.0696 -0.1547
   69MOL   C14627482   7.815   7.024   6.116 -0.2160  0.3983 -0.3365
   69MOL   O14727483   7.728   6.956   6.037 -0.0936 -0.7266  0.7274
   69MOL   C14827484   7.585   6.994   6.050 -1.2358  0.1169  0.5624
   69MOL   C14927485   7.788   7.154   6.169 -0.0636  0.4286  0.0740
   69MOL   C15027486   7.864   7.220   6.265  0.0188  0.0849 -0.5712
   69MOL   C15127487   8.013   7.142   6.563  0.0854 -0.6139 -0.5314
   69MOL   H15227488   8.022   7.319   6.437  1.5316  0.1999  3.4290
   69MOL   H15327489   0.057   6.984   6.300 -0.0372  0.7125  0.1117
   69MOL   H15427490   7.959   6.873   6.123  0.8186  0.2251 -0.4500
   69MOL   H15527491   7.571   7.097   6.018  0.1462  0.7090  1.7740
   69MOL   H15627492   7.538   6.914   5.992 -0.5207 -1.3629  1.9921
   69MOL   H15727493   7.560   6.994   6.156 -0.2030  2.6818  0.8671
   69MOL   H15827494   7.698   7.205   6.138  0.4136  0.3287 -1.5396
   69MOL   H15927495   7.835   7.317   6.301 -2.3309 -1.8071  2.9098
   69MOL   H16027496   0.035   7.054   6.576  1.9503  0.7947  0.3556
   69MOL   H16127497   7.908   7.115   6.552 -0.4698  2.3958 -3.6314
   69MOL   C16227498   8.030   7.227   6.691 -0.7299 -0.3911 -0.5535
   69MOL   C16327499   0.063   7.137   6.798 -0.2703  0.9316 -0.1559
   69MOL   C16427500   8.036   7.025   6.842 -0.3494  0.8837  0.3897
   69MOL   C16527501   0.051   6.944   6.945  0.1267  0.0690  0.3285
   69MOL   C16627502   0.164   6.993   7.017 -0.0884 -0.0584 -0.0812
   69MOL   O16727503   0.230   6.934   7.125 -0.1610  0.5496  0.7063
   69MOL   C16827504   0.183   6.800   7.164 -0.3633  0.2141  0.2129
   69MOL   C16927505   0.222   7.110   6.978 -0.2988  0.2904 -0.4988
   69MOL   C17027506   0.170   7.190   6.877  0.4715 -0.4399 -0.2145
   69MOL   C17127507   7.891   7.281   6.733  0.4583  0.1181  0.2728
   69MOL   H17227508   0.050   7.316   6.672 -0.0995 -0.8085 -0.5270
   69MOL   H17327509   7.950   6.990   6.787  0.3413  1.4566 -1.0785
   69MOL   H17427510   0.006   6.854   6.983 -0.9100  1.3043  2.1120
   69MOL   H17527511   0.082   6.778   7.196 -0.9567  1.3648 -0.8132
   69MOL   H17627512   0.248   6.772   7.247  1.1350 -1.4754 -1.4793
   69MOL   H17727513   0.197   6.719   7.092 -0.5383  1.7414 -1.5693
   69MOL   H17827514   0.309   7.157   7.022 -0.7037  3.2818 -2.7273
   69MOL   H17927515   0.205   7.286   6.843 -0.0291 -0.0188  0.4462
   69MOL   H18027516   7.905   7.308   6.838 -1.6787  0.5383  0.4635
   69MOL   H18127517   7.810   7.208   6.730 -1.8409  2.5784  0.5161
   69MOL   C18227518   7.844   7.409   6.658  0.4155  0.7149  0.0032
   69MOL   C18327519   7.951   7.518   6.644  0.7336  0.4749 -0.0701
   69MOL   C18427520   7.998   7.578   6.760 -0.2296 -0.5740 -0.1601
   69MOL   C18527521   0.045   7.688   6.754 -0.4540 -0.6477 -0.1809
   69MOL   C18627522   0.089   7.743   6.633 -0.5086 -0.4564  0.4541
   69MOL   O18727523   0.180   7.843   6.637 -0.1447  0.5673  0.2900
   69MOL   C18827524   0.226   7.890   6.510  0.2536 -0.2456  0.8422
   69MOL   C18927525   0.035   7.681   6.513 -0.3999 -0.4261 -0.1685
   69MOL   C19027526   7.980   7.575   6.518  0.3590  0.1692 -0.6077
   69MOL   C19127527   7.712   7.455   6.727  0.0766 -0.7784  1.0747
   69MOL   H19227528   7.815   7.375   6.558 -3.1761 -2.0777  1.9244
   69MOL   H19327529   7.975   7.527   6.853 -0.4773 -2.0991 -1.0445
   69MOL   H19427530   0.075   7.723   6.851 -0.8870  0.9374 -0.6155
   69MOL   H19527531   0.306   7.959   6.538  1.0216 -0.8101  0.0785
   69MOL   H19627532   0.149   7.950   6.461 -1.3277  0.6962  4.3632
   69MOL   H19727533   0.275   7.814   6.448  1.2951  0.4805  0.7524
   69MOL   H19827534   0.055   7.727   6.417 -0.7508  1.2886  0.5634
   69MOL   H19927535   7.932   7.538   6.429  3.3425 -0.6117 -1.9666
   69MOL   H20027536   7.656   7.363   6.736  1.0557 -1.3299  1.6905
   69MOL   H20127537   7.721   7.486   6.832 -1.5851  2.0393  0.4338
   69MOL   C20227538   7.626   7.567   6.666 -0.0848  0.4225  0.1031
   69MOL   C20327539   7.533   7.640   6.771 -0.4479  1.0528 -0.5460
   69MOL   C20427540   7.579   7.760   6.830 -0.0833  0.4322  0.0633
   69MOL   C20527541   7.496   7.834   6.922  0.0730  0.0134  0.3645
   69MOL   C20627542   7.361   7.798   6.941 -0.9705 -0.0336  0.4978
   69MOL   O20727543   7.269   7.871   7.013 -0.0850  0.2141 -0.1710
   69MOL   C20827544   7.281   8.014   7.009  0.3195  0.1189  0.3820
   69MOL   C20927545   7.321   7.677   6.882 -0.0792 -0.6709 -0.4634
   69MOL   C21027546   7.405   7.597   6.800 -0.0244  0.4670 -0.0666
   69MOL   C21127547   7.547   7.513   6.544  0.5231  0.8364  0.0022
   69MOL   H21227548   7.700   7.635   6.624  0.4202  1.3834  2.4919
   69MOL   H21327549   7.678   7.791   6.799  1.0370 -1.0326  2.0908
   69MOL   H21427550   7.529   7.921   6.976 -1.7430  1.0191 -0.0991
   69MOL   H21527551   7.272   0.006   6.905 -0.0968 -1.1441  0.0122
   69MOL   H21627552   7.207   0.025   7.070 -0.7300 -0.0875 -0.7017
   69MOL   H21727553   7.382   0.004   7.035  0.8747 -0.6241 -0.8572
   69MOL   H21827554   7.220   7.641   6.896 -0.4842  1.4100  2.2859
   69MOL   H21927555   7.364   7.505   6.761 -0.3266  0.5948 -0.0480
   69MOL   H22027556   7.462   7.455   6.580  1.0432  0.5050  0.7193
   69MOL   H22127557   7.611   7.444   6.490 -2.0004 -0.2188 -1.7098
   69MOL   C22227558   7.495   7.632   6.453 -0.8038 -0.7974  0.1436
   69MOL   C22327559   7.591   7.673   6.342  0.4403  0.2389  0.1160
   69MOL   C22427560   7.625   7.810   6.341 -0.5480  0.4651 -0.0807
   69MOL   C22527561   7.709   7.862   6.238  0.3834  0.1130 -0.2456
   69MOL   C22627562   7.768   7.770   6.150 -0.5251 -0.6069  0.8017
   69MOL   O22727563   7.858   7.833   6.062  0.6358 -0.7478  0.0335
   69MOL   C22827564   7.880   7.767   5.941  0.5405  0.2683  0.2660
   69MOL   C22927565   7.735   7.630   6.153 -0.3693  0.3964 -0.3231
   69MOL   C23027566   7.648   7.581   6.256  0.6309  0.7335 -0.2449
   69MOL   C23127567   7.364   7.592   6.393 -0.2300 -0.1094 -0.0384
   69MOL   H23227568   7.477   7.720   6.515 -0.6562 -1.1098  0.6285
   69MOL   H23327569   7.587   7.877   6.417  1.4243  1.2767  0.2078
   69MOL   H23427570   7.724   7.969   6.238  1.7021 -0.0293  2.4290
   69MOL   H23527571   7.925   7.832   5.866  1.7351  2.3759  2.7225
   69MOL   H23627572   7.932   7.673   5.955 -1.4007 -1.0298 -1.0541
   69MOL   H23727573   7.779   7.756   5.902  0.2619 -0.0917  1.0690
   69MOL   H23827574   7.781   7.559   6.085  1.9036  2.0628 -0.5577
   69MOL   H23927575   7.609   7.480   6.255 -2.5902  1.9080  1.3366
   69MOL   H24027576   7.395   7.515   6.323  0.6895  0.0565  0.1793
   69MOL   H24127577   7.300   7.548   6.470  0.8185 -1.0461  0.3036
   69MOL   C24227578   7.295   7.705   6.316 -0.4253 -0.4905  0.5840
   69MOL   C24327579   7.223   7.656   6.195 -0.3756 -0.2571 -0.3520
   69MOL   C24427580   7.283   7.655   6.070 -0.5622 -0.3132  0.0893
   69MOL   C24527581   7.215   7.608   5.960  0.2825  0.3392  0.1368
   69MOL   C24627582   7.078   7.560   5.970 -0.3205 -1.0604  0.0218
   69MOL   O24727583   7.027   7.533   5.847  0.1402 -0.7179  0.6617
   69MOL   C24827584   6.904   7.465   5.846  0.3706  0.6790  0.0103
   69MOL   C24927585   7.017   7.570   6.098  1.5449 -0.0543  0.0640
   69MOL   C25027586   7.087   7.612   6.209  0.4908  0.6038 -0.3260
   69MOL   C25127587   7.216   7.801   6.413 -0.0272 -0.2756  0.1976
   69MOL   H25227588   7.381   7.764   6.284 -0.0647 -1.2855  0.0644
   69MOL   H25327589   7.388   7.676   6.052 -0.8142  0.6451 -0.2799
   69MOL   H25427590   7.260   7.601   5.862 -0.6238  0.6474 -0.3109
   69MOL   H25527591   6.887   7.389   5.923 -0.0171  1.5522  0.7925
   69MOL   H25627592   6.824   7.536   5.865 -2.5263 -2.2481 -0.7376
   69MOL   H25727593   6.873   7.430   5.747  3.2850 -1.0687 -0.3511
   69MOL   H25827594   6.913   7.540   6.105  1.8424 -0.9230  0.9561
   69MOL   H25927595   7.041   7.618   6.306  0.3762  2.3214 -0.4739
   69MOL   H26027596   7.288   7.830   6.490  1.3433 -1.8953 -0.4197
   69MOL   H26127597   7.141   7.738   6.461 -0.7385  1.2095  1.0474
   69MOL   C26227598   7.151   7.922   6.344  0.6050  0.0669  0.0363
   69MOL   C26327599   7.259   8.009   6.279  0.1848 -0.5480 -0.6723
   69MOL   C26427600   7.365   0.017   6.354 -0.0130 -0.6109 -0.1972
   69MOL   C26527601   7.471   0.088   6.281  0.7447  0.1269 -0.9044
   69MOL   C26627602   7.450   0.131   6.144 -0.3383  0.1793  0.7087
   69MOL   O26727603   7.547   0.216   6.088 -0.4718 -0.3109  0.1577
   69MOL   C26827604   7.489   0.322   6.016 -0.2018  0.2494  0.4608
   69MOL   C26927605   7.331   0.088   6.076  0.3361  0.2634  0.4823
   69MOL   C27027606   7.244   0.001   6.142  0.1906  0.5181  0.4743
   69MOL   C27127607   7.058   8.009   6.432  0.5064 -0.6284  0.2460
   69MOL   H27227608   7.083   7.887   6.267 -1.0701  2.6647  0.2784
   69MOL   H27327609   7.374   0.009   6.461  0.1652  1.6380 -0.0106
   69MOL   H27427610   7.555   0.117   6.342 -1.2574  2.3411  0.9226
   69MOL   H27527611   7.566   0.397   5.994 -0.6520  0.6836  0.3566
   69MOL   H27627612   7.408   0.373   6.067 -1.1277 -1.2167  0.4653
   69MOL   H27727613   7.445   0.289   5.922  1.5729 -0.0545 -0.2800
   69MOL   H27827614   7.306   0.118   5.976  3.5476  0.1507 -0.4143
   69MOL   H27927615   7.166   7.995   6.084 -0.3786 -0.0308  1.6799
   69MOL   H28027616   6.980   7.947   6.476  0.0507 -0.2338 -0.0030
   69MOL   H28127617   7.122   8.038   6.516 -0.6645 -0.2656  1.0252
   69MOL   C28227618   6.998   0.100   6.375 -0.1378 -0.3941 -0.8110
   69MOL   C28327619   6.986   0.210   6.474 -0.2100 -0.7187 -0.1009
   69MOL   C28427620   6.869   0.276   6.521  0.6059  0.8791  0.4217
   69MOL   C28527621   6.874   0.382   6.614 -0.1593  0.0406  0.6227
   69MOL   C28627622   6.995   0.428   6.666  0.2307 -0.6281 -0.2180
   69MOL   O28727623   6.986   0.530   6.761 -0.6911  0.1602 -0.1345
   69MOL   C28827624   7.100   0.614   6.765  0.3037 -0.1034 -0.2651
   69MOL   C28927625   7.116   0.368   6.616 -0.4968  0.7350  0.7135
   69MOL   C29027626   7.108   0.258   6.526  0.8686 -0.0951  0.6304
   69MOL   C29127627   6.880   0.079   6.275 -0.1990 -0.0403 -0.6482
   69MOL   H29227628   7.076   0.135   6.307 -1.3677  0.0898 -1.9952
   69MOL   H29327629   6.771   0.249   6.483 -0.6655  4.3521  1.0811
   69MOL   H29427630   6.793   0.442   6.654  0.0094  0.2056  0.7186
   69MOL   H29527631   7.080   0.705   6.822  2.1611 -1.0367  1.9912
   69MOL   H29627632   7.177   0.558   6.818  2.7664  0.1869 -3.3813
   69MOL   H29727633   7.135   0.629   6.663 -0.1169  0.2028 -0.3637
   69MOL   H29827634   7.212   0.408   6.648 -0.2433  0.0846  0.7764
   69MOL   H29927635   7.203   0.212   6.501 -0.0905 -2.0894  0.4942
   69MOL   H30027636   6.906   0.001   6.203 -1.8888 -2.4091  1.1940
   69MOL   H30127637   6.791   0.056   6.335  0.6383  1.2428  1.1354
   69MOL   C30227638   6.850   0.204   6.193  0.6559 -0.3140 -0.4050
   69MOL   C30327639   6.953   0.244   6.085  0.1872  0.0835 -0.3336
   69MOL   C30427640   6.979   0.162   5.971 -0.1049  0.1973 -0.4319
   69MOL   C30527641   7.072   0.196   5.871 -0.3035  0.0189 -0.1345
   69MOL   C30627642   7.148   0.314   5.886 -0.2226  0.3626  0.5411
   69MOL   O30727643   7.233   0.351   5.789 -0.3303 -0.4145  0.2611
   69MOL   C30827644   7.266   0.264   5.679  0.1428  0.1264 -0.2222
   69MOL   C30927645   7.126   0.390   6.001  0.7562 -0.0200 -0.5811
   69MOL   C31027646   7.026   0.362   6.101 -0.2726  0.2843  0.0788
   69MOL   C31127647   6.714   0.202   6.125  0.2072  1.0692 -0.1156
   69MOL   H31227648   6.838   0.280   6.269 -1.2452 -2.0123  1.0578
   69MOL   H31327649   6.917   0.075   5.957 -0.6930  0.4515  0.5531
   69MOL   H31427650   7.075   0.130   5.786 -0.2625  0.1852 -0.2614
   69MOL   H31527651   7.322   0.322   5.604 -0.1171  0.0605 -0.4676
   69MOL   H31627652   7.182   0.228   5.621  0.3488 -0.0531 -0.4103
   69MOL   H31727653   7.330   0.182   5.711 -0.1458 -0.0359 -0.0703
   69MOL   H31827654   7.180   0.477   6.037  0.0606  0.7057 -1.2810
   69MOL   H31927655   7.001   0.425   6.184  0.7945  0.7842  0.0307
   69MOL   H32027656   6.644   0.154   6.193  1.4660 -2.7784 -1.4286
   69MOL   H32127657   6.712   0.128   6.045 -0.9925  2.4032 -1.3701
   69MOL   C32227658   6.642   0.335   6.089  0.7258  0.0731 -0.2109
   69MOL   C32327659   6.626   0.423   6.206  0.0040  0.5490  0.8512
   69MOL   C32427660   6.546   0.377   6.312  0.6683 -0.1126 -0.5996
   69MOL   C32527661   6.540   0.457   6.427  0.5627 -0.2795 -0.3195
   69MOL   C32627662   6.611   0.574   6.440  0.0597  0.7543  0.0747
   69MOL   O32727663   6.594   0.639   6.557  0.3449  0.0660 -0.0853
   69MOL   C32827664   6.685   0.759   6.578  0.0959 -0.5226 -0.1603
   69MOL   C32927665   6.678   0.621   6.323 -0.3808  0.0629  0.1670
   69MOL   C33027666   6.686   0.548   6.208  0.0849  0.4670  0.1546
   69MOL   C33127667   6.507   0.320   6.006 -0.4212 -0.5208 -0.3937
   69MOL   H33227668   6.702   0.386   6.014 -1.8495  3.8454  0.1631
   69MOL   H33327669   6.497   0.280   6.310 -0.2537  0.3425 -0.1598
   69MOL   H33427670   6.481   0.431   6.513 -0.6753 -1.0110 -1.3699
   69MOL   H33527671   6.656   0.814   6.668  2.3377 -0.5008  0.5840
   69MOL   H33627672   6.676   0.831   6.496 -2.4957 -1.3950 -0.6983
   69MOL   H33727673   6.789   0.729   6.591  0.3691  0.9360  1.2024
   69MOL   H33827674   6.726   0.718   6.324 -0.3020  0.0219  0.3304
   69MOL   H33927675   6.730   0.583   6.116  0.3352 -1.8018 -0.6402
   69MOL   H34027676   6.432   0.260   6.058  1.6227 -1.1479  1.8777
   69MOL   H34127677   6.455   0.416   6.008  1.8107  0.6881  1.8927
   69MOL   C34227678   6.527   0.267   5.860  0.2279  0.2655  0.3094
   69MOL   C34327679   6.622   0.366   5.785 -0.0599  0.0342 -0.3223
   69MOL   C34427680   6.754   0.326   5.749 -0.5078  0.3195  0.7722
   69MOL   C34527681   6.836   0.420   5.684  0.6820 -0.4714  0.4781
   69MOL   C34627682   6.788   0.550   5.663 -0.6859  0.7236  0.0251
   69MOL   O34727683   6.878   0.639   5.613 -0.1431  0.3623  0.2864
   69MOL   C34827684   7.013   0.604   5.581  0.3002 -0.5184  0.9085
   69MOL   C34927685   6.660   0.589   5.693  0.4351 -0.8116 -0.3051
   69MOL   C35027686   6.570   0.496   5.756  0.2205  0.6659 -0.7477
   69MOL   C35127687   6.401   0.245   5.786 -0.0002  0.0499  0.1052
   69MOL   H35227688   6.582   0.173   5.862  2.1712  1.2694 -2.5146
   69MOL   H35327689   6.799   0.236   5.788 -0.9278  0.3042  1.2267
   69MOL   H35427690   6.938   0.392   5.663  0.8664  1.2852 -1.1300
   69MOL   H35527691   7.062   0.574   5.674 -0.0000 -0.5449  1.0567
   69MOL   H35627692   7.019   0.521   5.511 -0.4093  1.0647 -1.0564
   69MOL   H35727693   7.070   0.688   5.541  0.8873 -1.2207  0.2560
   69MOL   H35827694   6.634   0.693   5.682 -0.0305 -0.5798  2.5668
   69MOL   H35927695   6.472   0.531   5.787 -0.2737 -0.9968 -0.4012
   69MOL   H36027696   6.347   0.170   5.844 -1.6607  0.8349 -0.3787
   69MOL   H36127697   6.341   0.336   5.786 -1.9542 -1.1972 -1.4261
   69MOL   C36227698   6.412   0.207   5.640 -0.4775 -0.5789  0.1431
   69MOL   C36327699   6.275   0.205   5.584 -0.5843  0.4644 -0.8508
   69MOL   C36427700   6.191   0.094   5.608  0.2474  0.3306  0.2299
   69MOL   C36527701   6.064   0.090   5.548 -0.3033  0.6099  0.1361
   69MOL   C36627702   6.020   0.190   5.468 -0.5022  0.2235 -0.4997
   69MOL   O36727703   5.897   0.184   5.409  0.1979 -0.0499  0.2862
   69MOL   C36827704   5.818   0.063   5.426 -0.1963 -0.0641 -0.4706
   69MOL   C36927705   6.097   0.306   5.442  0.4716  0.4177 -1.3543
   69MOL   C37027706   6.224   0.312   5.507  0.3495  0.6617 -0.2907
   69MOL   C37127707   6.486   0.072   5.615  0.0529 -0.1970  0.3363
   69MOL   H37227708   6.465   0.284   5.585 -1.0473  0.0458  0.4728
   69MOL   H37327709   6.213   0.016   5.679 -1.2313  0.8004  1.2243
   69MOL   H37427710   6.006   0.003   5.577  0.6414  0.4864  1.6956
   69MOL   H37527711   5.718   0.074   5.385  0.5400 -2.4033 -3.0331
   69MOL   H37627712   5.871   8.022   5.375 -1.0051 -1.4935  0.9090
   69MOL   H37727713   5.800   0.041   5.531  2.1756 -2.5095 -0.5042
   69MOL   H37827714   6.058   0.389   5.385  0.7871  0.0630 -2.0941
   69MOL   H37927715   6.286   0.399   5.490 -0.5030  1.0377 -1.5127
   69MOL   H38027716   6.580   0.064   5.669 -0.0583  0.1140  0.5746
   69MOL   H38127717   6.426   8.024   5.641  0.3526  0.0101  1.7595
   69MOL   C38227718   6.523   0.054   5.471  0.3843 -0.0649 -0.4468
   69MOL   C38327719   6.624   0.160   5.418 -0.7165  0.6546 -0.4466
   69MOL   C38427720   6.574   0.270   5.347  0.0704  0.6491 -0.0500
   69MOL   C38527721   6.664   0.362   5.296  0.4677  0.1043 -0.3774
   69MOL   C38627722   6.802   0.347   5.310  0.2593 -0.0524  0.4518
   69MOL   O38727723   6.895   0.436   5.257  0.6361 -0.6404 -0.2280
   69MOL   C38827724   6.854   0.571   5.250 -0.2441 -0.3992  0.6363
   69MOL   C38927725   6.850   0.243   5.386  0.3565 -0.3661 -0.4762
   69MOL   C39027726   6.764   0.154   5.444  0.6559  0.2590  0.0346
   69MOL   C39127727   6.411   0.013   5.367 -0.2766  0.3567 -0.0144
   69MOL   H39227728   6.582   8.002   5.474 -2.0265 -1.6118  0.4535
   69MOL   H39327729   6.468   0.287   5.339 -0.0978 -0.4539 -0.2707
   69MOL   H39427730   6.616   0.439   5.239  0.1123 -0.0540 -0.2962
   69MOL   H39527731   6.819   0.606   5.347 -3.7062  0.7877 -0.9370
   69MOL   H39627732   6.771   0.583   5.180  0.3220 -0.9209 -0.1248
   69MOL   H39727733   6.929   0.647   5.228 -0.3050 -0.1560  1.2480
   69MOL   H39827734   6.955   0.222   5.399  0.3354 -0.5766 -0.6575
   69MOL   H39927735   6.806   0.073   5.502  1.1072  0.2659 -0.2846
   69MOL   H40027736   6.453   0.001   5.267 -3.4585  1.1107 -1.4846
   69MOL   H40127737   6.338   0.092   5.346 -1.5729 -0.7122  0.4212
   69MOL   H40227738   6.338   7.978   5.397 -1.2043  2.2908  2.7404
   70MOL     C127739   4.865   1.274   4.476  0.1068 -0.2224 -0.2604
   70MOL     C227740   4.931   1.175   4.566 -0.0881 -0.3307 -0.4931
   70MOL     C327741   5.052   1.208   4.630 -0.9887  0.0110  0.7238
   70MOL     C427742   5.119   1.124   4.716  0.0550 -0.5060  0.6195
   70MOL     C527743   5.063   0.994   4.747 -0.6116 -0.9914 -0.2650
   70MOL     O627744   5.130   0.911   4.834 -0.2927  0.3899 -0.0600
   70MOL     C727745   5.244   0.961   4.910  0.1425 -0.1178 -0.1234
   70MOL     C827746   4.936   0.961   4.682  0.1287  0.2451 -0.0545
   70MOL     C927747   4.871   1.050   4.594 -0.3439  0.5002  0.1129
   70MOL    C1027748   4.954   1.315   4.358  0.5359 -0.0700  0.0086
   70MOL    H1127749   4.841   1.365   4.531 -0.0347  0.6561 -1.7448
   70MOL    H1227750   5.100   1.303   4.615  1.6227 -1.4843 -0.6610
   70MOL    H1327751   5.218   1.147   4.753 -0.0119 -2.2719  1.9294
   70MOL    H1427752   5.230   1.056   4.963  1.3013  1.1363 -1.9935
   70MOL    H1527753   5.265   0.881   4.981  0.6480 -1.0507 -1.3031
   70MOL    H1627754   5.334   0.978   4.850  0.1983  0.1708  0.0420
   70MOL    H1727755   4.897   0.862   4.699 -0.3329  0.3965 -0.2169
   70MOL    H1827756   4.773   1.024   4.558 -0.2169 -0.4430  0.4388
   70MOL    H1927757   5.051   1.356   4.386 -0.1124  0.6917  1.2159
   70MOL    H2027758   4.982   1.222   4.310 -0.0932 -0.5377  0.5328
   70MOL    H2127759   4.771   1.230   4.440 -0.2725  1.4005 -1.2962
   70MOL    C2227760   4.891   1.399   4.240  0.6020 -1.1109  0.8495
   70MOL    C2327761   4.829   1.526   4.296 -0.2483 -0.1835 -0.9519
   70MOL    C2427762   4.690   1.551   4.289 -0.5029  0.1658  0.5971
   70MOL    C2527763   4.643   1.671   4.349  0.0216  0.2154  0.7923
   70MOL    C2627764   4.724   1.765   4.418 -0.0362 -0.0942  0.1977
   70MOL    O2727765   4.668   1.874   4.474 -0.3821 -0.4611  0.1408
   70MOL    C2827766   4.745   1.989   4.489 -1.5359  0.4982 -0.0357
   70MOL    C2927767   4.864   1.740   4.414  0.6400 -0.1088 -0.2088
   70MOL    C3027768   4.909   1.621   4.363 -0.3004  1.5985  0.8994
   70MOL    C3127769   4.992   1.417   4.130 -0.2234  0.1163  0.0236
   70MOL    H3227770   4.808   1.346   4.193 -1.0168 -0.8285  3.3327
   70MOL    H3327771   4.620   1.491   4.233  2.2186 -1.6340 -1.0009
   70MOL    H3427772   4.540   1.702   4.342  0.0393 -0.1933 -1.8674
   70MOL    H3527773   4.804   2.010   4.400 -0.9626 -2.3791 -0.3779
   70MOL    H3627774   4.818   1.982   4.569  0.5853  5.0529 -1.4108
   70MOL    H3727775   4.680   2.069   4.525 -1.6899 -0.0610  0.9251
   70MOL    H3827776   4.932   1.805   4.467  0.2410 -0.5512  0.8452
   70MOL    H3927777   5.015   1.604   4.373 -0.1638  1.0491 -1.2014
   70MOL    H4027778   5.088   1.447   4.170 -0.9155  1.3140  0.7971
   70MOL    H4127779   5.016   1.318   4.091  0.4076  1.2955 -2.6662
   70MOL    C4227780   4.958   1.516   4.023  0.0358 -1.1485 -0.0843
   70MOL    C4327781   4.820   1.479   3.956 -0.4936 -0.5780 -0.2847
   70MOL    C4427782   4.707   1.550   3.973 -0.0282 -0.1537 -0.2702
   70MOL    C4527783   4.587   1.522   3.896  0.1792  0.5051  0.4061
   70MOL    C4627784   4.591   1.412   3.802  0.2052  0.1809 -0.9079
   70MOL    O4727785   4.479   1.380   3.732  0.6512  0.0988  0.1638
   70MOL    C4827786   4.489   1.291   3.621 -0.0249  0.1339 -0.4626
   70MOL    C4927787   4.710   1.333   3.793 -0.8772  0.1725 -0.1886
   70MOL    C5027788   4.822   1.368   3.871  0.5270  0.2611 -0.1247
   70MOL    C5127789   5.076   1.535   3.927 -0.0413 -0.0992  0.4200
   70MOL    H5227790   4.941   1.614   4.067 -0.2578 -1.0951 -0.3098
   70MOL    H5327791   4.708   1.643   4.028  2.4238  1.0866 -2.2975
   70MOL    H5427792   4.496   1.580   3.904  0.1427  0.2592  1.9167
   70MOL    H5527793   4.550   1.350   3.551  1.2954  0.5649  1.0170
   70MOL    H5627794   4.524   1.190   3.638  0.6541  0.2491 -1.1462
   70MOL    H5727795   4.389   1.290   3.580 -0.5336  1.0567  0.7184
   70MOL    H5827796   4.704   1.256   3.718 -0.8937  1.9000 -2.0167
   70MOL    H5927797   4.914   1.312   3.864  1.6008  2.0004 -0.1565
   70MOL    H6027798   5.100   1.440   3.879  1.6187  0.0445  0.9406
   70MOL    H6127799   5.165   1.556   3.986  1.2461 -0.3865 -1.3820
   70MOL    C6227800   5.051   1.637   3.817 -0.5220 -0.1226  0.7616
   70MOL    C6327801   5.076   1.557   3.683 -0.4707  0.2765 -0.3295
   70MOL    C6427802   4.968   1.518   3.597  0.3962  0.0365 -0.2656
   70MOL    C6527803   5.001   1.441   3.485 -0.2682 -0.0685  0.5355
   70MOL    C6627804   5.136   1.409   3.453  0.5333  0.7639  0.4327
   70MOL    O6727805   5.180   1.350   3.336 -0.1289 -0.1758  0.1074
   70MOL    C6827806   5.094   1.310   3.235 -0.5549 -0.0586 -0.1918
   70MOL    C6927807   5.238   1.438   3.546 -0.1379  0.5593 -0.1429
   70MOL    C7027808   5.207   1.506   3.662 -0.2403  0.2072 -0.3743
   70MOL    C7127809   5.113   1.779   3.829 -1.5091  0.1772 -0.0442
   70MOL    H7227810   4.944   1.654   3.817 -0.4845  0.1237  1.7360
   70MOL    H7327811   4.862   1.537   3.607 -0.0667 -2.3451 -0.4595
   70MOL    H7427812   4.922   1.412   3.416  1.7951 -2.9125 -0.7339
   70MOL    H7527813   5.009   1.259   3.280 -0.3614  0.0979  0.3596
   70MOL    H7627814   5.141   1.249   3.158  1.1230 -0.0551  0.7838
   70MOL    H7727815   5.064   1.405   3.191  3.1348  0.8289 -0.9841
   70MOL    H7827816   5.342   1.419   3.525 -0.3499  1.4321 -2.1403
   70MOL    H7927817   5.291   1.538   3.721  0.5947 -3.7521  0.7600
   70MOL    H8027818   5.105   1.816   3.931  2.0830 -0.1034  0.3768
   70MOL    H8127819   5.217   1.777   3.799 -1.6399 -2.4446 -0.3918
   70MOL    C8227820   5.043   1.874   3.728  0.4234 -1.1194 -0.6358
   70MOL    C8327821   4.906   1.917   3.783 -0.5416 -0.5712 -0.0525
   70MOL    C8427822   4.850   1.888   3.907 -0.5338 -0.7686 -0.0203
   70MOL    C8527823   4.718   1.934   3.946 -0.1050 -0.0016 -0.5462
   70MOL    C8627824   4.641   2.009   3.856 -0.1577  0.3068 -0.1635
   70MOL    O8727825   4.511   2.048   3.874  1.1454 -0.3845 -0.2574
   70MOL    C8827826   4.478   2.102   4.003 -0.1374  0.1097  0.4233
   70MOL    C8927827   4.697   2.038   3.730 -0.1055 -0.0444  0.4705
   70MOL    C9027828   4.825   1.988   3.696 -0.0971 -0.3875 -0.5078
   70MOL    C9127829   5.137   1.992   3.704  0.1033 -0.7094 -0.0752
   70MOL    H9227830   5.022   1.831   3.630  1.1696  2.0390 -2.2507
   70MOL    H9327831   4.913   1.839   3.979  2.0877 -0.5284 -2.0504
   70MOL    H9427832   4.687   1.913   4.047  1.1967  4.2901  0.8301
   70MOL    H9527833   4.460   2.020   4.072  1.9007 -0.3336  0.4486
   70MOL    H9627834   4.386   2.161   4.005  0.0592  0.4065  0.7014
   70MOL    H9727835   4.558   2.167   4.039 -1.7300  1.8216  0.9432
   70MOL    H9827836   4.647   2.087   3.648  0.9673  2.3321  1.1811
   70MOL    H9927837   4.853   2.014   3.595 -1.0472 -3.4455 -1.6190
   70MOL   H10027838   5.088   2.089   3.693  0.1472 -0.2808  2.9618
   70MOL   H10127839   5.169   2.012   3.807 -1.8804 -1.8360  0.7966
   70MOL   C10227840   5.249   1.985   3.599  1.1958 -0.3170  0.2643
   70MOL   C10327841   5.188   1.941   3.464  0.2246 -0.0433 -1.0446
   70MOL   C10427842   5.217   1.822   3.405 -0.1305  0.1000 -0.6622
   70MOL   C10527843   5.147   1.780   3.287 -0.6431 -0.3547  0.1030
   70MOL   C10627844   5.065   1.870   3.221  0.1838 -0.8167  0.0197
   70MOL   O10727845   5.015   1.830   3.101  0.0212  0.2751  0.3744
   70MOL   C10827846   5.016   1.696   3.047 -0.5050 -0.0966  0.0533
   70MOL   C10927847   5.032   1.990   3.280  0.4973 -0.0999 -0.2579
   70MOL   C11027848   5.089   2.024   3.403 -0.0727 -0.7685 -0.1449
   70MOL   C11127849   5.340   2.111   3.596  0.0489 -0.1394 -0.1889
   70MOL   H11227850   5.311   1.905   3.641 -0.3861 -2.2146 -0.9412
   70MOL   H11327851   5.275   1.741   3.448 -1.1083 -2.0617 -3.2726
   70MOL   H11427852   5.172   1.681   3.254 -0.6420  0.0223 -1.0372
   70MOL   H11527853   4.933   1.642   3.093 -0.5464 -0.7204 -0.7366
   70MOL   H11627854   4.997   1.698   2.940  1.2455 -0.2896 -0.2670
   70MOL   H11727855   5.113   1.646   3.050 -0.9947 -1.0460  0.4578
   70MOL   H11827856   4.955   2.044   3.227  0.0086 -2.4605 -1.9929
   70MOL   H11927857   5.058   2.117   3.449  2.2956  0.4462 -0.9179
   70MOL   H12027858   5.340   2.124   3.488 -0.4674  0.1796 -0.1563
   70MOL   H12127859   5.285   2.193   3.643  1.9231  0.4839  0.9698
   70MOL   C12227860   5.485   2.113   3.647 -0.2532  0.0471  0.4044
   70MOL   C12327861   5.489   2.099   3.800 -0.4961 -0.7722  0.2391
   70MOL   C12427862   5.572   1.994   3.850  0.4065  0.0865 -1.2199
   70MOL   C12527863   5.600   1.980   3.990  0.2766  0.0566 -0.5938
   70MOL   C12627864   5.533   2.071   4.082  0.2759  0.1267  0.4069
   70MOL   O12727865   5.547   2.058   4.221 -0.5511  0.1509 -0.1790
   70MOL   C12827866   5.504   2.163   4.300  0.0974  0.6999 -0.2078
   70MOL   C12927867   5.449   2.172   4.027 -0.6569  0.1276 -0.7275
   70MOL   C13027868   5.428   2.180   3.889  0.0987 -0.2956  0.3464
   70MOL   C13127869   5.569   2.237   3.588 -0.7036 -0.0824  0.2779
   70MOL   H13227870   5.535   2.022   3.612  2.7862  0.9672  2.1812
   70MOL   H13327871   5.631   1.938   3.779 -0.6144  2.0299 -3.6936
   70MOL   H13427872   5.661   1.897   4.022 -0.4472 -0.6192 -0.9577
   70MOL   H13527873   5.548   2.261   4.281  0.2325  0.2660 -2.2211
   70MOL   H13627874   5.395   2.170   4.295  0.0389  0.3761  0.5505
   70MOL   H13727875   5.523   2.139   4.405  2.0921  0.6608 -0.5542
   70MOL   H13827876   5.390   2.241   4.085 -2.2585 -1.3566 -0.5426
   70MOL   H13927877   5.362   2.259   3.855 -0.5388 -0.7185  0.5941
   70MOL   H14027878   5.668   2.246   3.633 -0.1820 -1.3679 -0.5934
   70MOL   H14127879   5.523   2.330   3.622  1.2896  0.6735  0.9966
   70MOL   C14227880   5.586   2.224   3.430  0.5370  0.5415  0.9155
   70MOL   C14327881   5.677   2.331   3.377 -0.5704  0.1535  0.2837
   70MOL   C14427882   5.811   2.349   3.418  0.3430  0.3750 -0.5473
   70MOL   C14527883   5.887   2.451   3.363 -0.3325 -0.2361 -0.0630
   70MOL   C14627884   5.837   2.537   3.261 -0.0489 -0.0109  0.3253
   70MOL   O14727885   5.905   2.642   3.205  0.2875  0.1021 -0.3415
   70MOL   C14827886   6.045   2.644   3.213  0.2692  0.2316  0.1248
   70MOL   C14927887   5.705   2.512   3.219  0.3693  0.0680  0.4011
   70MOL   C15027888   5.626   2.417   3.279  0.0091  0.1173  0.4820
   70MOL   C15127889   5.620   2.081   3.374 -0.1408 -0.3501  0.0049
   70MOL   H15227890   5.486   2.247   3.395  0.7539 -1.3871 -1.0895
   70MOL   H15327891   5.862   2.290   3.492 -0.8428  0.3004  0.2101
   70MOL   H15427892   5.988   2.466   3.399 -0.0849 -0.1451 -0.7979
   70MOL   H15527893   6.073   2.735   3.160  1.3749 -0.2641 -0.1573
   70MOL   H15627894   6.087   2.640   3.313 -0.1935 -0.4697  0.2982
   70MOL   H15727895   6.091   2.564   3.156 -2.1010 -0.6451 -0.6038
   70MOL   H15827896   5.665   2.581   3.147 -1.9074 -0.7700  0.8310
   70MOL   H15927897   5.523   2.418   3.245  0.6764 -0.2657 -1.6507
   70MOL   H16027898   5.536   2.012   3.386 -1.0856  0.5981 -1.1465
   70MOL   H16127899   5.702   2.057   3.442  0.6787 -0.5084 -1.0296
   70MOL   C16227900   5.682   2.054   3.243 -0.0370  0.1940  0.0135
   70MOL   C16327901   5.583   2.060   3.124  0.1257 -0.6354 -0.8495
   70MOL   C16427902   5.593   2.152   3.021 -0.4216 -0.1725 -0.4834
   70MOL   C16527903   5.504   2.153   2.914  0.5428  0.4703 -0.3578
   70MOL   C16627904   5.391   2.067   2.909 -0.0447 -0.3605 -0.0593
   70MOL   O16727905   5.318   2.067   2.791  0.4875  0.2244 -0.3921
   70MOL   C16827906   5.214   1.977   2.770  0.1285 -0.7566  0.1751
   70MOL   C16927907   5.377   1.979   3.015 -0.4456 -0.4034 -0.2186
   70MOL   C17027908   5.470   1.970   3.116 -0.7121  0.1317  0.8343
   70MOL   C17127909   5.762   1.922   3.234 -0.9435  0.2159 -0.0788
   70MOL   H17227910   5.752   2.134   3.220 -2.2740  2.2440  0.1759
   70MOL   H17327911   5.676   2.222   3.025  0.2848 -1.1311  2.8454
   70MOL   H17427912   5.515   2.220   2.830 -1.2898  0.0878 -0.9331
   70MOL   H17527913   5.263   1.885   2.737  1.9591  0.0443  0.6224
   70MOL   H17627914   5.148   2.015   2.692  0.8020 -0.5552 -0.3041
   70MOL   H17727915   5.154   1.962   2.860  1.1049  0.6272  1.0820
   70MOL   H17827916   5.290   1.915   3.027 -0.5552 -0.5979 -1.8682
   70MOL   H17927917   5.454   1.895   3.192  1.9549  0.1994  1.5160
   70MOL   H18027918   5.695   1.839   3.211  0.1833 -0.7952  0.1725
   70MOL   H18127919   5.796   1.900   3.336  2.5988  1.5576 -0.8929
   70MOL   C18227920   5.899   1.928   3.148  0.1638  0.6523  0.2746
   70MOL   C18327921   5.992   2.043   3.185 -0.8341 -0.4360  0.1827
   70MOL   C18427922   6.005   2.155   3.100 -0.3818 -0.8722 -0.3022
   70MOL   C18527923   6.079   2.267   3.141  0.1877 -0.1098 -0.3395
   70MOL   C18627924   6.154   2.265   3.260 -0.2520  0.3276 -0.3151
   70MOL   O18727925   6.231   2.379   3.292  0.1165  0.2765 -0.4139
   70MOL   C18827926   6.311   2.397   3.410  1.0197 -0.8481 -0.7451
   70MOL   C18927927   6.151   2.155   3.341 -0.2065 -0.4382 -0.1879
   70MOL   C19027928   6.068   2.047   3.306 -0.1818 -1.1030  0.5853
   70MOL   C19127929   5.868   1.901   2.997  0.1271 -0.4516 -0.3610
   70MOL   H19227930   5.952   1.836   3.171  1.1589  0.6834 -1.7593
   70MOL   H19327931   5.934   2.158   3.019 -0.7000 -2.6202 -0.1157
   70MOL   H19427932   6.071   2.358   3.082  2.4172  0.4251  0.1543
   70MOL   H19527933   6.349   2.309   3.462 -2.6424 -1.3404  1.2245
   70MOL   H19627934   6.250   2.456   3.478  1.0395 -0.2483 -1.2375
   70MOL   H19727935   6.392   2.466   3.385 -0.3606  1.0024 -0.2473
   70MOL   H19827936   6.205   2.154   3.434 -0.9619  4.1283  0.4334
   70MOL   H19927937   6.065   1.967   3.378 -1.9472 -3.1555 -1.6859
   70MOL   H20027938   5.813   1.986   2.954  0.2771  0.9160  2.0526
   70MOL   H20127939   5.964   1.894   2.946 -0.3994 -0.4467 -1.3694
   70MOL   C20227940   5.809   1.770   2.954 -0.0333  0.6717  0.2301
   70MOL   C20327941   5.873   1.636   3.000  0.3208 -0.2880 -0.1384
   70MOL   C20427942   5.821   1.564   3.105  0.3668  0.3553  0.2195
   70MOL   C20527943   5.890   1.449   3.158  0.3492 -0.6231  0.3496
   70MOL   C20627944   6.008   1.398   3.098 -0.2531  0.3901  0.7213
   70MOL   O20727945   6.066   1.276   3.138  0.1048  0.3568  0.6049
   70MOL   C20827946   6.200   1.252   3.087 -0.1260  0.2183  0.5036
   70MOL   C20927947   6.053   1.471   2.983  0.3636  0.0366 -0.1374
   70MOL   C21027948   5.993   1.588   2.937 -0.1966 -0.4025  0.3550
   70MOL   C21127949   5.776   1.780   2.803 -0.3495  0.2003 -0.0420
   70MOL   H21227950   5.706   1.766   2.990 -0.5084  1.7965 -0.9651
   70MOL   H21327951   5.735   1.607   3.155 -1.1303 -0.8497 -1.2568
   70MOL   H21427952   5.848   1.397   3.242 -1.8969  0.1138 -0.2797
   70MOL   H21527953   6.205   1.211   2.986  0.3413 -1.2273  1.1004
   70MOL   H21627954   6.264   1.340   3.089  0.2735 -0.0916  1.0856
   70MOL   H21727955   6.246   1.175   3.148  1.4039  0.8091  0.1229
   70MOL   H21827956   6.139   1.432   2.930 -0.4677 -0.0463 -1.4377
   70MOL   H21927957   6.024   1.651   2.855  0.3178  1.1505  1.7159
   70MOL   H22027958   5.875   1.800   2.762  0.8806 -1.4377  2.0352
   70MOL   H22127959   5.712   1.864   2.777 -2.0505 -0.8350  0.7785
   70MOL   C22227960   5.718   1.663   2.720 -0.6287  0.3713 -0.1363
   70MOL   C22327961   5.578   1.624   2.748 -0.7812 -0.2401 -0.1358
   70MOL   C22427962   5.538   1.496   2.714 -0.0547 -0.1974 -0.2266
   70MOL   C22527963   5.412   1.454   2.754 -0.3880  0.3885 -0.1210
   70MOL   C22627964   5.316   1.536   2.825 -0.5807 -0.4110 -0.0533
   70MOL   O22727965   5.195   1.491   2.866 -0.0010  0.0159 -0.2917
   70MOL   C22827966   5.173   1.346   2.866 -0.3582 -0.4270 -0.4632
   70MOL   C22927967   5.361   1.668   2.844 -0.3547  0.4748  0.0584
   70MOL   C23027968   5.485   1.717   2.799 -0.2051  0.0465  0.4893
   70MOL   C23127969   5.741   1.678   2.572 -0.6063  0.4181  0.0419
   70MOL   H23227970   5.781   1.576   2.737 -1.9953 -0.4377  0.8385
   70MOL   H23327971   5.606   1.423   2.671  3.5891  2.5880  0.5224
   70MOL   H23427972   5.385   1.350   2.738 -0.8965  0.8532 -2.5509
   70MOL   H23527973   5.089   1.334   2.934  0.6043 -0.8101  0.6763
   70MOL   H23627974   5.143   1.309   2.768  1.1800 -3.6693  0.2153
   70MOL   H23727975   5.254   1.284   2.905 -2.1100 -1.5702  1.4616
   70MOL   H23827976   5.287   1.736   2.883  0.1287  0.6392  0.7069
   70MOL   H23927977   5.521   1.816   2.823 -0.1834  0.0667  0.3742
   70MOL   H24027978   5.841   1.713   2.544 -0.1258  0.1605  1.4124
   70MOL   H24127979   5.752   1.575   2.539 -2.8652 -0.9401  3.2666
   70MOL   C24227980   5.641   1.769   2.479 -0.3156 -0.3002 -0.1247
   70MOL   C24327981   5.659   1.918   2.496  0.4211 -0.4770 -0.4725
   70MOL   C24427982   5.770   1.984   2.437 -0.3415 -0.2722  0.7584
   70MOL   C24527983   5.781   2.127   2.451 -0.0199  0.5341  0.2291
   70MOL   C24627984   5.686   2.205   2.520  0.7364  0.0179 -0.8332
   70MOL   O24727985   5.694   2.344   2.522  0.3932 -0.1092 -0.4522
   70MOL   C24827986   5.812   2.410   2.468 -0.0540  0.7518 -0.2340
   70MOL   C24927987   5.571   2.141   2.564  0.1772  0.9873 -0.4497
   70MOL   C25027988   5.557   1.998   2.558 -0.1461 -0.3982 -0.4922
   70MOL   C25127989   5.643   1.742   2.325  0.1002  0.7146 -0.6012
   70MOL   H25227990   5.537   1.750   2.504 -0.5014  0.7998 -0.0268
   70MOL   H25327991   5.849   1.935   2.382 -0.3881 -1.4822  1.7251
   70MOL   H25427992   5.875   2.168   2.416  0.6342 -1.5536 -0.5048
   70MOL   H25527993   5.811   2.389   2.362  2.3454  0.2318 -0.1975
   70MOL   H25627994   5.804   2.518   2.460 -1.6987  0.6160 -0.5097
   70MOL   H25727995   5.903   2.373   2.517 -0.8546 -1.9073 -0.7248
   70MOL   H25827996   5.496   2.198   2.618 -0.7582 -1.4457  0.8922
   70MOL   H25927997   5.473   1.945   2.601  1.7517 -2.5236  0.7355
   70MOL   H26027998   5.746   1.711   2.308 -0.2740 -0.7681 -0.2986
   70MOL   H26127999   5.638   1.836   2.271  2.2476  0.8211 -0.6460
   70MOL   C26228000   5.537   1.645   2.276 -0.0924 -0.2486  0.5958
   70MOL   C26328001   5.532   1.510   2.344  0.4740 -0.6041 -0.2156
   70MOL   C26428002   5.645   1.424   2.343  0.1864 -0.0587  0.5894
   70MOL   C26528003   5.631   1.290   2.393  0.3821  0.0005 -0.1106
   70MOL   C26628004   5.512   1.241   2.442  0.5245 -0.5404  0.1636
   70MOL   O26728005   5.514   1.112   2.493 -0.1553  0.2586 -0.4138
   70MOL   C26828006   5.408   1.077   2.584  0.2525 -0.6045  0.1181
   70MOL   C26928007   5.400   1.326   2.440 -0.7466  0.5046  0.9048
   70MOL   C27028008   5.409   1.457   2.386 -0.0679  0.7645  0.1443
   70MOL   C27128009   5.550   1.625   2.123  0.1850 -0.0125 -0.1096
   70MOL   H27228010   5.439   1.686   2.299  0.3484  1.5585 -0.6257
   70MOL   H27328011   5.735   1.467   2.304 -0.2276 -0.2922 -0.6443
   70MOL   H27428012   5.720   1.229   2.386  0.6643  0.4210 -0.2727
   70MOL   H27528013   5.436   1.135   2.672  2.1783 -0.3618 -0.6253
   70MOL   H27628014   5.402   0.971   2.608  1.2692 -1.0967 -1.6864
   70MOL   H27728015   5.310   1.113   2.552 -0.7193 -2.5211  0.8443
   70MOL   H27828016   5.303   1.305   2.481 -0.0961  0.8554  2.6672
   70MOL   H27928017   5.317   1.512   2.379 -0.3180  0.3875  0.4403
   70MOL   H28028018   5.535   1.725   2.084  0.1972  0.2514  0.5436
   70MOL   H28128019   5.654   1.605   2.097  0.9454 -1.0924  3.3982
   70MOL   C28228020   5.446   1.529   2.054  0.5802  0.0124  0.5159
   70MOL   C28328021   5.508   1.476   1.921  0.5326  0.3846 -0.1609
   70MOL   C28428022   5.539   1.338   1.903 -0.1067 -0.3653  1.0080
   70MOL   C28528023   5.619   1.299   1.786  0.7781 -0.7420 -0.1559
   70MOL   C28628024   5.671   1.397   1.701  0.4459  0.0780 -0.1585
   70MOL   O28728025   5.765   1.363   1.609  0.6270 -0.3809 -0.1623
   70MOL   C28828026   5.807   1.451   1.514  0.4540 -0.0678  0.0947
   70MOL   C28928027   5.624   1.528   1.711  0.4044  0.1251 -0.5901
   70MOL   C29028028   5.549   1.572   1.825  0.7387  0.5907  0.7014
   70MOL   C29128029   5.309   1.604   2.039  0.0883  0.4190  0.2910
   70MOL   H29228030   5.433   1.441   2.117  2.7858 -0.2919  0.6020
   70MOL   H29328031   5.514   1.260   1.974 -1.1716 -1.0087 -0.0687
   70MOL   H29428032   5.647   1.196   1.768 -1.3011 -1.2672 -0.5558
   70MOL   H29528033   5.867   1.519   1.575  1.5550 -0.9694  0.0251
   70MOL   H29628034   5.883   1.411   1.447  1.1911  0.8340  0.3733
   70MOL   H29728035   5.740   1.509   1.450 -1.3792 -2.2410 -0.0316
   70MOL   H29828036   5.655   1.607   1.645 -0.2626  1.9006  1.1633
   70MOL   H29928037   5.523   1.675   1.845 -2.2064 -0.0736  0.4993
   70MOL   H30028038   5.298   1.642   2.140 -0.5719 -1.8591  1.1065
   70MOL   H30128039   5.311   1.699   1.986  1.0164  1.2398  1.8001
   70MOL   C30228040   5.197   1.525   1.961  0.0866 -0.8652 -0.2331
   70MOL   C30328041   5.163   1.404   2.044 -0.1275  0.7793 -0.0085
   70MOL   C30428042   5.192   1.270   1.997 -0.0481 -0.6678 -0.1639
   70MOL   C30528043   5.177   1.158   2.079 -0.7254  0.0013  0.4435
   70MOL   C30628044   5.144   1.178   2.210 -0.9976 -0.5532  0.0007
   70MOL   O30728045   5.144   1.083   2.307 -0.4048 -0.0061 -0.1041
   70MOL   C30828046   5.147   0.947   2.268  0.3700 -0.2864  0.5345
   70MOL   C30928047   5.110   1.305   2.258 -1.3547 -0.4583 -0.6919
   70MOL   C31028048   5.114   1.418   2.175 -0.1702 -0.0861 -0.2425
   70MOL   C31128049   5.063   1.604   1.941  0.1295 -0.3161  0.0174
   70MOL   H31228050   5.240   1.488   1.868 -0.2014  0.2838 -0.8398
   70MOL   H31328051   5.235   1.258   1.898  0.3033  0.9755 -0.2270
   70MOL   H31428052   5.214   1.065   2.036  0.8075  2.3673 -3.6753
   70MOL   H31528053   5.173   0.884   2.353 -1.3884 -1.3275  0.3295
   70MOL   H31628054   5.241   0.937   2.214 -0.0573 -1.0071 -0.0788
   70MOL   H31728055   5.068   0.893   2.217  0.1243 -1.1082  1.7647
   70MOL   H31828056   5.075   1.308   2.360 -1.2038  0.3599 -0.6582
   70MOL   H31928057   5.084   1.518   2.201  1.4554  0.6280 -0.9950
   70MOL   H32028058   5.040   1.669   2.025 -2.2836  0.2504 -1.0435
   70MOL   H32128059   4.984   1.529   1.943 -2.2457  2.1161  1.9538
   70MOL   C32228060   5.054   1.686   1.815  0.1122  0.6002  1.4376
   70MOL   C32328061   5.150   1.806   1.804 -0.3104 -0.3566  0.0054
   70MOL   C32428062   5.237   1.827   1.697  1.1838 -0.0011 -0.0833
   70MOL   C32528063   5.322   1.939   1.698 -0.0356  0.0380  0.7942
   70MOL   C32628064   5.322   2.032   1.800  0.1384  0.2987 -0.6503
   70MOL   O32728065   5.399   2.141   1.801 -0.2373  0.7030 -0.4680
   70MOL   C32828066   5.460   2.180   1.679 -0.9204  0.0854 -0.1278
   70MOL   C32928067   5.232   2.017   1.912  0.2140 -0.1918  0.4706
   70MOL   C33028068   5.151   1.903   1.909  0.1239 -0.1452  0.0348
   70MOL   C33128069   4.907   1.737   1.788 -0.7317 -0.2512 -0.3888
   70MOL   H33228070   5.094   1.628   1.732 -0.6465  0.1708  1.3675
   70MOL   H33328071   5.240   1.756   1.616 -1.1592  0.4515 -0.5989
   70MOL   H33428072   5.389   1.950   1.614 -1.2190 -0.7131 -0.2570
   70MOL   H33528073   5.544   2.122   1.639 -0.7711 -0.3278  0.7731
   70MOL   H33628074   5.507   2.272   1.713  0.7594 -2.1615  3.9355
   70MOL   H33728075   5.393   2.209   1.598 -0.0115  0.1306 -0.8661
   70MOL   H33828076   5.240   2.084   1.997  1.1650 -1.3592  1.3190
   70MOL   H33928077   5.073   1.886   1.983 -0.8363  1.6751 -0.5436
   70MOL   H34028078   4.870   1.806   1.864 -0.2544  0.2553 -0.6081
   70MOL   H34128079   4.922   1.800   1.701  0.0239  1.7687  1.1541
   70MOL   C34228080   4.814   1.624   1.743  0.2500 -0.2808 -0.0818
   70MOL   C34328081   4.721   1.664   1.626 -0.3727 -0.4164 -0.1780
   70MOL   C34428082   4.591   1.723   1.636 -0.0062 -0.4507 -0.0365
   70MOL   C34528083   4.505   1.764   1.526 -0.3723 -0.2252  0.4282
   70MOL   C34628084   4.555   1.743   1.395  0.6296  0.1494  0.7765
   70MOL   O34728085   4.480   1.763   1.281 -0.1705 -0.0743 -0.3262
   70MOL   C34828086   4.398   1.878   1.281 -0.0222  0.6428 -0.7108
   70MOL   C34928087   4.683   1.685   1.378 -0.5330 -0.0929 -0.9553
   70MOL   C35028088   4.762   1.649   1.492 -0.6284  0.0935 -0.6804
   70MOL   C35128089   4.727   1.570   1.859 -0.3532 -0.2621  0.1574
   70MOL   H35228090   4.876   1.542   1.707  0.6518 -0.2428  0.5243
   70MOL   H35328091   4.546   1.729   1.735  1.0464 -2.5863  0.5899
   70MOL   H35428092   4.403   1.798   1.533  0.0157  1.1777 -0.6448
   70MOL   H35528093   4.447   1.961   1.330 -1.5187  0.4051  1.3063
   70MOL   H35628094   4.376   1.909   1.179  0.9551  0.5043 -0.9661
   70MOL   H35728095   4.297   1.867   1.322 -0.2799  0.8546 -1.2863
   70MOL   H35828096   4.712   1.667   1.276  1.4650 -3.5217  0.1094
   70MOL   H35928097   4.863   1.619   1.469  1.4710  2.7588  4.4758
   70MOL   H36028098   4.769   1.565   1.960  1.4475  2.0645 -0.4445
   70MOL   H36128099   4.646   1.638   1.886 -0.7628 -0.7199  0.0889
   70MOL   C36228100   4.662   1.438   1.812 -0.6894  0.0962 -0.3734
   70MOL   C36328101   4.514   1.448   1.842  0.2403  0.5087  0.3057
   70MOL   C36428102   4.460   1.423   1.970 -0.5859 -0.1143  0.1901
   70MOL   C36528103   4.316   1.406   1.986  0.0013  0.2382 -0.5316
   70MOL   C36628104   4.231   1.421   1.874  0.3153 -0.3815  0.0442
   70MOL   O36728105   4.092   1.416   1.895  0.2148 -0.2381  0.1378
   70MOL   C36828106   4.006   1.411   1.781  0.2683  0.3268 -0.2035
   70MOL   C36928107   4.294   1.437   1.742  0.4806  0.0862 -0.0427
   70MOL   C37028108   4.431   1.453   1.729 -0.9252 -0.0871 -0.2210
   70MOL   C37128109   4.714   1.305   1.889 -0.3762 -0.2078 -0.6011
   70MOL   H37228110   4.680   1.417   1.707  0.8633  0.5792 -0.2146
   70MOL   H37328111   4.516   1.420   2.062  0.5677  1.1127 -0.4582
   70MOL   H37428112   4.270   1.388   2.082  1.5708  0.1421  0.2373
   70MOL   H37528113   3.902   1.405   1.813  0.7021 -1.5903  0.9268
   70MOL   H37628114   4.002   1.501   1.719 -0.2311 -0.6172 -1.5802
   70MOL   H37728115   4.021   1.327   1.713  0.0943  0.1368 -0.0051
   70MOL   H37828116   4.232   1.435   1.654  0.6200 -0.0605 -0.1387
   70MOL   H37928117   4.474   1.458   1.630  1.1048  0.0270  0.6385
   70MOL   H38028118   4.712   1.318   1.997 -1.4107 -1.3194 -0.4698
   70MOL   H38128119   4.639   1.228   1.870  1.9733 -2.7050 -0.0451
   70MOL   C38228120   4.858   1.259   1.839 -0.0081 -0.5452 -0.7159
   70MOL   C38328121   4.855   1.215   1.694 -0.7385 -0.3661 -0.4833
   70MOL   C38428122   4.956   1.277   1.609  0.4963 -0.3266 -0.1373
   70MOL   C38528123   4.956   1.247   1.472 -0.2820  0.8199  0.8066
   70MOL   C38628124   4.869   1.145   1.416  0.1557  0.2820 -0.0061
   70MOL   O38728125   4.861   1.107   1.282  0.2800  0.2678  0.2882
   70MOL   C38828126   4.980   1.121   1.216 -0.4190 -0.0623  0.6762
   70MOL   C38928127   4.769   1.090   1.500  0.2717 -0.1632  0.2862
   70MOL   C39028128   4.771   1.117   1.635  0.0175  0.0300 -0.4582
   70MOL   C39128129   4.892   1.133   1.923 -0.0792 -0.5056  0.2958
   70MOL   H39228130   4.935   1.332   1.863  0.5366 -1.0353 -0.9515
   70MOL   H39328131   5.023   1.352   1.650  1.7116 -0.3309 -2.0370
   70MOL   H39428132   5.017   1.303   1.402 -0.3499  0.8753  0.7924
   70MOL   H39528133   5.072   1.120   1.275  0.1570 -0.7023 -0.2237
   70MOL   H39628134   4.968   1.188   1.132  1.3699 -0.2511  0.2370
   70MOL   H39728135   4.992   1.019   1.178 -1.6705 -0.1313  0.4776
   70MOL   H39828136   4.704   1.017   1.454  1.7616 -1.0670 -0.3946
   70MOL   H39928137   4.697   1.067   1.696 -0.9329  2.3721  0.3832
   70MOL   H40028138   4.817   1.054   1.916 -0.9351  0.4734 -1.6964
   70MOL   H40128139   4.909   1.148   2.030  0.5057 -0.1949  0.1614
   70MOL   H40228140   4.986   1.085   1.894 -0.3326  0.0168 -1.4553
   71MOL     C128141   5.989   4.938   3.734  0.5217  0.6139 -0.3547
   71MOL     C228142   6.111   4.944   3.640  0.4720  0.0387 -0.0828
   71MOL     C328143   6.212   5.030   3.678 -0.0187 -0.4293 -0.2171
   71MOL     C428144   6.317   5.048   3.584  0.3511 -0.1694 -0.1397
   71MOL     C528145   6.327   4.969   3.465  1.0984  0.3428 -0.1440
   71MOL     O628146   6.435   4.979   3.379  0.1762 -1.1335  0.4080
   71MOL     C728147   6.515   5.098   3.395  0.2165 -0.6618  0.6080
   71MOL     C828148   6.227   4.874   3.431  0.4645  0.1656 -0.7529
   71MOL     C928149   6.122   4.868   3.523  0.7356  0.0924 -0.3293
   71MOL    C1028150   5.877   5.025   3.674 -0.4217  0.0072  0.3550
   71MOL    H1128151   6.017   4.976   3.832  1.7621  0.4562 -0.6360
   71MOL    H1228152   6.201   5.096   3.763  0.1900 -1.1760  0.3964
   71MOL    H1328153   6.390   5.125   3.603 -0.0587 -0.1582  1.4692
   71MOL    H1428154   6.476   5.198   3.378 -0.2130 -0.7667  0.9725
   71MOL    H1528155   6.567   5.098   3.492  0.2331 -0.5287  0.6002
   71MOL    H1628156   6.595   5.083   3.323 -0.2841 -0.4406  0.0020
   71MOL    H1728157   6.239   4.816   3.341 -2.6042 -0.6316 -0.7148
   71MOL    H1828158   6.034   4.809   3.503  1.3287 -1.4348  1.3101
   71MOL    H1928159   5.919   5.121   3.642 -1.3886  0.4956  0.5250
   71MOL    H2028160   5.840   4.977   3.583 -1.1596 -0.6431  0.9956
   71MOL    H2128161   5.970   4.831   3.747  2.9155 -0.0709 -2.0756
   71MOL    C2228162   5.761   5.037   3.771  0.3202  0.1506 -1.1775
   71MOL    C2328163   5.794   5.090   3.913  0.8861  0.4165 -0.2192
   71MOL    C2428164   5.796   5.007   4.028  0.1366  0.0168 -0.5746
   71MOL    C2528165   5.811   5.074   4.152 -0.4636  0.1621  0.3397
   71MOL    C2628166   5.817   5.214   4.168 -0.1212 -0.1925  0.3058
   71MOL    O2728167   5.823   5.281   4.288  0.1987  0.4309  0.3422
   71MOL    C2828168   5.779   5.220   4.406  0.5330 -0.0404  0.3459
   71MOL    C2928169   5.822   5.294   4.050  0.0106  0.8542 -0.1486
   71MOL    C3028170   5.810   5.234   3.925 -1.0504  0.1524 -0.2752
   71MOL    C3128171   5.639   5.109   3.714 -0.3026 -0.5905 -0.1801
   71MOL    H3228172   5.727   4.935   3.787  3.7333 -0.7271  1.0836
   71MOL    H3328173   5.767   4.903   4.023 -1.7082  0.6018 -2.9835
   71MOL    H3428174   5.807   5.014   4.242  0.5523  0.0671  0.3333
   71MOL    H3528175   5.814   5.276   4.493  0.9311 -0.8977  0.7503
   71MOL    H3628176   5.794   5.113   4.426 -2.5005 -0.4273  0.9356
   71MOL    H3728177   5.672   5.226   4.426  0.3809 -1.1218 -0.0861
   71MOL    H3828178   5.828   5.402   4.050 -0.4205  0.8782  0.3898
   71MOL    H3928179   5.819   5.291   3.834  0.9504 -0.9714 -0.8222
   71MOL    H4028180   5.665   5.214   3.696  0.3003 -0.4831  1.2771
   71MOL    H4128181   5.608   5.061   3.622  0.2987  0.0874 -0.7496
   71MOL    C4228182   5.513   5.117   3.811  0.2414 -0.2445  0.4044
   71MOL    C4328183   5.431   4.993   3.776  0.2990  0.4884  0.0444
   71MOL    C4428184   5.375   4.985   3.651 -0.4848 -0.0561 -0.5292
   71MOL    C4528185   5.294   4.879   3.607 -0.0439  0.0414  0.0186
   71MOL    C4628186   5.263   4.777   3.698 -0.3838 -0.5798 -0.1446
   71MOL    O4728187   5.171   4.678   3.662 -0.1230  0.4463 -0.2597
   71MOL    C4828188   5.201   4.604   3.553  0.1280  0.4512 -0.0266
   71MOL    C4928189   5.315   4.780   3.828 -0.1951  0.4407 -1.0383
   71MOL    C5028190   5.395   4.889   3.868 -0.3787  0.2419  0.0274
   71MOL    C5128191   5.434   5.251   3.793  0.4132 -0.3320 -0.1973
   71MOL    H5228192   5.543   5.108   3.916  1.9281  0.6892  0.0227
   71MOL    H5328193   5.397   5.056   3.572  0.1362 -0.5624 -0.8100
   71MOL    H5428194   5.251   4.873   3.508  1.1905 -0.3071 -0.4992
   71MOL    H5528195   5.137   4.517   3.545  0.9886 -0.0549 -1.5968
   71MOL    H5628196   5.181   4.656   3.460 -0.0142 -0.8904 -0.7554
   71MOL    H5728197   5.298   4.555   3.554  0.1068  0.4008 -0.5438
   71MOL    H5828198   5.287   4.707   3.903  0.8041  3.1254  2.1041
   71MOL    H5928199   5.442   4.889   3.965 -1.6733 -1.2326  0.6751
   71MOL    H6028200   5.376   5.254   3.700  1.3642  1.4551 -0.7601
   71MOL    H6128201   5.504   5.334   3.800 -0.7725  0.6340  0.2852
   71MOL    C6228202   5.341   5.265   3.920 -0.1430 -0.0487  0.2208
   71MOL    C6328203   5.218   5.346   3.879 -0.0658  0.7083  0.5746
   71MOL    C6428204   5.117   5.275   3.810 -0.2009  0.5029 -0.3489
   71MOL    C6528205   4.998   5.345   3.775 -0.4748 -0.3966 -0.3136
   71MOL    C6628206   4.981   5.479   3.815  0.4726 -0.0504 -0.4556
   71MOL    O6728207   4.851   5.521   3.806 -0.2475  0.1022 -0.4315
   71MOL    C6828208   4.830   5.658   3.833  0.6125 -0.4251 -0.5899
   71MOL    C6928209   5.083   5.553   3.879 -0.3067  0.3666 -0.8289
   71MOL    C7028210   5.204   5.488   3.894 -0.4179  0.6989 -0.5547
   71MOL    C7128211   5.415   5.318   4.043 -0.3685  0.4441  0.1310
   71MOL    H7228212   5.306   5.165   3.946 -0.7090 -0.0857 -0.6593
   71MOL    H7328213   5.129   5.171   3.781  0.5750  0.3760  0.4221
   71MOL    H7428214   4.919   5.282   3.738  1.1486 -0.7774 -3.3046
   71MOL    H7528215   4.726   5.691   3.832  0.4244 -0.8380  2.0019
   71MOL    H7628216   4.872   5.712   3.748  1.5687  1.7145  1.2158
   71MOL    H7728217   4.862   5.706   3.925  0.5393 -1.9550  0.2542
   71MOL    H7828218   5.080   5.658   3.902  2.3182  0.4107 -0.5245
   71MOL    H7928219   5.283   5.554   3.928 -1.9956  1.8254  1.0166
   71MOL    H8028220   5.517   5.280   4.049 -1.2305 -1.4788  3.6295
   71MOL    H8128221   5.428   5.426   4.040 -1.3926  0.5595 -0.0531
   71MOL    C8228222   5.346   5.282   4.173 -0.0817 -0.3368 -0.4705
   71MOL    C8328223   5.331   5.132   4.188 -0.2985  0.0426 -0.6355
   71MOL    C8428224   5.203   5.075   4.193 -0.3560  0.5086  0.2595
   71MOL    C8528225   5.183   4.939   4.216 -0.0685  0.4433  0.5539
   71MOL    C8628226   5.303   4.861   4.236 -0.1651  0.2033 -0.0903
   71MOL    O8728227   5.300   4.724   4.258 -0.2937  0.1770 -0.5343
   71MOL    C8828228   5.205   4.671   4.350  0.0478  0.8191  0.6871
   71MOL    C8928229   5.431   4.920   4.223 -0.1332  0.0139  0.0096
   71MOL    C9028230   5.445   5.053   4.188  0.2233  0.2993  0.2913
   71MOL    C9128231   5.434   5.340   4.288 -0.1171  1.0410 -0.4029
   71MOL    H9228232   5.245   5.322   4.175 -0.8960 -2.3444  0.0336
   71MOL    H9328233   5.113   5.134   4.184 -1.8597 -1.8257 -0.4381
   71MOL    H9428234   5.083   4.898   4.218  0.5827 -1.3141 -1.0524
   71MOL    H9528235   5.252   4.577   4.380  3.2382  1.9710 -0.4766
   71MOL    H9628236   5.111   4.655   4.297  0.8931  0.0500 -0.6298
   71MOL    H9728237   5.201   4.736   4.437  0.2448  2.1235 -0.2652
   71MOL    H9828238   5.514   4.852   4.237 -1.7871 -1.4782  3.1147
   71MOL    H9928239   5.539   5.104   4.175 -0.7606  1.8422 -0.9740
   71MOL   H10028240   5.422   5.276   4.375  0.1180  1.1778 -0.2692
   71MOL   H10128241   5.540   5.320   4.270 -0.0829  0.1932  0.6990
   71MOL   C10228242   5.408   5.486   4.347  0.1508  0.9404  0.0957
   71MOL   C10328243   5.495   5.522   4.468  0.7896 -0.3926  0.2033
   71MOL   C10428244   5.633   5.525   4.448  0.1081  0.1798 -0.6792
   71MOL   C10528245   5.720   5.545   4.559  0.7101  0.4851 -0.6412
   71MOL   C10628246   5.671   5.549   4.689  0.2321  0.7986  0.0832
   71MOL   O10728247   5.768   5.554   4.786  0.2231  0.2107  0.2541
   71MOL   C10828248   5.722   5.587   4.912  0.3028 -0.2818 -0.2928
   71MOL   C10928249   5.526   5.542   4.707  0.2317 -0.3853  0.8579
   71MOL   C11028250   5.437   5.536   4.597 -0.0527  0.0545 -0.0382
   71MOL   C11128251   5.403   5.596   4.248  0.3353 -0.6466 -0.4524
   71MOL   H11228252   5.306   5.493   4.386 -0.0626  2.7900 -0.7765
   71MOL   H11328253   5.660   5.507   4.345  2.7230 -1.6369  0.2654
   71MOL   H11428254   5.826   5.545   4.541  0.8507  2.5331  0.0154
   71MOL   H11528255   5.799   5.616   4.984  1.4137 -2.0523 -0.7532
   71MOL   H11628256   5.656   5.673   4.922  1.7818  0.9248 -0.6174
   71MOL   H11728257   5.676   5.501   4.961  1.0856  0.5774  2.0296
   71MOL   H11828258   5.489   5.551   4.808  0.5688  1.3937  0.8400
   71MOL   H11928259   5.330   5.533   4.610 -0.1133 -0.5447 -0.6973
   71MOL   H12028260   5.504   5.618   4.213  0.2983  0.9010  0.3794
   71MOL   H12128261   5.338   5.565   4.166  0.2035 -0.9287 -0.2423
   71MOL   C12228262   5.341   5.731   4.302 -0.4198 -0.4542 -0.1456
   71MOL   C12328263   5.195   5.724   4.341  0.0225 -0.2406 -0.5224
   71MOL   C12428264   5.151   5.777   4.468  0.4320 -0.0023  0.2197
   71MOL   C12528265   5.013   5.780   4.502 -0.8196  0.6575 -0.2126
   71MOL   C12628266   4.916   5.726   4.411  0.0897 -0.2098 -0.0107
   71MOL   O12728267   4.784   5.725   4.453 -0.4674  0.5378  0.2723
   71MOL   C12828268   4.693   5.641   4.380  0.1126 -0.2465 -0.4402
   71MOL   C12928269   4.963   5.672   4.284  0.3858  0.2335  0.4961
   71MOL   C13028270   5.102   5.666   4.250  0.3922 -0.2993 -0.2311
   71MOL   C13128271   5.362   5.850   4.201  0.2168 -0.3010  0.3378
   71MOL   H13228272   5.391   5.753   4.397 -0.2360 -0.8035 -0.1593
   71MOL   H13328273   5.222   5.808   4.543 -0.3552 -1.4332  1.5682
   71MOL   H13428274   4.984   5.821   4.598 -1.0571  3.9611 -1.6034
   71MOL   H13528275   4.602   5.700   4.393 -0.0259 -0.5713  0.0916
   71MOL   H13628276   4.707   5.627   4.273 -0.9718  1.6455 -0.8460
   71MOL   H13728277   4.680   5.547   4.435 -1.3164  0.1179 -0.1391
   71MOL   H13828278   4.899   5.636   4.206 -0.1363  0.1039  0.9780
   71MOL   H13928279   5.132   5.637   4.151 -2.4580  0.4053 -1.3423
   71MOL   H14028280   5.279   5.921   4.205  0.1986 -0.2910 -0.2595
   71MOL   H14128281   5.351   5.808   4.101 -0.0392  1.3442 -0.3517
   71MOL   C14228282   5.493   5.929   4.218  0.0718 -0.0561  0.4128
   71MOL   C14328283   5.608   5.846   4.161  0.2500  0.5458 -0.3664
   71MOL   C14428284   5.622   5.832   4.021 -0.4705  0.6669 -0.2125
   71MOL   C14528285   5.734   5.758   3.968  0.2537  0.4890  0.1932
   71MOL   C14628286   5.838   5.708   4.047  0.3202 -0.2643 -0.0792
   71MOL   O14728287   5.952   5.652   3.993 -0.1737 -0.5022  0.2535
   71MOL   C14828288   5.967   5.671   3.852 -0.3617  0.4980 -0.4857
   71MOL   C14928289   5.830   5.724   4.187  0.0205 -0.2176  0.8436
   71MOL   C15028290   5.717   5.795   4.245  0.5991  0.4434 -0.2728
   71MOL   C15128291   5.497   6.074   4.180  0.2375 -0.1567  0.7386
   71MOL   H15228292   5.501   5.919   4.326 -0.6408  0.3819  0.5150
   71MOL   H15328293   5.539   5.862   3.958  0.0983 -1.4157 -2.0506
   71MOL   H15428294   5.732   5.742   3.861 -1.2476  1.5460  0.0503
   71MOL   H15528295   5.949   5.777   3.835 -0.8836  0.0557 -2.9118
   71MOL   H15628296   6.069   5.657   3.817 -0.1986 -0.1601  0.2543
   71MOL   H15728297   5.912   5.608   3.782  1.5085 -1.5420 -0.1766
   71MOL   H15828298   5.919   5.696   4.241 -1.0772 -2.0958  1.7128
   71MOL   H15928299   5.709   5.814   4.351 -0.9141 -1.1813 -0.0901
   71MOL   H16028300   5.413   6.129   4.223  1.1049  1.5437  0.3227
   71MOL   H16128301   5.477   6.076   4.073  0.3284  0.5567  0.7298
   71MOL   C16228302   5.632   6.149   4.212 -0.6526 -0.1822 -0.0631
   71MOL   C16328303   5.654   6.153   4.367  0.0182  0.4200 -0.1143
   71MOL   C16428304   5.580   6.239   4.449  0.7045 -0.3534 -0.4429
   71MOL   C16528305   5.611   6.250   4.581 -0.2408  0.2322 -0.0482
   71MOL   C16628306   5.724   6.190   4.638 -0.4660  0.2686  0.2904
   71MOL   O16728307   5.765   6.216   4.772 -0.3316 -0.3449 -0.6394
   71MOL   C16828308   5.680   6.311   4.838 -0.0911  0.7160  0.2852
   71MOL   C16928309   5.788   6.094   4.563 -0.7936 -0.3477 -0.3364
   71MOL   C17028310   5.763   6.081   4.424 -0.2312 -0.4561 -0.6340
   71MOL   C17128311   5.645   6.299   4.165  0.3239  0.5880 -0.1721
   71MOL   H17228312   5.724   6.108   4.169 -1.3028  0.2953 -1.9717
   71MOL   H17328313   5.495   6.294   4.413 -0.2278 -1.5789 -0.1398
   71MOL   H17428314   5.546   6.320   4.631  0.4174  0.1978  0.8660
   71MOL   H17528315   5.678   6.410   4.792  1.3580  0.1664 -0.9741
   71MOL   H17628316   5.716   6.315   4.941 -1.1767 -1.4842  0.7744
   71MOL   H17728317   5.575   6.281   4.834  0.4026 -1.1851  0.9870
   71MOL   H17828318   5.867   6.036   4.607 -1.4234 -1.7511 -1.0326
   71MOL   H17928319   5.826   6.012   4.370 -0.7933 -1.0191 -0.5896
   71MOL   H18028320   5.733   6.331   4.222  0.4536 -1.6205  0.9273
   71MOL   H18128321   5.557   6.357   4.194 -1.9819 -3.1660  0.6792
   71MOL   C18228322   5.678   6.322   4.019 -0.1235  0.3490 -0.3761
   71MOL   C18328323   5.573   6.272   3.923  0.1471  0.2667 -0.5006
   71MOL   C18428324   5.593   6.150   3.854  0.6623 -0.4563  0.5786
   71MOL   C18528325   5.511   6.099   3.756  0.0322 -0.3084 -0.2312
   71MOL   C18628326   5.398   6.177   3.716  0.4483 -0.1297 -0.6085
   71MOL   O18728327   5.303   6.136   3.623  0.8062 -0.0213  0.4448
   71MOL   C18828328   5.341   6.074   3.503 -0.3156  0.2987  0.1042
   71MOL   C18928329   5.377   6.300   3.788 -0.4483  0.2208  0.3566
   71MOL   C19028330   5.462   6.349   3.891 -0.2909  0.6415  0.0871
   71MOL   C19128331   5.830   6.283   3.980  0.2655  0.2507 -0.7108
   71MOL   H19228332   5.674   6.430   4.010  1.9737  0.3762 -1.0046
   71MOL   H19328333   5.681   6.099   3.889 -0.0988 -0.6392  2.2965
   71MOL   H19428334   5.527   6.003   3.710 -1.7924 -0.6243 -0.2375
   71MOL   H19528335   5.256   6.043   3.442 -0.2451  0.5607 -0.1251
   71MOL   H19628336   5.402   5.985   3.517  0.4005  0.3545 -2.3936
   71MOL   H19728337   5.391   6.146   3.439 -0.7138 -1.3152 -2.0778
   71MOL   H19828338   5.286   6.349   3.755  0.0955  1.0275  0.0452
   71MOL   H19928339   5.437   6.440   3.945  1.4929  1.1189  0.1244
   71MOL   H20028340   5.901   6.334   4.045  0.6677  1.0859 -1.7886
   71MOL   H20128341   5.844   6.178   4.006  3.0956 -0.2364 -3.7787
   71MOL   C20228342   5.880   6.301   3.834 -0.4106  0.0993 -0.4533
   71MOL   C20328343   6.016   6.232   3.826  0.4277  0.7162  0.3492
   71MOL   C20428344   6.128   6.281   3.887 -0.2987  0.1405 -0.2948
   71MOL   C20528345   6.245   6.208   3.892 -0.1293  0.6119 -0.1689
   71MOL   C20628346   6.247   6.067   3.863 -0.6022 -0.2986  0.1881
   71MOL   O20728347   6.349   5.979   3.894  0.8403 -0.2557 -0.3613
   71MOL   C20828348   6.469   6.032   3.954 -0.1549  0.0601 -0.6582
   71MOL   C20928349   6.136   6.019   3.798  0.4036 -0.5350 -0.5643
   71MOL   C21028350   6.023   6.100   3.781 -0.8843 -0.1905  0.2807
   71MOL   C21128351   5.892   6.458   3.801 -0.9198 -0.1981  0.5655
   71MOL   H21228352   5.812   6.257   3.761  0.5474 -0.0156 -1.2869
   71MOL   H21328353   6.119   6.380   3.930  1.7626 -0.0153  0.5443
   71MOL   H21428354   6.329   6.254   3.942 -1.1530  3.4081 -0.9309
   71MOL   H21528355   6.438   6.091   4.040 -1.0144  0.7681 -1.4310
   71MOL   H21628356   6.530   5.945   3.976 -1.2983 -0.3275  1.0642
   71MOL   H21728357   6.522   6.105   3.891  1.0269 -0.5180 -0.3351
   71MOL   H21828358   6.137   5.920   3.756 -0.4224 -0.8073  0.0435
   71MOL   H21928359   5.937   6.057   3.731 -1.1153  0.7652 -0.1513
   71MOL   H22028360   5.970   6.501   3.864  0.2044  0.5698 -1.3087
   71MOL   H22128361   5.803   6.504   3.844  1.2858  3.0582  1.8353
   71MOL   C22228362   5.918   6.487   3.654 -0.3145 -0.3551  1.1231
   71MOL   C22328363   5.820   6.431   3.552  0.2034  0.3515  0.0296
   71MOL   C22428364   5.862   6.386   3.422 -0.1330  0.1919  0.3611
   71MOL   C22528365   5.768   6.337   3.327 -0.8391  0.2319 -0.4266
   71MOL   C22628366   5.636   6.325   3.368 -0.6187 -0.3086  0.3416
   71MOL   O22728367   5.534   6.265   3.297  0.2138 -0.2786  0.1517
   71MOL   C22828368   5.580   6.182   3.195 -0.4557 -0.0198 -0.0734
   71MOL   C22928369   5.594   6.383   3.491 -0.0515 -0.7003  0.5861
   71MOL   C23028370   5.686   6.432   3.583  0.2048  0.1675 -0.1318
   71MOL   C23128371   5.932   6.634   3.625 -0.5726 -0.0130 -0.3078
   71MOL   H23228372   6.006   6.432   3.621 -0.3700  0.7864 -0.9964
   71MOL   H23328373   5.968   6.391   3.401 -0.7374  3.1141 -2.3303
   71MOL   H23428374   5.802   6.295   3.233 -0.2071 -1.4284  0.5255
   71MOL   H23528375   5.493   6.139   3.146 -0.1607  0.3242 -0.9107
   71MOL   H23628376   5.624   6.239   3.113  0.7885 -0.7666  0.0523
   71MOL   H23728377   5.650   6.104   3.227 -0.8634 -0.4020 -0.1102
   71MOL   H23828378   5.487   6.378   3.507 -0.3354  0.4326 -0.8967
   71MOL   H23928379   5.664   6.469   3.682  1.2522 -0.5837  0.3966
   71MOL   H24028380   5.939   6.650   3.517 -1.4692 -1.6912 -0.6343
   71MOL   H24128381   5.837   6.685   3.642 -0.4936  0.8966 -2.3547
   71MOL   C24228382   6.047   6.707   3.705 -0.4126  1.1915  0.2953
   71MOL   C24328383   6.179   6.626   3.687  0.0374 -0.1224 -0.3032
   71MOL   C24428384   6.253   6.572   3.792  1.2777 -0.2393  0.5325
   71MOL   C24528385   6.379   6.515   3.764 -0.3516 -0.6240 -0.1239
   71MOL   C24628386   6.421   6.485   3.632  0.2681 -0.3794 -0.0843
   71MOL   O24728387   6.519   6.396   3.604 -0.1267  0.1658  0.3346
   71MOL   C24828388   6.553   6.297   3.698 -0.9427  0.0707 -0.5411
   71MOL   C24928389   6.351   6.554   3.527  0.0500 -0.2390 -0.1372
   71MOL   C25028390   6.234   6.637   3.556  0.5553  0.1990  0.0309
   71MOL   C25128391   6.061   6.854   3.664  0.1928 -0.3080  0.2081
   71MOL   H25228392   6.021   6.706   3.811  1.3560  1.3174  0.7521
   71MOL   H25328393   6.217   6.585   3.894  1.1592 -0.3545  0.5061
   71MOL   H25428394   6.426   6.472   3.852 -0.2010 -0.9273 -0.3508
   71MOL   H25528395   6.617   6.221   3.654 -0.1678  0.8500 -0.7637
   71MOL   H25628396   6.586   6.326   3.797 -0.9646 -0.3836 -0.4009
   71MOL   H25728397   6.465   6.234   3.711 -0.4169 -0.6928 -0.6757
   71MOL   H25828398   6.394   6.536   3.429 -1.4837  1.2683 -1.1374
   71MOL   H25928399   6.173   6.678   3.477 -1.0352  2.4333  2.3423
   71MOL   H26028400   5.966   6.906   3.668 -0.0329 -0.6999 -0.0565
   71MOL   H26128401   6.082   6.861   3.557 -0.2431  0.7943  0.1909
   71MOL   C26228402   6.169   6.930   3.730 -0.7268  0.0326  0.7456
   71MOL   C26328403   6.129   6.971   3.875  0.0338  0.6526 -0.1614
   71MOL   C26428404   6.150   6.879   3.985 -0.3054 -0.7677 -0.1349
   71MOL   C26528405   6.108   6.914   4.114  0.5920  0.5331  0.5457
   71MOL   C26628406   6.023   7.020   4.137  0.7593  0.5241 -0.3891
   71MOL   O26728407   5.967   7.020   4.264  0.0044 -0.0041  0.4058
   71MOL   C26828408   5.884   7.136   4.297 -0.3083  0.2475 -0.3345
   71MOL   C26928409   5.992   7.107   4.026  0.4494 -0.2666 -0.1704
   71MOL   C27028410   6.038   7.081   3.896  0.3373 -0.5413  0.6842
   71MOL   C27128411   6.206   7.059   3.640 -0.9528  0.2021 -0.5535
   71MOL   H27228412   6.260   6.872   3.746 -1.5198 -0.6571  2.8795
   71MOL   H27328413   6.208   6.788   3.976 -0.5792 -1.2707  2.7654
   71MOL   H27428414   6.134   6.843   4.191 -0.4933 -1.3353 -0.7944
   71MOL   H27528415   5.791   7.140   4.242 -2.1983  2.0498  2.8267
   71MOL   H27628416   5.936   7.232   4.298  0.5414 -0.1949  1.7295
   71MOL   H27728417   5.844   7.116   4.397  1.1876  0.4436  0.3221
   71MOL   H27828418   5.930   7.188   4.063  0.4633 -0.1159 -0.4788
   71MOL   H27928419   6.019   7.153   3.817  3.1400 -2.0895 -1.4865
   71MOL   H28028420   6.115   7.098   3.596 -0.8544  1.1934  0.0913
   71MOL   H28128421   6.237   7.137   3.710 -2.3470 -0.7384  1.1829
   71MOL   C28228422   6.318   7.053   3.532  0.5839 -0.6676 -0.4081
   71MOL   C28328423   6.449   6.993   3.592 -0.1681  0.1212  0.7087
   71MOL   C28428424   6.502   7.038   3.716  0.1768  0.2835  0.5406
   71MOL   C28528425   6.617   6.975   3.765  0.0672  0.2354 -0.6996
   71MOL   C28628426   6.680   6.866   3.704 -0.4838 -0.4700 -0.2198
   71MOL   O28728427   6.780   6.799   3.767  0.3786  0.8045 -0.2848
   71MOL   C28828428   6.732   6.667   3.807 -0.2118  0.3268  0.2805
   71MOL   C28928429   6.633   6.827   3.576  0.1632 -0.3003 -0.3918
   71MOL   C29028430   6.517   6.895   3.518  0.3429 -0.7905  0.2001
   71MOL   C29128431   6.349   7.186   3.460  0.3218  1.0055  0.2003
   71MOL   H29228432   6.290   6.977   3.459 -2.2941  0.5502 -0.6161
   71MOL   H29328433   6.448   7.112   3.774 -0.3354  0.1873  0.1891
   71MOL   H29428434   6.654   7.012   3.860 -1.5394  3.0591 -1.1271
   71MOL   H29528435   6.800   6.584   3.788  0.1245  0.4492  0.9213
   71MOL   H29628436   6.716   6.669   3.915 -0.4252  0.4334  0.2483
   71MOL   H29728437   6.635   6.640   3.765 -0.2073  0.2367  0.3286
   71MOL   H29828438   6.685   6.756   3.514  2.1165  2.0339 -1.5049
   71MOL   H29928439   6.478   6.871   3.420 -0.2610  0.2534  0.1809
   71MOL   H30028440   6.379   7.272   3.520  2.6327 -0.0745  0.6641
   71MOL   H30128441   6.436   7.163   3.398  0.8822  0.0136  1.3258
   71MOL   C30228442   6.252   7.211   3.343 -1.0125 -0.8831 -0.2431
   71MOL   C30328443   6.224   7.099   3.247 -0.1167  0.2719 -0.1041
   71MOL   C30428444   6.114   7.018   3.247 -0.6720  0.3919 -0.3730
   71MOL   C30528445   6.106   6.914   3.150 -0.2658 -0.3501  0.3018
   71MOL   C30628446   6.212   6.883   3.066  0.7654 -0.7464 -0.9306
   71MOL   O30728447   6.217   6.780   2.983 -0.3534  0.5958  0.1231
   71MOL   C30828448   6.120   6.682   2.991  0.3982  0.3707  0.1972
   71MOL   C30928449   6.321   6.964   3.061  0.2096 -0.1113 -0.3612
   71MOL   C31028450   6.327   7.075   3.150 -0.2474  0.3323 -0.3392
   71MOL   C31128451   6.132   7.295   3.388 -0.3954 -0.1299  0.0669
   71MOL   H31228452   6.307   7.290   3.292 -3.3713  0.9055 -0.1084
   71MOL   H31328453   6.035   7.029   3.319  1.6250  0.5007  2.2158
   71MOL   H31428454   6.016   6.854   3.159 -0.7961  0.4972  0.6761
   71MOL   H31528455   6.026   6.726   2.960  0.5115  0.2260 -0.3537
   71MOL   H31628456   6.109   6.635   3.089  0.1638 -0.8896 -0.4243
   71MOL   H31728457   6.148   6.599   2.925 -1.8442  0.5321 -0.9872
   71MOL   H31828458   6.396   6.948   2.985  0.3166  0.6752 -0.4235
   71MOL   H31928459   6.417   7.133   3.160 -0.6472  0.6676  1.4736
   71MOL   H32028460   6.163   7.373   3.458 -0.0370  1.5453 -1.9323
   71MOL   H32128461   6.061   7.225   3.433  0.7598  0.1542  2.4178
   71MOL   C32228462   6.051   7.358   3.271  0.0236  0.3539 -0.6183
   71MOL   C32328463   6.117   7.483   3.207  0.1322 -0.0746  0.1743
   71MOL   C32428464   6.156   7.479   3.071  0.0606  0.5981  0.2638
   71MOL   C32528465   6.216   7.593   3.009  0.0164 -0.5917  0.7644
   71MOL   C32628466   6.246   7.708   3.085 -0.5256  0.0732 -0.2144
   71MOL   O32728467   6.311   7.815   3.024 -0.4858 -0.2741  0.5068
   71MOL   C32828468   6.366   7.803   2.886 -0.1333 -0.1332 -0.1745
   71MOL   C32928469   6.211   7.711   3.225 -0.1616 -0.0896  0.4757
   71MOL   C33028470   6.144   7.602   3.282 -0.7497  0.2320 -0.7140
   71MOL   C33128471   5.904   7.407   3.306 -0.3609 -0.3623 -0.2960
   71MOL   H33228472   6.050   7.284   3.192  0.1251  0.6776 -0.9258
   71MOL   H33328473   6.140   7.385   3.021 -1.8006  1.5931 -1.0837
   71MOL   H33428474   6.249   7.580   2.907 -0.8188 -2.4303  0.7065
   71MOL   H33528475   6.288   7.800   2.810  0.9007 -1.3439 -1.2190
   71MOL   H33628476   6.427   7.715   2.867 -1.0707 -1.0208  0.8587
   71MOL   H33728477   6.430   7.888   2.864  1.1276 -1.6162 -2.3101
   71MOL   H33828478   6.239   7.792   3.290  1.9702 -0.7857  0.4549
   71MOL   H33928479   6.126   7.602   3.389 -0.0341 -0.1440 -0.5828
   71MOL   H34028480   5.899   7.498   3.365  1.5217 -0.8605  0.6806
   71MOL   H34128481   5.859   7.437   3.211 -1.8847  0.7879  0.7683
   71MOL   C34228482   5.805   7.312   3.371 -0.1894 -0.3689 -0.3195
   71MOL   C34328483   5.793   7.175   3.308 -0.1566  0.4155  0.0922
   71MOL   C34428484   5.801   7.059   3.389 -0.2296 -1.0362 -0.1059
   71MOL   C34528485   5.766   6.931   3.344 -0.1006 -0.0358  0.0787
   71MOL   C34628486   5.735   6.915   3.210 -0.1493  0.3560 -0.2733
   71MOL   O34728487   5.712   6.790   3.151  0.0738  0.1739  0.4392
   71MOL   C34828488   5.771   6.674   3.207 -0.0822 -0.3245 -0.0666
   71MOL   C34928489   5.721   7.028   3.127  0.3303 -0.0796 -0.7617
   71MOL   C35028490   5.740   7.161   3.176 -0.3656  0.2705  0.3422
   71MOL   C35128491   5.660   7.367   3.396 -0.3513 -0.0069 -0.8535
   71MOL   H35228492   5.839   7.304   3.474  0.7292  1.7390 -0.4320
   71MOL   H35328493   5.838   7.069   3.490  0.7899 -0.0678 -0.5687
   71MOL   H35428494   5.784   6.858   3.421  2.0094  1.4977  1.0863
   71MOL   H35528495   5.701   6.610   3.261  1.2156 -4.1651 -2.7141
   71MOL   H35628496   5.792   6.610   3.121  0.2458 -0.2689 -0.0313
   71MOL   H35728497   5.863   6.692   3.263 -1.1175  1.1856  1.1744
   71MOL   H35828498   5.688   7.011   3.026 -0.2596 -2.6100 -0.1821
   71MOL   H35928499   5.719   7.245   3.113  0.2047 -0.0327 -0.2565
   71MOL   H36028500   5.630   7.388   3.294  0.3769  0.4335 -0.9804
   71MOL   H36128501   5.601   7.287   3.441 -0.5563  0.1256 -0.8845
   71MOL   C36228502   5.644   7.488   3.493 -0.0610  0.1602 -0.6064
   71MOL   C36328503   5.725   7.471   3.622  0.2783  0.0789  0.7883
   71MOL   C36428504   5.835   7.557   3.655 -0.5719  0.3171 -0.1734
   71MOL   C36528505   5.902   7.536   3.782 -0.0560 -0.4245 -0.0430
   71MOL   C36628506   5.854   7.434   3.872 -0.4751 -0.6428  1.0176
   71MOL   O36728507   5.917   7.414   3.991  0.0267  0.7607  0.0485
   71MOL   C36828508   6.031   7.500   4.016 -1.1260 -0.0884  0.2239
   71MOL   C36928509   5.745   7.356   3.839 -0.3538  0.2708 -0.0334
   71MOL   C37028510   5.676   7.372   3.712 -0.5558 -0.3905  0.0271
   71MOL   C37128511   5.496   7.514   3.519  0.0652 -0.6335  0.0793
   71MOL   H37228512   5.680   7.578   3.442 -0.7820 -0.6545 -2.6283
   71MOL   H37328513   5.870   7.639   3.594  0.2318 -0.7164 -1.1297
   71MOL   H37428514   5.979   7.611   3.797  0.3706 -0.8092 -0.2883
   71MOL   H37528515   6.001   7.602   4.037 -0.5671 -0.0093  0.6436
   71MOL   H37628516   6.079   7.466   4.108 -0.8833  0.0827  0.1579
   71MOL   H37728517   6.107   7.493   3.939 -0.4691 -0.0911  0.8648
   71MOL   H37828518   5.709   7.280   3.906  0.1303  1.6484  1.8432
   71MOL   H37928519   5.599   7.305   3.677 -2.1158  1.4046 -0.0302
   71MOL   H38028520   5.450   7.538   3.423  0.1307  0.1323  0.2351
   71MOL   H38128521   5.436   7.425   3.539 -0.6210 -0.2369 -0.1968
   71MOL   C38228522   5.464   7.627   3.619 -0.5226 -0.1496 -0.3698
   71MOL   C38328523   5.310   7.638   3.647  0.4099 -0.8087 -0.3970
   71MOL   C38428524   5.248   7.532   3.713  0.7299 -0.3593 -1.3126
   71MOL   C38528525   5.117   7.549   3.767 -0.0206  0.9177  0.5037
   71MOL   C38628526   5.034   7.659   3.733  0.5438 -0.4803  0.4523
   71MOL   O38728527   4.904   7.650   3.756  0.5871  0.0603  0.5258
   71MOL   C38828528   4.819   7.757   3.716 -0.7578  0.0162  0.6974
   71MOL   C38928529   5.100   7.760   3.659  0.0288 -0.5874 -0.4194
   71MOL   C39028530   5.237   7.758   3.623 -0.2426  0.1816  0.1911
   71MOL   C39128531   5.521   7.764   3.571 -0.3154 -0.2127 -0.0525
   71MOL   H39228532   5.510   7.606   3.715 -0.2134 -2.1569 -0.9508
   71MOL   H39328533   5.298   7.437   3.719 -1.1172 -1.2370  0.6013
   71MOL   H39428534   5.078   7.464   3.822 -0.3682  0.0126 -1.0985
   71MOL   H39528535   4.720   7.760   3.760 -1.6703 -0.2422 -1.2934
   71MOL   H39628536   4.806   7.769   3.608  0.3667 -0.7087  0.4642
   71MOL   H39728537   4.852   7.855   3.750  2.6949 -0.2649 -1.5752
   71MOL   H39828538   5.046   7.852   3.641  2.8399  0.7441 -2.3676
   71MOL   H39928539   5.274   7.847   3.574  0.3401 -1.1259 -1.7987
   71MOL   H40028540   5.499   7.843   3.642  0.5270  1.0209 -1.1568
   71MOL   H40128541   5.471   7.792   3.478 -2.1368  1.5938  1.4257
   71MOL   H40228542   5.630   7.761   3.574 -0.3069 -2.4602 -1.3994
   72MOL     C128543   7.163   2.169   6.924 -0.3013 -1.1866 -0.2973
   72MOL     C228544   7.187   2.018   6.925 -0.1581 -0.5929 -0.6008
   72MOL     C328545   7.303   1.960   6.874 -0.4815 -0.5692 -0.1714
   72MOL     C428546   7.318   1.820   6.888 -0.3604  0.5630  0.1056
   72MOL     C528547   7.220   1.740   6.941 -0.2774 -0.3580 -0.2280
   72MOL     O628548   7.244   1.601   6.935 -0.0798 -0.5413  0.2055
   72MOL     C728549   7.179   1.514   7.019  0.5020 -0.0273  0.2515
   72MOL     C828550   7.101   1.802   6.990  0.2187  0.1202  0.0006
   72MOL     C928551   7.085   1.945   6.988  0.3753 -0.1851  0.7910
   72MOL    C1028552   7.203   2.249   7.045  0.4489 -0.0184  0.1220
   72MOL    H1128553   7.056   2.177   6.902 -0.1678  2.5784  0.0155
   72MOL    H1228554   7.389   2.008   6.831 -0.2158 -0.7270  0.1741
   72MOL    H1328555   7.405   1.774   6.845 -0.2328  1.1273 -0.2404
   72MOL    H1428556   7.241   1.452   7.083 -0.4196 -2.3557 -1.0484
   72MOL    H1528557   7.113   1.558   7.094  2.7758  2.3893  0.8991
   72MOL    H1628558   7.128   1.441   6.956 -0.4051  0.4091  0.4626
   72MOL    H1728559   7.017   1.748   7.030 -0.4981  1.0745 -0.2093
   72MOL    H1828560   6.989   1.980   7.024 -0.3204 -1.5985  0.3748
   72MOL    H1928561   7.166   2.351   7.035  1.5534  0.4974  1.1814
   72MOL    H2028562   7.146   2.215   7.132 -0.9603  2.2010  0.0969
   72MOL    H2128563   7.209   2.203   6.832 -0.1573  0.5378  0.3973
   72MOL    C2228564   7.351   2.253   7.087  0.6458 -0.6502 -0.8123
   72MOL    C2328565   7.438   2.305   6.973  0.1373  1.0943 -0.6684
   72MOL    C2428566   7.551   2.226   6.937 -0.4568 -0.2486  0.1487
   72MOL    C2528567   7.638   2.280   6.832  0.2917 -0.0443 -0.4965
   72MOL    C2628568   7.615   2.409   6.769 -0.0204  0.7455  0.5024
   72MOL    O2728569   7.712   2.471   6.692  0.4188  0.1189  0.5349
   72MOL    C2828570   7.807   2.390   6.621  0.0056  0.9276 -0.0558
   72MOL    C2928571   7.496   2.476   6.798  0.3280 -0.2773  0.8057
   72MOL    C3028572   7.410   2.426   6.898 -0.0075 -0.3341  0.3281
   72MOL    C3128573   7.380   2.329   7.219 -1.0078 -0.6295 -0.2316
   72MOL    H3228574   7.375   2.150   7.112  0.6848 -0.3701  0.3467
   72MOL    H3328575   7.572   2.136   6.994  1.0683 -0.1767 -0.2803
   72MOL    H3428576   7.729   2.227   6.812  0.3249 -1.6588  3.4928
   72MOL    H3528577   7.885   2.355   6.690  0.5138  1.8549 -0.1541
   72MOL    H3628578   7.840   2.447   6.535  1.1505  0.7798  0.2731
   72MOL    H3728579   7.759   2.300   6.582  1.2586  0.6092 -0.9152
   72MOL    H3828580   7.478   2.570   6.748 -1.0755 -1.1699 -0.3992
   72MOL    H3928581   7.321   2.484   6.918 -0.8612 -0.6007 -2.4060
   72MOL    H4028582   7.333   2.427   7.213 -1.3609 -0.4612  4.0554
   72MOL    H4128583   7.325   2.281   7.300 -1.5302 -0.7135 -0.6288
   72MOL    C4228584   7.523   2.354   7.273 -0.2847 -0.1749  0.2896
   72MOL    C4328585   7.597   2.219   7.284  0.3415  0.2456 -0.1570
   72MOL    C4428586   7.723   2.212   7.226  0.0013 -0.4424 -0.4766
   72MOL    C4528587   7.779   2.081   7.212 -0.1547  0.3500  0.3414
   72MOL    C4628588   7.718   1.964   7.264  0.6308  0.3345 -0.1726
   72MOL    O4728589   7.795   1.848   7.251 -0.6042 -0.6566  0.1858
   72MOL    C4828590   7.776   1.745   7.339 -0.9391  0.3334 -0.3041
   72MOL    C4928591   7.606   1.983   7.342  0.3771  0.3269  0.4174
   72MOL    C5028592   7.540   2.104   7.346 -0.4007 -0.6707 -0.0375
   72MOL    C5128593   7.534   2.424   7.408 -0.0067  0.3763 -0.5780
   72MOL    H5228594   7.577   2.422   7.207  0.3503  0.2184  1.2037
   72MOL    H5328595   7.766   2.293   7.170 -2.2947  0.0907 -1.5459
   72MOL    H5428596   7.876   2.067   7.168 -0.4054  2.2189 -0.8621
   72MOL    H5528597   7.789   1.778   7.441 -1.8460  0.1801 -0.1403
   72MOL    H5628598   7.675   1.707   7.324  0.1546 -3.1448  0.5595
   72MOL    H5728599   7.837   1.657   7.319  1.7123  2.4566 -1.8944
   72MOL    H5828600   7.559   1.902   7.396 -2.6995  1.1090 -0.9636
   72MOL    H5928601   7.445   2.104   7.397 -1.8050  0.3408 -2.6141
   72MOL    H6028602   7.634   2.466   7.406  0.6203 -0.8528  2.5561
   72MOL    H6128603   7.541   2.351   7.488 -1.0330  1.2332  0.3082
   72MOL    C6228604   7.442   2.536   7.455  0.6702 -0.3331 -0.6050
   72MOL    C6328605   7.456   2.668   7.377  0.0917  0.7117  0.3804
   72MOL    C6428606   7.347   2.709   7.293 -0.4380  0.2238 -0.7509
   72MOL    C6528607   7.363   2.831   7.220 -0.3706  0.1955  0.4039
   72MOL    C6628608   7.487   2.897   7.217  0.0656  0.2938 -0.4095
   72MOL    O6728609   7.495   3.011   7.137  0.0670 -0.3157 -0.0944
   72MOL    C6828610   7.622   3.055   7.095 -0.0383  0.3616  0.4572
   72MOL    C6928611   7.593   2.854   7.299 -0.2058 -0.4750 -0.1254
   72MOL    C7028612   7.577   2.742   7.387  0.6681  0.1085  0.6134
   72MOL    C7128613   7.445   2.539   7.614  0.5040 -0.1970  0.0038
   72MOL    H7228614   7.342   2.496   7.438  0.5946 -0.0288 -0.8556
   72MOL    H7328615   7.249   2.664   7.299 -0.4059  0.1232 -0.9869
   72MOL    H7428616   7.287   2.868   7.153 -0.8875 -1.0437  0.2909
   72MOL    H7528617   7.707   2.987   7.090  0.7178  1.4357 -1.9100
   72MOL    H7628618   7.660   3.134   7.159 -0.3649 -0.4834  1.7014
   72MOL    H7728619   7.601   3.099   6.997  0.6631 -1.3939 -0.5143
   72MOL    H7828620   7.686   2.909   7.298  1.5978 -3.3948  0.3801
   72MOL    H7928621   7.650   2.706   7.458  1.6388  0.8190 -0.0212
   72MOL    H8028622   7.544   2.508   7.646 -0.1310 -2.2293  0.0460
   72MOL    H8128623   7.428   2.645   7.631  0.5766 -0.3870  1.2734
   72MOL    C8228624   7.334   2.447   7.683  0.3781 -0.3386 -0.7384
   72MOL    C8328625   7.321   2.298   7.644 -0.4566 -0.3715 -0.2248
   72MOL    C8428626   7.413   2.198   7.690 -0.9243  0.3073  0.0078
   72MOL    C8528627   7.387   2.060   7.670  1.0994 -0.2994 -0.4361
   72MOL    C8628628   7.285   2.019   7.583  0.7890  0.0479  0.1155
   72MOL    O8728629   7.276   1.886   7.554  0.6451 -0.3692  0.4660
   72MOL    C8828630   7.203   1.829   7.444  0.2885  0.5162  0.1825
   72MOL    C8928631   7.199   2.118   7.530  0.5135  0.3687 -0.2768
   72MOL    C9028632   7.212   2.260   7.558  0.7536 -0.0896 -0.3691
   72MOL    C9128633   7.331   2.474   7.836 -0.4094 -0.5714  0.8076
   72MOL    H9228634   7.235   2.483   7.653  0.3745 -0.0303 -0.3638
   72MOL    H9328635   7.499   2.225   7.749 -0.1850 -1.0929 -0.4129
   72MOL    H9428636   7.459   1.990   7.710  1.9694  1.9754  2.1368
   72MOL    H9528637   7.096   1.843   7.459  0.4735  1.4445  0.6885
   72MOL    H9628638   7.215   1.721   7.435 -0.5216  0.6711 -3.3534
   72MOL    H9728639   7.236   1.877   7.352  0.8039 -0.3712 -0.1040
   72MOL    H9828640   7.113   2.099   7.469  0.4764  0.3897 -0.2321
   72MOL    H9928641   7.151   2.340   7.518  1.4906  1.4915  1.5886
   72MOL   H10028642   7.248   2.429   7.890 -0.8351  1.5483  1.9512
   72MOL   H10128643   7.414   2.415   7.876 -1.0975 -1.9349  0.2652
   72MOL   C10228644   7.327   2.619   7.895 -0.3718  0.5216 -0.8961
   72MOL   C10328645   7.189   2.685   7.876 -0.4244  0.0784  0.0680
   72MOL   C10428646   7.088   2.659   7.975 -0.3586 -0.6553 -0.0061
   72MOL   C10528647   6.964   2.722   7.963 -0.0551  0.1119 -0.4062
   72MOL   C10628648   6.924   2.791   7.849  0.2932  0.0946  0.1400
   72MOL   O10728649   6.799   2.832   7.845  0.6550 -0.0924 -0.3386
   72MOL   C10828650   6.761   2.897   7.725  0.4119 -0.9593 -0.0072
   72MOL   C10928651   7.032   2.832   7.757 -0.2644  0.4735 -0.3000
   72MOL   C11028652   7.161   2.774   7.768  0.2808 -0.3285 -0.0644
   72MOL   C11128653   7.383   2.628   8.036  0.6221  0.5179 -0.3342
   72MOL   H11228654   7.399   2.680   7.841 -0.2731  1.3435  0.1429
   72MOL   H11328655   7.103   2.602   0.026  3.5081  0.9239  0.4450
   72MOL   H11428656   6.888   2.704   8.038 -0.9933 -1.1950 -1.6245
   72MOL   H11528657   6.658   2.927   7.749 -0.1048 -2.5787 -0.1291
   72MOL   H11628658   6.811   2.990   7.700 -1.8284  0.7672  1.5928
   72MOL   H11728659   6.755   2.829   7.640 -0.9229 -0.5424 -0.2673
   72MOL   H11828660   7.008   2.904   7.680  0.3019  0.3174 -0.6311
   72MOL   H11928661   7.240   2.805   7.701 -0.8258 -0.0424 -1.2353
   72MOL   H12028662   7.385   2.731   0.031  0.6717  1.1177 -2.0861
   72MOL   H12128663   7.327   2.571   0.070  0.8431  2.0866  1.0718
   72MOL   C12228664   7.532   2.592   0.023 -0.4048  0.0036  0.6851
   72MOL   C12328665   7.545   2.561   0.174 -0.2415 -0.7723 -0.4243
   72MOL   C12428666   7.554   2.428   0.224  0.1805  0.5284 -0.2601
   72MOL   C12528667   7.565   2.409   0.360  0.7748 -0.2792 -0.8735
   72MOL   C12628668   7.555   2.524   0.449  0.3525 -0.1264 -0.8897
   72MOL   O12728669   7.566   2.490   0.581  0.3827  0.1253  0.0388
   72MOL   C12828670   7.605   2.590   0.682 -0.7798 -0.7063  0.0889
   72MOL   C12928671   7.562   2.654   0.401  0.1597  0.4610 -0.9101
   72MOL   C13028672   7.552   2.673   0.267  0.3844 -0.4085 -0.1351
   72MOL   C13128673   7.630   2.693   8.010 -0.4666  0.2830  0.2924
   72MOL   H13228674   7.551   2.503   8.001  0.0902  0.2985  0.4061
   72MOL   H13328675   7.575   2.341   0.163 -0.0341 -0.4880  1.0782
   72MOL   H13428676   7.578   2.311   0.404 -3.3346 -0.7754 -0.5379
   72MOL   H13528677   7.540   2.676   0.697 -0.2786 -0.6932  2.2988
   72MOL   H13628678   7.618   2.538   0.777  1.5249  2.0913  1.3701
   72MOL   H13728679   7.704   2.631   0.660 -1.0393  0.0546  0.3246
   72MOL   H13828680   7.555   2.736   0.471  1.4937  0.7216 -1.0665
   72MOL   H13928681   7.562   2.772   0.226  1.1346 -0.2005  0.5556
   72MOL   H14028682   7.615   2.790   0.016  3.5947  0.2581  1.9454
   72MOL   H14128683   7.612   2.715   7.904  0.1016  1.5133  0.4427
   72MOL   C14228684   7.777   2.649   8.029  1.0616  0.7401  0.0442
   72MOL   C14328685   7.827   2.559   7.909  0.7105  0.4475 -0.3238
   72MOL   C14428686   7.837   2.423   7.933  0.1304 -0.5337  0.9774
   72MOL   C14528687   7.858   2.331   7.823 -0.0653 -0.3185  0.2664
   72MOL   C14628688   7.870   2.379   7.694  0.9157  0.4871 -0.2663
   72MOL   O14728689   7.893   2.276   7.603 -0.1293 -0.1868  0.2412
   72MOL   C14828690   7.963   2.308   7.478  0.0477  0.2199  0.0801
   72MOL   C14928691   7.861   2.517   7.670 -0.9927 -0.9269  0.8159
   72MOL   C15028692   7.846   2.608   7.776  0.2108 -0.1635  0.0871
   72MOL   C15128693   7.878   2.754   0.024 -0.4688 -0.3012 -0.4013
   72MOL   H15228694   7.782   2.585   0.077  0.0316 -0.6185 -0.8691
   72MOL   H15328695   7.812   2.383   8.030 -0.6734 -1.4487  0.3946
   72MOL   H15428696   7.887   2.229   7.844  1.1235 -0.1075 -0.3519
   72MOL   H15528697   0.015   2.363   7.498 -0.2148  0.8983 -0.5521
   72MOL   H15628698   8.001   2.211   7.443 -0.6275 -0.3735  0.9767
   72MOL   H15728699   7.897   2.362   7.410  2.1545  0.6302 -1.7097
   72MOL   H15828700   7.867   2.552   7.568 -2.7291 -2.4242  0.1948
   72MOL   H15928701   7.839   2.713   7.752 -2.2853 -0.5625 -1.0565
   72MOL   H16028702   7.845   2.825   0.099 -0.0774  0.0712 -0.5827
   72MOL   H16128703   7.873   2.816   7.974  0.4233  0.8998  0.3724
   72MOL   C16228704   8.022   2.710   0.060  0.3190  0.4664  0.0029
   72MOL   C16328705   8.016   2.628   0.193  0.4112 -0.5228  0.0260
   72MOL   C16428706   0.017   2.493   0.199  0.1955  0.7657  1.1151
   72MOL   C16528707   0.016   2.421   0.319 -0.0063 -0.5179  0.0795
   72MOL   C16628708   8.011   2.487   0.441 -0.8754 -0.5555 -0.0009
   72MOL   O16728709   7.977   2.422   0.560  0.2644 -0.0708 -0.2012
   72MOL   C16828710   8.015   2.285   0.584 -0.5643  0.0584  0.1273
   72MOL   C16928711   7.981   2.624   0.433  0.4441 -0.1095  0.8451
   72MOL   C17028712   7.988   2.698   0.314 -0.5172 -0.1034 -0.4544
   72MOL   C17128713   0.078   2.836   0.062  0.2605  0.1080  0.1452
   72MOL   H17228714   0.023   2.638   8.029  0.0760 -0.1410  0.4749
   72MOL   H17328715   0.054   2.438   0.114 -1.8976  0.5572  0.3050
   72MOL   H17428716   0.043   2.316   0.326  0.8776 -0.3503 -0.7263
   72MOL   H17528717   0.078   2.271   0.553 -0.9303 -1.4217 -0.4304
   72MOL   H17628718   7.949   2.221   0.526  0.6143 -0.3356 -0.7918
   72MOL   H17728719   8.009   2.255   0.689  0.9381 -0.2385  0.1384
   72MOL   H17828720   7.962   2.675   0.526  1.5936 -2.8235  2.6210
   72MOL   H17928721   7.968   2.804   0.305 -2.1976 -0.3396  0.4184
   72MOL   H18028722   0.166   2.803   0.116  1.2879  0.5578 -1.2163
   72MOL   H18128723   0.029   2.913   0.121 -0.1456 -0.9888  1.2667
   72MOL   C18228724   0.119   2.868   7.961 -0.6284  0.5202 -0.0506
   72MOL   C18328725   0.200   2.753   7.898 -0.9357 -0.2898 -0.9910
   72MOL   C18428726   0.148   2.690   7.785 -0.8805 -0.0965 -0.5478
   72MOL   C18528727   0.223   2.589   7.723 -0.2772 -0.2928  0.0035
   72MOL   C18628728   0.332   2.528   7.784 -0.9170 -0.4272 -0.5205
   72MOL   O18728729   0.385   2.413   7.742 -0.3150  0.1875  0.1120
   72MOL   C18828730   0.339   2.352   7.624 -0.0542  0.1404 -0.3654
   72MOL   C18928731   0.378   2.594   7.907  0.5781 -0.2793  1.1193
   72MOL   C19028732   0.321   2.710   7.958  0.6863 -0.2645  0.2288
   72MOL   C19128733   0.200   2.998   7.949  0.8135 -0.5732  0.3234
   72MOL   H19228734   0.022   2.876   7.913 -0.9584 -1.5988  0.2054
   72MOL   H19328735   0.062   2.727   7.730 -0.1044  0.4518 -1.4078
   72MOL   H19428736   0.186   2.564   7.625 -0.7710 -0.5591  0.2554
   72MOL   H19528737   0.248   2.295   7.638 -0.4575  0.8546 -0.0569
   72MOL   H19628738   0.418   2.279   7.605 -0.2239 -0.7443  2.1763
   72MOL   H19728739   0.328   2.419   7.539  1.4170  1.4247  0.4139
   72MOL   H19828740   0.465   2.561   7.962  2.5819 -0.2035 -1.8872
   72MOL   H19928741   0.360   2.754   0.008  1.1003  0.4126 -0.2781
   72MOL   H20028742   0.143   3.071   8.007 -0.6350 -1.4556  0.0316
   72MOL   H20128743   0.291   2.986   8.007  0.9210 -0.9125  0.0813
   72MOL   C20228744   0.242   3.042   7.806  0.9718  0.6589  0.5383
   72MOL   C20328745   0.359   3.136   7.818 -0.5565 -0.3843  0.6658
   72MOL   C20428746   0.479   3.114   7.749  0.4738  0.3620 -0.4456
   72MOL   C20528747   0.577   3.215   7.749  0.2550 -0.2401 -0.3851
   72MOL   C20628748   0.566   3.338   7.817 -0.3958 -0.1155  0.0486
   72MOL   O20728749   0.676   3.418   7.813  0.2455  0.8326  0.1135
   72MOL   C20828750   0.658   3.552   7.806 -0.2222  0.4418 -1.0662
   72MOL   C20928751   0.453   3.359   7.887 -0.3561  0.0165  0.3162
   72MOL   C21028752   0.353   3.258   7.889  0.2366 -0.2682 -0.6601
   72MOL   C21128753   0.130   3.104   7.724  0.2102  0.1237  0.5721
   72MOL   H21228754   0.277   2.955   7.750 -0.2406  1.7450 -2.0225
   72MOL   H21328755   0.478   3.024   7.690 -2.7322 -0.9771  1.4975
   72MOL   H21428756   0.670   3.209   7.695  0.2619  0.5456 -0.4745
   72MOL   H21528757   0.573   3.586   7.748 -0.4108  3.3154  0.8032
   72MOL   H21628758   0.666   3.587   7.909  2.4053 -0.6911 -0.8306
   72MOL   H21728759   0.750   3.569   7.749  0.6083  0.2185  0.1871
   72MOL   H21828760   0.444   3.449   7.946  0.9810 -0.0641  0.6643
   72MOL   H21928761   0.263   3.281   7.944  0.4529  0.2756 -0.5303
   72MOL   H22028762   0.097   3.193   7.778  1.4741  0.5092  0.7249
   72MOL   H22128763   0.036   3.049   7.729  0.5517 -0.4106  1.1623
   72MOL   C22228764   0.152   3.137   7.572  0.5954 -0.2861 -0.1213
   72MOL   C22328765   0.138   2.999   7.505 -0.6413  0.2753 -0.0684
   72MOL   C22428766   0.248   2.930   7.456  0.3164  0.3399 -0.2992
   72MOL   C22528767   0.246   2.795   7.399 -0.0772 -0.2592  0.1342
   72MOL   C22628768   0.118   2.740   7.373  0.0602  1.1531  0.2393
   72MOL   O22728769   0.101   2.611   7.320 -1.0848  0.7070 -0.2961
   72MOL   C22828770   0.056   2.607   7.185 -0.3105  0.1776  0.1022
   72MOL   C22928771   0.002   2.814   7.411  0.8927 -0.0458 -0.1008
   72MOL   C23028772   0.010   2.942   7.473 -0.5333 -0.0537  0.8184
   72MOL   C23128773   0.049   3.247   7.528  0.0264 -0.5647  0.5729
   72MOL   H23228774   0.252   3.180   7.561 -0.9023  3.6808  0.6749
   72MOL   H23328775   0.341   2.979   7.481  0.0553  0.3394  0.6978
   72MOL   H23428776   0.329   2.730   7.377 -0.7398 -0.7562 -0.9385
   72MOL   H23528777   8.017   2.681   7.181  0.9979  1.5785 -0.1062
   72MOL   H23628778   0.144   2.634   7.127 -0.5995  1.0750  0.0753
   72MOL   H23728779   0.018   2.510   7.151 -1.4021  0.7230 -0.2555
   72MOL   H23828780   7.945   2.775   7.386 -0.8890  2.5855  2.3337
   72MOL   H23928781   7.963   3.003   7.490 -1.2601 -0.6277 -0.7888
   72MOL   H24028782   0.041   3.246   7.420  2.2332  0.6787  0.3732
   72MOL   H24128783   7.990   3.226   7.567 -0.3132  0.2497  0.1397
   72MOL   C24228784   0.095   3.389   7.555 -0.0638 -0.0622  0.8132
   72MOL   C24328785   0.211   3.439   7.477  0.2159 -0.1407 -0.5113
   72MOL   C24428786   0.199   3.462   7.338  0.6213 -0.1700 -0.8250
   72MOL   C24528787   0.311   3.500   7.255  0.6541 -0.1081  0.0364
   72MOL   C24628788   0.440   3.521   7.313  0.4526 -0.5535 -0.1625
   72MOL   O24728789   0.547   3.561   7.231 -0.4253  0.4652  0.0121
   72MOL   C24828790   0.676   3.531   7.289  0.5984  0.5145 -0.2708
   72MOL   C24928791   0.453   3.505   7.453  0.7995  0.4708 -0.1600
   72MOL   C25028792   0.341   3.460   7.530  0.4192 -0.2631  0.5641
   72MOL   C25128793   8.001   3.474   7.549  0.3972  0.5437  0.0638
   72MOL   H25228794   0.133   3.388   7.657  0.1779  1.9846  0.7739
   72MOL   H25328795   0.109   3.438   7.283  2.5980 -1.4410 -3.6328
   72MOL   H25428796   0.297   3.512   7.149  0.9953  2.5512  0.2611
   72MOL   H25528797   0.684   3.427   7.321 -0.9323  0.1359 -1.1089
   72MOL   H25628798   0.745   3.544   7.205  0.1044  0.0633 -0.7486
   72MOL   H25728799   0.705   3.611   7.358  0.3262  0.5162 -0.1583
   72MOL   H25828800   0.550   3.519   7.500  2.0772 -2.9921 -1.6343
   72MOL   H25928801   0.361   3.459   7.636  0.7606  3.2742  0.5727
   72MOL   H26028802   7.942   3.426   7.627  1.4435 -0.3418  0.3400
   72MOL   H26128803   7.954   3.456   7.453  1.0825 -2.4889  0.2480
   72MOL   C26228804   8.019   3.625   7.564  0.1892 -0.2354  0.0464
   72MOL   C26328805   0.056   3.661   7.692 -1.1901 -0.4572 -0.0648
   72MOL   C26428806   0.184   3.720   7.677 -0.2113  0.0722 -0.9595
   72MOL   C26528807   0.252   3.764   7.791 -0.4333  0.2097  0.5227
   72MOL   C26628808   0.201   3.752   7.925 -0.0781  0.6508  0.3566
   72MOL   O26728809   0.275   3.780   8.034  0.1267  0.2567  0.1383
   72MOL   C26828810   0.210   3.816   0.114 -0.0432  0.6678  0.5068
   72MOL   C26928811   0.075   3.689   7.929  0.4404 -1.0874 -0.6715
   72MOL   C27028812   0.001   3.644   7.820  0.2608 -0.4992 -0.3782
   72MOL   C27128813   7.888   3.703   7.558  0.4135  0.4853  0.5588
   72MOL   H27228814   0.037   3.670   7.484 -0.6510 -0.9237 -0.9617
   72MOL   H27328815   0.223   3.745   7.579 -0.8733  0.5091 -1.1174
   72MOL   H27428816   0.345   3.818   7.791  0.9783 -2.1630  1.1761
   72MOL   H27528817   0.204   3.732   0.183  0.6006 -0.1126 -0.3927
   72MOL   H27628818   0.107   3.850   0.098  0.3561  0.9050 -1.7358
   72MOL   H27728819   0.264   3.896   0.165 -2.9234  3.9727 -1.4053
   72MOL   H27828820   0.033   3.663   8.025  1.4794 -1.7575 -0.3820
   72MOL   H27928821   7.939   3.608   7.829  0.4750 -1.3129 -1.2046
   72MOL   H28028822   7.819   3.703   7.643 -1.7717  1.1291 -1.1564
   72MOL   H28128823   7.928   3.804   7.569  1.8376 -0.0867  0.7346
   72MOL   C28228824   7.809   3.684   7.422  0.5156 -0.5383 -0.1180
   72MOL   C28328825   7.898   3.739   7.309 -0.1790  0.0040  0.3755
   72MOL   C28428826   7.947   3.653   7.210  0.0593  0.8673 -0.4636
   72MOL   C28528827   8.015   3.697   7.091 -0.1854  0.1329  0.1657
   72MOL   C28628828   8.039   3.840   7.075  0.3280  0.2738  1.4138
   72MOL   O28728829   0.056   3.889   6.964  0.3506 -0.6726 -0.7836
   72MOL   C28828830   0.106   4.021   6.965  0.0627 -0.1250 -0.5348
   72MOL   C28928831   7.985   3.924   7.172  0.9829 -0.1337  0.1379
   72MOL   C29028832   7.919   3.877   7.286  0.3231 -0.2993  0.2495
   72MOL   C29128833   7.665   3.755   7.432  0.3045  0.0417 -1.2880
   72MOL   H29228834   7.787   3.579   7.401 -1.4286 -0.3169  0.6507
   72MOL   H29328835   7.936   3.545   7.214  1.5771  0.7171  0.3016
   72MOL   H29428836   0.007   3.622   7.020 -1.1798  1.0969 -1.3276
   72MOL   H29528837   0.020   4.085   6.942  0.0866 -1.0244 -3.4370
   72MOL   H29628838   0.157   4.040   7.059  0.2397  0.6047 -0.7800
   72MOL   H29728839   0.177   4.040   6.884  0.4936  1.5499  0.2172
   72MOL   H29828840   7.992   4.032   7.166  0.0002 -0.0990 -0.5238
   72MOL   H29928841   7.887   3.951   7.357  1.8732  0.8237 -0.2149
   72MOL   H30028842   7.614   3.736   7.526  4.3253 -3.2257  0.4133
   72MOL   H30128843   7.674   3.864   7.427  1.0662  0.0661  0.2998
   72MOL   C30228844   7.566   3.714   7.322 -0.0668 -0.2156  0.7602
   72MOL   C30328845   7.493   3.589   7.367 -0.5336  0.0875 -0.1071
   72MOL   C30428846   7.404   3.595   7.473 -0.0886  0.4628  0.3116
   72MOL   C30528847   7.351   3.473   7.520 -0.0195 -0.3642  0.0357
   72MOL   C30628848   7.361   3.353   7.443  1.0624  0.2356  0.5713
   72MOL   O30728849   7.286   3.245   7.491 -0.3093 -0.0015  0.0672
   72MOL   C30828850   7.305   3.130   7.416  0.7697  0.4956  0.1917
   72MOL   C30928851   7.445   3.355   7.331  0.0285  0.0551 -0.5868
   72MOL   C31028852   7.518   3.472   7.296  0.3423 -0.1783  0.0981
   72MOL   C31128853   7.470   3.823   7.265 -0.5768 -0.7869  0.3219
   72MOL   H31228854   7.624   3.676   7.238  0.1811  1.0645  0.3395
   72MOL   H31328855   7.390   3.686   7.529 -0.8375 -0.0539  0.9793
   72MOL   H31428856   7.299   3.469   7.615  1.1236 -1.1241  0.6450
   72MOL   H31528857   7.409   3.110   7.391  0.6379 -0.6500  0.4877
   72MOL   H31628858   7.248   3.119   7.324  1.3438  0.4819 -0.1650
   72MOL   H31728859   7.286   3.040   7.476  1.2107  0.9337  0.9986
   72MOL   H31828860   7.463   3.270   7.267 -2.5266 -0.5048 -0.6155
   72MOL   H31928861   7.589   3.461   7.215  0.8171  0.6814  0.3987
   72MOL   H32028862   7.518   3.916   7.235 -2.5435 -0.1479 -1.0063
   72MOL   H32128863   7.401   3.838   7.349  0.6601 -0.5722  1.3048
   72MOL   C32228864   7.392   3.791   7.137  0.2216  0.6815 -0.2696
   72MOL   C32328865   7.490   3.734   7.033  0.2366 -0.2051 -0.0992
   72MOL   C32428866   7.625   3.781   7.016  0.4547 -0.6020 -0.4750
   72MOL   C32528867   7.710   3.724   6.921  0.7783  0.3839  0.0450
   72MOL   C32628868   7.674   3.604   6.858 -0.6810  0.2209  0.5425
   72MOL   O32728869   7.751   3.538   6.778 -0.2105  0.0715  0.1910
   72MOL   C32828870   7.884   3.594   6.749  0.0724  0.7325  0.1393
   72MOL   C32928871   7.546   3.549   6.879  0.3938  0.4652  1.0227
   72MOL   C33028872   7.454   3.608   6.971 -0.0516 -0.0101  0.1181
   72MOL   C33128873   7.286   3.891   7.079 -0.4757  0.3710 -0.9207
   72MOL   H33228874   7.328   3.707   7.164 -1.5237  2.0520 -0.0573
   72MOL   H33328875   7.649   3.868   7.074 -0.9794  0.1184 -0.9317
   72MOL   H33428876   7.805   3.775   6.917  0.6007  0.5998 -1.5963
   72MOL   H33528877   7.891   3.700   6.723  0.8758  0.7886  0.5675
   72MOL   H33628878   7.931   3.539   6.668 -0.7561  2.8616 -1.8454
   72MOL   H33728879   7.952   3.587   6.834  1.4016 -2.0370 -1.1089
   72MOL   H33828880   7.534   3.455   6.828  2.7691  2.1415 -2.8429
   72MOL   H33928881   7.363   3.558   7.002 -0.3584  1.5539  1.7953
   72MOL   H34028882   7.225   3.816   7.029  0.2270 -0.5513 -0.3947
   72MOL   H34128883   7.236   3.938   7.164  2.5771  0.1426  1.0950
   72MOL   C34228884   7.327   3.998   6.973 -0.4607 -0.2259 -0.6426
   72MOL   C34328885   7.423   4.106   7.030 -0.2004 -0.4642  0.0200
   72MOL   C34428886   7.381   4.197   7.133 -0.0496  0.0739  0.0045
   72MOL   C34528887   7.480   4.282   7.189 -0.2042 -0.0747 -0.2264
   72MOL   C34628888   7.611   4.278   7.146  0.3391 -0.6190 -0.7248
   72MOL   O34728889   7.709   4.354   7.200 -0.4461 -0.2379  0.3376
   72MOL   C34828890   7.690   4.419   7.322 -0.4318 -0.1151  0.3927
   72MOL   C34928891   7.652   4.189   7.044 -0.1377  0.0743 -0.4093
   72MOL   C35028892   7.557   4.108   6.982  0.2720 -0.0902  0.0795
   72MOL   C35128893   7.205   4.065   6.896  0.1653  0.2808  0.1497
   72MOL   H35228894   7.392   3.949   6.901 -0.1081 -2.4320  1.1098
   72MOL   H35328895   7.277   4.203   7.164  0.0138 -0.0500  0.2499
   72MOL   H35428896   7.446   4.351   7.264  1.9899  1.3405 -0.5046
   72MOL   H35528897   7.659   4.521   7.300 -0.8052 -0.8948 -2.8986
   72MOL   H35628898   7.631   4.369   7.399 -1.6374  0.3675 -0.1919
   72MOL   H35728899   7.790   4.426   7.365 -0.4465  0.0468  0.3995
   72MOL   H35828900   7.753   4.188   7.006  0.3302  1.7043  0.7586
   72MOL   H35928901   7.581   4.056   6.891 -0.9218 -1.1250  0.3272
   72MOL   H36028902   7.130   3.994   6.862  0.3257  0.6950 -1.0909
   72MOL   H36128903   7.142   4.107   6.974 -1.8132 -0.5739 -0.9468
   72MOL   C36228904   7.231   4.174   6.796  0.0610 -0.0844 -0.2295
   72MOL   C36328905   7.106   4.259   6.763 -0.5409 -0.9304 -0.0385
   72MOL   C36428906   7.063   4.354   6.862  0.8088  0.5087 -0.1954
   72MOL   C36528907   6.944   4.431   6.839  0.6571 -0.3285  0.5303
   72MOL   C36628908   6.878   4.425   6.712  0.0371  0.5961 -0.0779
   72MOL   O36728909   6.764   4.495   6.678 -0.4387  0.0944  0.1801
   72MOL   C36828910   6.703   4.574   6.773 -0.2891 -0.4838  0.6098
   72MOL   C36928911   6.934   4.334   6.619 -0.2309  0.3956  0.2440
   72MOL   C37028912   7.037   4.243   6.642 -0.1102  0.1228 -0.0799
   72MOL   C37128913   7.316   4.117   6.682  0.5430  0.7341 -0.1686
   72MOL   H37228914   7.292   4.239   6.857 -0.0482  0.3794 -0.6106
   72MOL   H37328915   7.101   4.373   6.962  1.4493 -3.0187  0.2975
   72MOL   H37428916   6.897   4.490   6.916  2.4157  1.1815  0.4749
   72MOL   H37528917   6.647   4.519   6.849  0.8668 -1.1385  0.9958
   72MOL   H37628918   6.763   4.644   6.832  0.7995 -0.3852 -0.6007
   72MOL   H37728919   6.625   4.638   6.731  2.2135  0.6902 -2.5008
   72MOL   H37828920   6.884   4.317   6.525 -0.7710 -0.2180  0.6372
   72MOL   H37928921   7.069   4.184   6.558  0.0442 -1.0262  0.7762
   72MOL   H38028922   7.379   4.037   6.721 -1.0499 -0.0073  0.9417
   72MOL   H38128923   7.252   4.062   6.613 -0.4974  0.0061  1.3409
   72MOL   C38228924   7.416   4.215   6.621  0.6612 -0.4284  0.7978
   72MOL   C38328925   7.343   4.308   6.519  0.0824 -0.2997  0.4085
   72MOL   C38428926   7.295   4.248   6.399  0.0095  0.2468 -0.3457
   72MOL   C38528927   7.241   4.339   6.305  0.9783 -0.2699 -0.0522
   72MOL   C38628928   7.237   4.480   6.322  0.3346 -0.0088  0.6432
   72MOL   O38728929   7.187   4.555   6.222  0.4215  0.1192  0.3180
   72MOL   C38828930   7.122   4.676   6.268  0.1394 -0.0011 -0.6046
   72MOL   C38928931   7.294   4.534   6.442 -0.9209 -0.0106 -0.0855
   72MOL   C39028932   7.345   4.449   6.538  0.6944  0.0758 -0.4426
   72MOL   C39128933   7.537   4.149   6.559  0.3413 -0.5034  0.2218
   72MOL   H39228934   7.446   4.286   6.698  2.4128  1.6311 -1.6940
   72MOL   H39328935   7.287   4.141   6.387  0.8294  0.2971 -1.4641
   72MOL   H39428936   7.195   4.300   6.215  0.9799 -0.6844  0.1250
   72MOL   H39528937   7.058   4.707   6.186 -2.1910 -0.3587  1.0372
   72MOL   H39628938   7.192   4.749   6.307  0.9077 -1.0819  0.0836
   72MOL   H39728939   7.049   4.651   6.345  1.9433 -1.3509  0.7009
   72MOL   H39828940   7.300   4.640   6.464 -1.0569  0.1658 -0.8740
   72MOL   H39928941   7.372   4.486   6.636 -0.2168 -1.1332  0.2718
   72MOL   H40028942   7.612   4.225   6.533 -1.3831  0.9714 -0.5780
   72MOL   H40128943   7.530   4.093   6.466  0.3480  0.6529 -0.4868
   72MOL   H40228944   7.584   4.084   6.632  0.3162 -2.1492 -1.2029
   73MOL     C128945   6.323   6.534   7.729  0.0443 -0.0468  0.0001
   73MOL     C228946   6.227   6.589   7.628  0.5562 -0.0452 -0.5393
   73MOL     C328947   6.183   6.720   7.646 -0.2359  0.3660  0.4754
   73MOL     C428948   6.097   6.774   7.549 -1.0434 -0.3017  1.0192
   73MOL     C528949   6.066   6.701   7.432  0.0990 -0.5410 -0.0373
   73MOL     O628950   5.981   6.761   7.337 -0.7985 -0.0854  0.8010
   73MOL     C728951   5.965   6.906   7.347 -0.3666 -0.5209  0.0761
   73MOL     C828952   6.121   6.580   7.402  0.8659 -0.5431 -0.1205
   73MOL     C928953   6.204   6.525   7.503  0.1387 -0.0523 -0.2840
   73MOL    C1028954   6.250   6.494   7.857  0.1535  0.2344 -0.6043
   73MOL    H1128955   6.397   6.609   7.760 -1.2149  0.2638  2.3703
   73MOL    H1228956   6.225   6.773   7.730 -2.3964 -0.1827  1.9402
   73MOL    H1328957   6.060   6.874   7.567 -0.6102 -0.2166  1.4381
   73MOL    H1428958   5.899   6.949   7.422  0.3922  2.1035 -0.7040
   73MOL    H1528959   6.062   6.953   7.362  0.3028 -2.3475  1.7022
   73MOL    H1628960   5.930   6.945   7.251 -0.7222  2.9314  1.5259
   73MOL    H1728961   6.094   6.530   7.311  0.0941 -1.4576  0.5995
   73MOL    H1828962   6.260   6.433   7.497  2.4134  1.2042  1.0494
   73MOL    H1928963   6.241   6.586   7.915  1.8845 -0.1094  0.2681
   73MOL    H2028964   6.146   6.468   7.841 -0.1915  1.4286 -0.3305
   73MOL    H2128965   6.384   6.452   7.693  2.7608  1.6751  0.4844
   73MOL    C2228966   6.322   6.383   7.947 -0.5043 -0.5547 -0.1071
   73MOL    C2328967   6.456   6.434   7.997  0.3566  0.1273 -0.9487
   73MOL    C2428968   6.458   6.545   0.051 -0.0222  0.5086 -0.3703
   73MOL    C2528969   6.579   6.587   0.102  0.3422  0.3128 -0.1565
   73MOL    C2628970   6.696   6.508   0.082 -0.6466 -0.3013  0.0392
   73MOL    O2728971   6.808   6.554   0.148  0.2432  0.4620 -0.0780
   73MOL    C2828972   6.915   6.456   0.157  0.0872 -0.3138 -0.3226
   73MOL    C2928973   6.687   6.398   8.032 -0.7386  0.1134 -0.0318
   73MOL    C3028974   6.573   6.364   7.959  0.0911 -0.3165  0.0012
   73MOL    C3128975   6.228   6.340   0.025 -0.8159 -0.2436 -0.1851
   73MOL    H3228976   6.334   6.288   7.895  1.7552 -0.4300  0.1306
   73MOL    H3328977   6.363   6.590   0.077 -1.0634 -1.3793 -0.8326
   73MOL    H3428978   6.580   6.684   0.151  0.2574 -0.2612  1.0051
   73MOL    H3528979   6.988   6.479   0.235  0.3425  0.7570 -0.8573
   73MOL    H3628980   6.967   6.460   0.061 -0.7081  0.6755 -0.7230
   73MOL    H3728981   6.877   6.355   0.169  1.1410 -0.6720  0.0910
   73MOL    H3828982   6.773   6.337   8.008 -0.7164 -0.7747  2.1349
   73MOL    H3928983   6.574   6.275   7.898  1.8150  0.2608 -0.8617
   73MOL    H4028984   6.185   6.424   0.080  0.3792 -0.1540  0.6291
   73MOL    H4128985   6.141   6.287   8.026 -1.1493  0.9751 -1.1230
   73MOL    C4228986   6.292   6.243   0.132  0.7961  0.1544  0.6996
   73MOL    C4328987   6.295   6.092   0.091 -0.4545  0.0651  0.4346
   73MOL    C4428988   6.174   6.023   0.063  0.0036 -0.3699  0.0455
   73MOL    C4528989   6.174   5.888   0.039  0.4497  0.0128  0.3968
   73MOL    C4628990   6.292   5.814   0.022 -0.1341  0.1856  0.0291
   73MOL    O4728991   6.284   5.680   8.029 -0.7674 -0.5284  0.1889
   73MOL    C4828992   6.384   5.600   0.038 -0.4119 -0.7981  0.2664
   73MOL    C4928993   6.416   5.876   0.061 -0.5380  0.2916  0.5543
   73MOL    C5028994   6.412   6.017   0.088 -0.8039 -0.4145 -0.7131
   73MOL    C5128995   6.224   6.262   0.275  0.1774 -0.1208  0.5550
   73MOL    H5228996   6.396   6.275   0.141  0.4852  1.3457  0.2310
   73MOL    H5328997   6.080   6.070   0.087  0.0849 -0.5007  0.6331
   73MOL    H5428998   6.077   5.844   0.022 -0.0165 -0.2779  3.5113
   73MOL    H5528999   6.405   5.615   0.144  0.7647 -2.3259  0.2642
   73MOL    H5629000   6.351   5.496   0.030  0.9714 -1.2067 -0.2925
   73MOL    H5729001   6.475   5.599   8.017  1.5020 -1.5724  3.0312
   73MOL    H5829002   6.508   5.821   0.075 -0.2761  0.6272  0.1737
   73MOL    H5929003   6.505   6.065   0.116 -1.8493  0.2800  1.7148
   73MOL    H6029004   6.245   6.169   0.328 -1.0300 -0.8979 -0.3066
   73MOL    H6129005   6.116   6.249   0.274  0.2375 -0.8657  2.2413
   73MOL    C6229006   6.276   6.384   0.364 -0.5871 -0.9681  0.4451
   73MOL    C6329007   6.396   6.339   0.445 -0.1291  0.1010  0.4234
   73MOL    C6429008   6.523   6.400   0.411  0.7444 -0.0702 -0.3670
   73MOL    C6529009   6.641   6.359   0.477  0.3313  0.4155 -0.0165
   73MOL    C6629010   6.638   6.266   0.581 -0.0254  0.5947 -0.6192
   73MOL    O6729011   6.751   6.231   0.649  0.3421  0.1640  0.2342
   73MOL    C6829012   6.875   6.216   0.578  0.4982 -1.0012  0.3205
   73MOL    C6929013   6.515   6.209   0.615  0.0776 -0.1029  0.1091
   73MOL    C7029014   6.390   6.246   0.550 -0.6338 -0.0473 -0.8202
   73MOL    C7129015   6.166   6.441   0.452  0.5993  0.0209 -0.2811
   73MOL    H7229016   6.302   6.451   0.282  1.0433 -1.8713  0.2091
   73MOL    H7329017   6.525   6.480   0.339 -0.5359  0.8006  0.5383
   73MOL    H7429018   6.727   6.409   0.434  0.8758 -0.3218  0.2048
   73MOL    H7529019   6.870   6.126   0.517  3.0609 -0.6802 -0.4131
   73MOL    H7629020   6.943   6.183   0.656 -0.4426  0.1677  1.6712
   73MOL    H7729021   6.926   6.298   0.527  0.1856 -1.7791 -1.2801
   73MOL    H7829022   6.517   6.131   0.689 -0.5162 -3.0112 -2.8492
   73MOL    H7929023   6.294   6.205   0.577  0.3308 -1.5877  0.3447
   73MOL    H8029024   6.070   6.426   0.404 -0.7847  1.9113  1.8284
   73MOL    H8129025   6.159   6.383   0.544 -0.5792  1.0681  0.3081
   73MOL    C8229026   6.176   6.584   0.497  0.0109  0.4170 -0.0365
   73MOL    C8329027   6.170   6.674   0.371  0.4671 -0.5279  0.1342
   73MOL    C8429028   6.287   6.743   0.331 -0.2502 -0.1916  0.0286
   73MOL    C8529029   6.288   6.821   0.212  0.1508  0.4409  0.6490
   73MOL    C8629030   6.176   6.816   0.127 -0.7109  0.3869 -0.1670
   73MOL    O8729031   6.184   6.897   0.016  0.7890 -0.6016 -0.5702
   73MOL    C8829032   6.073   6.901   7.969 -0.4072 -0.5207  0.4631
   73MOL    C8929033   6.066   6.738   0.164 -0.4781 -0.2376  0.9209
   73MOL    C9029034   6.056   6.670   0.285  0.5837 -0.0279  0.5408
   73MOL    C9129035   6.062   6.632   0.587  0.4045  0.8521  0.8233
   73MOL    H9229036   6.267   6.601   0.555 -0.0219 -0.0650  0.1598
   73MOL    H9329037   6.379   6.739   0.387 -0.7417 -1.4022  0.7782
   73MOL    H9429038   6.377   6.875   0.184  0.5399 -1.6354 -2.3375
   73MOL    H9529039   6.054   6.804   7.922 -0.2609 -0.3688  0.0889
   73MOL    H9629040   6.093   6.972   7.889  1.8547 -2.5057 -0.8073
   73MOL    H9729041   5.979   6.933   8.014 -1.2632  0.4378 -1.9289
   73MOL    H9829042   5.978   6.727   0.102 -0.2084 -0.6456  0.6066
   73MOL    H9929043   5.977   6.602   0.313  2.1314 -1.7164  0.9009
   73MOL   H10029044   6.064   6.738   0.613  0.1611  0.8312  0.9275
   73MOL   H10129045   5.971   6.627   0.527  0.3057  2.3599  0.8226
   73MOL   C10229046   6.031   6.557   0.721 -0.1222  0.3532 -0.1900
   73MOL   C10329047   6.150   6.542   0.823 -0.3607  0.3396  0.6415
   73MOL   C10429048   6.207   6.418   0.860  0.0966  0.9328 -0.7339
   73MOL   C10529049   6.322   6.407   0.938 -0.0659 -0.2568  0.1857
   73MOL   C10629050   6.391   6.522   0.976 -0.0250 -0.3553  0.1344
   73MOL   O10729051   6.502   6.529   1.053  0.0121 -0.0287  0.0508
   73MOL   C10829052   6.550   6.418   1.124  0.2172 -0.2379 -0.0066
   73MOL   C10929053   6.337   6.644   0.935 -0.2121 -0.5459  0.7704
   73MOL   C11029054   6.220   6.659   0.862  1.0046  0.6848  0.2000
   73MOL   C11129055   5.903   6.603   0.795  0.4936 -0.8961 -1.2063
   73MOL   H11229056   6.010   6.454   0.692 -0.4721  0.6695 -1.0821
   73MOL   H11329057   6.155   6.328   0.829  0.7017  0.2548  0.2082
   73MOL   H11429058   6.340   6.304   0.966  0.1321 -0.2310  0.1516
   73MOL   H11529059   6.639   6.442   1.182 -0.0480  0.5109  0.0959
   73MOL   H11629060   6.468   6.375   1.182  0.6796 -0.5505  0.4146
   73MOL   H11729061   6.581   6.335   1.060 -0.2511 -0.6995  0.3554
   73MOL   H11829062   6.403   6.723   0.968 -0.1638 -0.0741 -0.4319
   73MOL   H11929063   6.184   6.750   0.817 -0.0643  0.6213  0.9059
   73MOL   H12029064   5.897   6.544   0.887  1.3249  0.8102 -0.0271
   73MOL   H12129065   5.917   6.705   0.833 -1.7178 -0.3827 -1.6894
   73MOL   C12229066   5.769   6.591   0.723 -0.4621 -0.1508  0.3628
   73MOL   C12329067   5.660   6.672   0.801 -0.1742  0.1863  0.5267
   73MOL   C12429068   5.572   6.753   0.722  0.0832 -0.4980  0.0466
   73MOL   C12529069   5.454   6.800   0.783 -0.1312  0.3478  0.4374
   73MOL   C12629070   5.439   6.791   0.927 -0.2659  0.3468 -0.2269
   73MOL   O12729071   5.330   6.850   0.989  0.2931 -0.1513 -0.0446
   73MOL   C12829072   5.256   6.959   0.930 -0.1100  0.0461  0.0104
   73MOL   C12929073   5.531   6.718   1.007 -0.1022 -0.1678  0.9693
   73MOL   C13029074   5.634   6.654   0.940 -1.0603 -0.5927  0.3938
   73MOL   C13129075   5.715   6.443   0.708  0.0686 -0.0181  0.3227
   73MOL   H13229076   5.774   6.642   0.627  1.0044 -0.4085  0.2930
   73MOL   H13329077   5.588   6.761   0.616  0.2282 -0.2572  0.0860
   73MOL   H13429078   5.383   6.859   0.727  1.1441  0.6711 -0.8724
   73MOL   H13529079   5.206   7.013   1.010  3.5177  0.6967  1.9408
   73MOL   H13629080   5.325   7.027   0.880  0.7528 -0.4171  0.5665
   73MOL   H13729081   5.195   6.921   0.848  0.7257  1.1617 -1.1449
   73MOL   H13829082   5.505   6.698   1.109  1.7028 -1.2598  1.2286
   73MOL   H13929083   5.696   6.590   1.000 -0.4545  0.1079  0.5175
   73MOL   H14029084   5.681   6.418   0.808 -2.6475 -2.2964 -1.0947
   73MOL   H14129085   5.792   6.368   0.690 -0.4642 -0.4255 -0.2613
   73MOL   C14229086   5.602   6.437   0.600  0.1244 -0.9494 -0.0648
   73MOL   C14329087   5.656   6.461   0.456  1.1314 -0.1585 -0.7300
   73MOL   C14429088   5.743   6.370   0.392  0.3146 -0.1634 -0.2740
   73MOL   C14529089   5.783   6.392   0.258 -0.4148 -0.1479 -0.0975
   73MOL   C14629090   5.737   6.510   0.187 -0.8561 -0.3420 -0.4112
   73MOL   O14729091   5.788   6.546   0.059 -0.1544  0.4886  0.0261
   73MOL   C14829092   5.879   6.454   8.033  0.4489  0.3140 -0.2025
   73MOL   C14929093   5.653   6.601   0.253 -0.0418  0.4826 -0.1330
   73MOL   C15029094   5.613   6.576   0.387 -0.5264 -0.0992  0.1082
   73MOL   C15129095   5.510   6.316   0.609  0.1243 -0.1130 -0.1458
   73MOL   H15229096   5.537   6.523   0.617  0.7374 -0.1531 -1.6068
   73MOL   H15329097   5.775   6.279   0.440 -1.4858 -1.6745 -1.8449
   73MOL   H15429098   5.836   6.316   0.204 -0.8242 -0.6410  0.1917
   73MOL   H15529099   5.971   6.432   0.048  0.1070 -0.9285 -0.0957
   73MOL   H15629100   5.836   6.360   7.998  1.0247  0.5630 -1.6200
   73MOL   H15729101   5.902   6.502   7.938 -1.2806 -1.6274 -1.6714
   73MOL   H15829102   5.622   6.687   0.195  0.4359  0.3612 -0.5703
   73MOL   H15929103   5.551   6.648   0.439  0.1905 -0.3048  1.2761
   73MOL   H16029104   5.503   6.290   0.715 -1.5018  2.2711  0.3923
   73MOL   H16129105   5.555   6.229   0.561 -1.3704 -1.2128  0.4102
   73MOL   C16229106   5.365   6.336   0.562  0.5470 -0.6213  0.1852
   73MOL   C16329107   5.290   6.428   0.659 -0.2675 -0.1506  0.2078
   73MOL   C16429108   5.295   6.405   0.796  0.2308 -0.5067  0.0916
   73MOL   C16529109   5.228   6.483   0.885  0.2692  0.3837 -0.7275
   73MOL   C16629110   5.147   6.593   0.837 -0.7675 -0.0647 -0.1760
   73MOL   O16729111   5.057   6.676   0.905 -0.1885 -0.5534  0.0884
   73MOL   C16829112   5.045   6.641   1.044  0.3612  0.1340  0.2382
   73MOL   C16929113   5.147   6.619   0.700  0.2883  0.7279 -0.3909
   73MOL   C17029114   5.214   6.530   0.606 -0.2835  0.2880 -0.1493
   73MOL   C17129115   5.293   6.209   0.515  0.7650  0.2828 -0.0947
   73MOL   H17229116   5.375   6.391   0.469  2.4111  0.1267  0.8014
   73MOL   H17329117   5.340   6.315   0.836 -0.6728 -0.8006  0.4605
   73MOL   H17429118   5.233   6.460   0.990  1.2617  1.2777 -0.5669
   73MOL   H17529119   5.050   6.535   1.069  0.2721 -0.2526 -1.3243
   73MOL   H17629120   4.961   6.675   1.105 -0.0905 -1.6478  0.6306
   73MOL   H17729121   5.126   6.698   1.089 -0.3112 -0.1112  1.7904
   73MOL   H17829122   5.075   6.691   0.663  2.0188  1.9080 -1.4950
   73MOL   H17929123   5.198   6.536   0.499  1.0814 -1.1116 -0.4467
   73MOL   H18029124   5.345   6.146   0.443 -0.7967  0.8936 -1.8104
   73MOL   H18129125   5.201   6.252   0.475  0.0757 -1.6645 -0.6533
   73MOL   C18229126   5.243   6.110   0.631  0.2939  0.5043  0.0106
   73MOL   C18329127   5.353   6.010   0.653 -0.2788  0.6931 -0.3013
   73MOL   C18429128   5.397   5.922   0.549 -0.4138  0.1395 -0.7557
   73MOL   C18529129   5.492   5.819   0.577 -0.3388 -0.0172  0.0973
   73MOL   C18629130   5.547   5.804   0.707 -0.4833 -0.5566  0.4779
   73MOL   O18729131   5.640   5.704   0.716  0.2074  0.4672 -0.5803
   73MOL   C18829132   5.708   5.689   0.843  0.1258 -0.0354  0.5416
   73MOL   C18929133   5.520   5.900   0.803  0.4361 -0.3317  0.2689
   73MOL   C19029134   5.420   6.002   0.781  0.0807 -0.7131 -0.0041
   73MOL   C19129135   5.119   6.038   0.583 -0.1488 -0.0723  0.2233
   73MOL   H19229136   5.231   6.170   0.721  0.9824  1.4394 -0.5025
   73MOL   H19329137   5.346   5.932   0.454 -2.4262  0.4570  0.3288
   73MOL   H19429138   5.528   5.757   0.497 -0.6896  1.2535 -1.0603
   73MOL   H19529139   5.774   5.774   0.863  0.2985 -0.3055  1.1356
   73MOL   H19629140   5.771   5.601   0.829 -1.4073 -1.0717  0.0332
   73MOL   H19729141   5.633   5.679   0.922  0.7566 -1.3479  0.9896
   73MOL   H19829142   5.573   5.909   0.897 -0.2362 -0.2343  0.6398
   73MOL   H19929143   5.401   6.065   0.866 -0.9423  1.0498 -1.5163
   73MOL   H20029144   5.131   6.017   0.477 -1.9644 -0.4956  0.0811
   73MOL   H20129145   5.126   5.940   0.631 -0.1938 -0.3132 -0.2651
   73MOL   C20229146   4.975   6.082   0.621 -0.3061  0.2202 -0.0126
   73MOL   C20329147   4.871   6.014   0.535  0.0744 -0.1390 -0.0163
   73MOL   C20429148   4.811   5.892   0.577 -0.3459 -0.1275  0.2040
   73MOL   C20529149   4.721   5.830   0.485 -0.0262  0.0718  0.0371
   73MOL   C20629150   4.712   5.874   0.353 -0.2150 -0.0146 -0.2337
   73MOL   O20729151   4.645   5.801   0.261  0.0605 -0.3629  0.0641
   73MOL   C20829152   4.688   5.802   0.126 -0.1951  0.5185  0.1324
   73MOL   C20929153   4.768   6.000   0.316 -0.4810 -0.1486 -0.2517
   73MOL   C21029154   4.856   6.064   0.404  0.0934  0.2095 -0.6840
   73MOL   C21129155   4.955   6.234   0.636  0.1687 -0.3124 -0.3165
   73MOL   H21229156   4.965   6.041   0.722 -0.1299  0.0302 -0.0726
   73MOL   H21329157   4.840   5.850   0.672  0.5873  1.0162  0.4481
   73MOL   H21429158   4.666   5.741   0.515 -1.7904  2.1895  3.4024
   73MOL   H21529159   4.794   5.776   0.126 -0.4925 -0.7571  0.3011
   73MOL   H21629160   4.633   5.716   0.087  0.4995 -1.1438  2.6659
   73MOL   H21729161   4.661   5.895   0.077 -1.5658 -0.3441 -0.7950
   73MOL   H21829162   4.767   6.049   0.220 -1.6990 -0.2986 -0.3231
   73MOL   H21929163   4.905   6.151   0.364  2.9448 -1.0386 -0.0741
   73MOL   H22029164   4.963   6.290   0.542  2.1462  1.4660  0.8815
   73MOL   H22129165   5.025   6.271   0.710 -0.1291 -0.9528  0.2851
   73MOL   C22229166   4.815   6.270   0.699 -0.0610 -0.7424 -0.2609
   73MOL   C22329167   4.797   6.238   0.849  0.4202 -0.3005 -0.4044
   73MOL   C22429168   4.710   6.135   0.893 -0.5911  0.4260  0.6485
   73MOL   C22529169   4.670   6.127   1.024 -0.0530  0.0298  0.2499
   73MOL   C22629170   4.704   6.221   1.120 -0.2672  0.1404 -0.1589
   73MOL   O22729171   4.644   6.233   1.244 -0.2992  0.0549 -0.0912
   73MOL   C22829172   4.555   6.124   1.280 -0.2400  0.3179  0.3333
   73MOL   C22929173   4.801   6.321   1.082  0.1092 -0.6797  0.1273
   73MOL   C23029174   4.845   6.324   0.949  0.2820 -1.1995 -0.0568
   73MOL   C23129175   4.768   6.412   0.671 -0.4220 -0.3205 -0.6214
   73MOL   H23229176   4.746   6.201   0.651 -0.6040 -1.1217  1.0452
   73MOL   H23329177   4.668   6.077   0.811  2.9025  1.0484 -1.7095
   73MOL   H23429178   4.602   6.047   1.050  0.7536 -0.6661  0.2354
   73MOL   H23529179   4.524   6.141   1.383 -2.1944 -1.0302 -0.0079
   73MOL   H23629180   4.461   6.127   1.224 -0.3019  1.3600  0.4835
   73MOL   H23729181   4.600   6.028   1.257 -0.5310  0.4993 -1.0365
   73MOL   H23829182   4.825   6.410   1.139  1.5188  0.6693 -2.4758
   73MOL   H23929183   4.912   6.407   0.934  0.5820 -1.0122  2.2542
   73MOL   H24029184   4.694   6.431   0.749  0.5879  2.4700 -0.2969
   73MOL   H24129185   4.848   6.480   0.701 -1.3839  0.0975  1.0985
   73MOL   C24229186   4.723   6.435   0.528 -0.0176 -0.9368  0.0373
   73MOL   C24329187   4.593   6.361   0.484 -0.2181 -0.2826 -0.3892
   73MOL   C24429188   4.591   6.268   0.379  0.4336 -0.6961  0.0115
   73MOL   C24529189   4.466   6.211   0.338 -0.0236 -0.0568  0.6820
   73MOL   C24629190   4.358   6.219   0.422  0.2287  0.3349 -0.4957
   73MOL   O24729191   4.252   6.138   0.404  0.3282  0.3700 -0.2768
   73MOL   C24829192   4.219   6.089   0.273 -0.1745  1.0706  0.2769
   73MOL   C24929193   4.365   6.298   0.545 -0.1068 -0.1928  0.0778
   73MOL   C25029194   4.478   6.376   0.567 -1.0241  0.2490 -0.5300
   73MOL   C25129195   4.736   6.584   0.491  0.4118 -0.5885 -0.1449
   73MOL   H25229196   4.791   6.379   0.463  0.4716 -0.5910  0.2479
   73MOL   H25329197   4.678   6.252   0.317 -1.2471  1.9675 -3.2238
   73MOL   H25429198   4.466   6.149   0.250 -0.2024  1.6685 -0.5585
   73MOL   H25529199   4.194   6.175   0.211 -0.3862 -0.8259 -2.3520
   73MOL   H25629200   4.294   6.024   0.228 -1.0020  0.0739  0.3241
   73MOL   H25729201   4.123   6.038   0.269 -0.2561  1.2578 -0.2127
   73MOL   H25829202   4.276   6.308   0.604 -0.2230  1.6728 -0.3929
   73MOL   H25929203   4.478   6.446   0.648 -1.3123  1.5749 -1.6529
   73MOL   H26029204   4.831   6.635   0.510 -0.5786  1.0140  0.5927
   73MOL   H26129205   4.674   6.642   0.560  0.3660  0.4877 -1.0734
   73MOL   C26229206   4.706   6.629   0.345 -0.4294  0.4331  1.0446
   73MOL   C26329207   4.787   6.557   0.239 -0.1233 -0.0859 -0.5573
   73MOL   C26429208   4.728   6.523   0.120  0.0435  0.3533 -0.1757
   73MOL   C26529209   4.794   6.442   0.026 -0.4664  0.2816 -0.4015
   73MOL   C26629210   4.929   6.422   0.039  0.1187  0.5827  0.3641
   73MOL   O26729211   5.007   6.357   7.981  0.3024 -0.0548 -0.7974
   73MOL   C26829212   4.951   6.278   7.884  0.0345  0.4036  0.2218
   73MOL   C26929213   5.002   6.471   0.155 -0.6026  0.7607 -0.2120
   73MOL   C27029214   4.923   6.535   0.255 -0.1056 -0.8378  0.2190
   73MOL   C27129215   4.699   6.783   0.330 -0.4065 -0.3187  0.5576
   73MOL   H27229216   4.607   6.597   0.315 -0.6978  0.0756  2.2573
   73MOL   H27329217   4.620   6.530   0.112 -0.0994  0.1976  1.4046
   73MOL   H27429218   4.739   6.398   7.984 -1.1822 -1.5493  1.0215
   73MOL   H27529219   4.875   6.206   7.916  0.2742 -0.6916 -1.5517
   73MOL   H27629220   5.034   6.226   7.837  0.8031 -1.5116  3.5420
   73MOL   H27729221   4.910   6.337   7.801  1.4766  0.5862 -0.3706
   73MOL   H27829222   5.109   6.468   0.168 -0.5397 -2.1063 -1.1587
   73MOL   H27929223   4.983   6.561   0.341  0.6093 -1.9341  0.0571
   73MOL   H28029224   4.699   6.825   0.431  2.0353  0.6590  0.1894
   73MOL   H28129225   4.788   6.823   0.281 -0.8625  0.9597  0.7591
   73MOL   C28229226   4.576   6.840   0.260  0.6441  0.2017  0.5683
   73MOL   C28329227   4.600   6.979   0.206  0.1520 -0.6629 -0.6607
   73MOL   C28429228   4.596   7.013   0.071 -0.1409 -0.2308  0.1760
   73MOL   C28529229   4.625   7.138   0.020  0.2222 -0.6593  0.4753
   73MOL   C28629230   4.663   7.242   0.113  0.1820 -0.4586  0.5365
   73MOL   O28729231   4.699   7.369   0.068  0.7255  0.3295 -0.0885
   73MOL   C28829232   4.727   7.400   7.975  0.0816 -0.0615 -0.0374
   73MOL   C28929233   4.653   7.216   0.247 -0.2251  0.1529 -0.3274
   73MOL   C29029234   4.619   7.088   0.299  0.1317 -0.1937  0.0813
   73MOL   C29129235   4.455   6.835   0.355  0.2085  0.0646 -0.1497
   73MOL   H29229236   4.556   6.781   0.171  3.0107  1.1457 -0.6385
   73MOL   H29329237   4.571   6.934   0.002  0.7429  0.0356 -0.4676
   73MOL   H29429238   4.625   7.158   7.954  0.4284  0.0755  0.6125
   73MOL   H29529239   4.725   7.509   7.966 -0.3232 -0.2368 -2.4134
   73MOL   H29629240   4.826   7.362   7.949 -0.2619 -1.9679  1.3027
   73MOL   H29729241   4.655   7.365   7.901 -0.6746  1.6686 -0.1385
   73MOL   H29829242   4.684   7.298   0.311  0.3003  0.3394 -0.8060
   73MOL   H29929243   4.620   7.074   0.406  1.8593 -1.2428 -0.0587
   73MOL   H30029244   4.455   6.753   0.427 -0.8836  0.2986  0.1319
   73MOL   H30129245   4.468   6.923   0.418 -3.0000 -0.2813  1.1123
   73MOL   C30229246   4.320   6.849   0.277 -0.0054 -0.1635 -0.2458
   73MOL   C30329247   4.295   6.749   0.165  0.1218  0.2305  0.4776
   73MOL   C30429248   4.248   6.624   0.203  0.3984 -0.0296 -0.0777
   73MOL   C30529249   4.235   6.525   0.109  0.1719 -0.0258 -0.5295
   73MOL   C30629250   4.258   6.554   8.009 -0.0778  0.5070  0.0844
   73MOL   O30729251   4.247   6.447   7.921 -0.3094 -0.0199 -0.3154
   73MOL   C30829252   4.176   6.478   7.806  0.0225 -0.4145  0.1004
   73MOL   C30929253   4.297   6.685   7.970 -0.0016  0.1443  0.2816
   73MOL   C31029254   4.315   6.784   0.027 -0.0336 -0.3029  0.4078
   73MOL   C31129255   4.197   6.858   0.370 -0.0163 -0.2329  0.6632
   73MOL   H31229256   4.327   6.944   0.223  1.1182 -1.4217 -2.3869
   73MOL   H31329257   4.242   6.610   0.310 -0.9443 -0.8655 -0.2542
   73MOL   H31429258   4.216   6.422   0.136  1.6176  0.5078  2.7690
   73MOL   H31529259   4.237   6.543   7.744  0.9151 -1.5663 -0.2406
   73MOL   H31629260   4.075   6.513   7.827  0.4338  1.6766 -1.3485
   73MOL   H31729261   4.170   6.394   7.736 -0.7826 -1.2933  1.1900
   73MOL   H31829262   4.329   6.710   7.870  1.8902  0.1191  0.8664
   73MOL   H31929263   4.357   6.880   0.000  2.2950 -1.2540  0.5575
   73MOL   H32029264   4.212   6.947   0.431  0.2969 -0.0620  0.3422
   73MOL   H32129265   4.189   6.770   0.433  2.5213  1.6841  3.7892
   73MOL   C32229266   4.058   6.869   0.309  0.0498  0.2316 -0.6868
   73MOL   C32329267   4.048   6.966   0.194  0.1772  0.2053 -0.1207
   73MOL   C32429268   4.084   7.103   0.208 -0.0870  0.1513  0.0527
   73MOL   C32529269   4.083   7.190   0.096  0.0823 -0.0468  0.3931
   73MOL   C32629270   4.029   7.149   8.011 -0.0174 -0.5169  0.1199
   73MOL   O32729271   4.033   7.239   7.908  0.5993 -0.0006 -0.2052
   73MOL   C32829272   3.987   7.184   7.787 -0.1394  0.0067  0.4382
   73MOL   C32929273   3.996   7.010   7.994 -0.4265 -0.4317 -0.2496
   73MOL   C33029274   4.007   6.923   0.066 -0.2369  0.1578 -0.0513
   73MOL   C33129275   3.944   6.876   0.413  0.4003  0.1275 -0.3897
   73MOL   H33229276   4.046   6.766   0.274 -1.7728 -1.4162  4.2752
   73MOL   H33329277   4.125   7.148   0.297 -1.0279  1.1978 -0.0456
   73MOL   H33429278   4.115   7.292   0.109 -2.5182  0.8740 -0.0391
   73MOL   H33529279   3.882   7.155   7.793  0.3918 -2.0793  0.3556
   73MOL   H33629280   4.054   7.105   7.752 -0.3847 -0.9763  2.1269
   73MOL   H33729281   3.985   7.267   7.717  2.6179  0.9457  1.4146
   73MOL   H33829282   3.954   6.958   7.909 -0.8800 -1.6283  0.6966
   73MOL   H33929283   3.991   6.816   0.059 -1.5575  0.3418 -0.1397
   73MOL   H34029284   3.932   6.780   0.464 -0.1073  0.5785  0.3615
   73MOL   H34129285   3.982   6.941   0.492 -0.1209 -1.0057  0.8316
   73MOL   C34229286   3.799   6.911   0.383  0.3004 -0.5297  0.4851
   73MOL   C34329287   3.731   6.979   0.501  0.5954  0.7307  0.3184
   73MOL   C34429288   3.713   6.904   0.621  0.1945 -0.2477 -0.4462
   73MOL   C34529289   3.648   6.961   0.734 -0.7119 -0.2483 -0.1972
   73MOL   C34629290   3.593   7.095   0.722  0.1529 -0.6465 -0.4900
   73MOL   O34729291   3.522   7.158   0.823 -0.1203 -0.1814  0.1511
   73MOL   C34829292   3.428   7.087   0.900  0.2299 -0.0586 -0.3723
   73MOL   C34929293   3.608   7.174   0.602 -0.0371  0.8267  0.8968
   73MOL   C35029294   3.671   7.110   0.491  0.2297 -1.3371  0.8479
   73MOL   C35129295   3.728   6.781   0.348 -0.7408  0.9718  0.1161
   73MOL   H35229296   3.802   6.969   0.291 -0.7454 -0.1983  0.6547
   73MOL   H35329297   3.753   6.804   0.634  1.4748  0.5774  2.2980
   73MOL   H35429298   3.645   6.907   0.828  0.8983 -1.1737 -0.6668
   73MOL   H35529299   3.404   7.149   0.987  1.3734 -0.3395  0.1619
   73MOL   H35629300   3.343   7.070   0.835 -0.2872  2.0705 -0.3063
   73MOL   H35729301   3.463   6.996   0.948 -1.4490 -0.1964  0.6297
   73MOL   H35829302   3.559   7.271   0.597  2.3911  2.0743  0.5480
   73MOL   H35929303   3.690   7.173   0.406  0.9690 -2.5648  0.0863
   73MOL   H36029304   3.785   6.733   0.269  0.4460  0.5316  1.2309
   73MOL   H36129305   3.731   6.713   0.433  1.2151 -0.6316 -1.1826
   73MOL   C36229306   3.576   6.779   0.306  0.2804 -0.3830  0.2200
   73MOL   C36329307   3.500   6.666   0.385  0.6634 -0.0920 -0.5432
   73MOL   C36429308   3.387   6.702   0.461  0.5043 -0.1256 -0.1671
   73MOL   C36529309   3.306   6.598   0.514 -0.2537 -0.1183 -0.3512
   73MOL   C36629310   3.339   6.461   0.497 -0.3258 -0.3454 -0.0810
   73MOL   O36729311   3.259   6.355   0.539 -0.2351  0.0167 -0.3450
   73MOL   C36829312   3.148   6.388   0.628 -0.0714 -0.1844  0.7006
   73MOL   C36929313   3.451   6.434   0.415  0.1327 -0.1870 -0.1219
   73MOL   C37029314   3.534   6.532   0.355  0.2185 -0.5830  0.5724
   73MOL   C37129315   3.550   6.766   0.152  0.0166  0.0735 -0.1712
   73MOL   H37229316   3.538   6.873   0.346 -0.9142 -0.4144 -0.7954
   73MOL   H37329317   3.357   6.804   0.478  0.2988  0.1588 -2.0418
   73MOL   H37429318   3.215   6.627   0.563 -0.1151 -0.6876  0.2383
   73MOL   H37529319   3.190   6.433   0.717  1.9842 -1.2266  0.2900
   73MOL   H37629320   3.068   6.453   0.592  0.0569 -0.0366  0.6840
   73MOL   H37729321   3.094   6.297   0.653 -1.0047 -0.0557 -0.7635
   73MOL   H37829322   3.470   6.329   0.396  1.5730  0.1175 -0.4120
   73MOL   H37929323   3.613   6.508   0.285 -0.3798  1.2655 -0.7558
   73MOL   H38029324   3.603   6.676   0.122  0.6843  0.0564  1.0255
   73MOL   H38129325   3.445   6.737   0.144 -0.2745  0.9491  0.3901
   73MOL   C38229326   3.585   6.892   0.066  0.2454  0.5565 -0.4731
   73MOL   C38329327   3.508   7.020   0.110 -0.0241  0.6330 -0.7384
   73MOL   C38429328   3.579   7.138   0.121 -0.3696 -0.6431  0.2096
   73MOL   C38529329   3.513   7.254   0.159 -0.8973  0.1095 -0.5368
   73MOL   C38629330   3.372   7.252   0.188  0.1500  0.3405  0.0711
   73MOL   O38729331   3.319   7.366   0.239  0.0098  0.1862  0.4010
   73MOL   C38829332   3.172   7.378   0.232 -0.3952  0.3703  0.2621
   73MOL   C38929333   3.302   7.130   0.181  0.0082  0.6897 -1.0467
   73MOL   C39029334   3.370   7.017   0.143 -0.6546  0.7165 -0.7260
   73MOL   C39129335   3.566   6.863   7.958 -0.2050 -0.0254 -1.0890
   73MOL   H39229336   3.687   6.918   0.093  0.3491  0.7470 -1.0536
   73MOL   H39329337   3.683   7.144   0.095 -0.1899 -0.4667  0.9779
   73MOL   H39429338   3.568   7.347   0.157 -3.6491  1.8120 -0.9137
   73MOL   H39529339   3.129   7.377   0.133 -0.7513 -2.7174  0.3935
   73MOL   H39629340   3.144   7.478   0.267 -0.5902  0.3636  0.1263
   73MOL   H39729341   3.125   7.292   0.281  1.9965 -1.2497 -0.2093
   73MOL   H39829342   3.199   7.117   0.210 -0.0252  1.4165 -0.8191
   73MOL   H39929343   3.311   6.927   0.139 -1.9009  1.5163 -0.7931
   73MOL   H40029344   3.459   6.846   7.948 -0.0371 -1.9044  0.1311
   73MOL   H40129345   3.618   6.778   7.917  1.7592  0.5743  0.0849
   73MOL   H40229346   3.585   6.952   7.898  0.8514  0.4771 -0.0432
   74MOL     C129347   0.435   5.769   6.400 -0.3468  0.1810  0.1244
   74MOL     C229348   0.297   5.827   6.426 -0.6861 -0.3574  0.1623
   74MOL     C329349   0.205   5.752   6.495  0.3959 -0.1775  0.1385
   74MOL     C429350   0.076   5.799   6.516  0.2013  0.0492  0.6316
   74MOL     C529351   0.033   5.921   6.461 -0.3559 -0.5594 -0.1597
   74MOL     O629352   7.943   5.958   6.487  0.2827  0.2059 -0.3452
   74MOL     C729353   7.886   6.060   6.406  0.2417  0.1105  0.5654
   74MOL     C829354   0.130   6.000   6.392  0.5203 -0.4783 -0.1235
   74MOL     C929355   0.252   5.949   6.373  0.4846  0.3985  0.2930
   74MOL    C1029356   0.539   5.829   6.500  0.5035 -0.4787 -0.5579
   74MOL    H1129357   0.457   5.793   6.296  0.7591 -0.9946  0.0790
   74MOL    H1229358   0.233   5.660   6.543  1.2244  1.3113  2.6346
   74MOL    H1329359   0.003   5.749   6.578  0.3838  1.8484  2.3552
   74MOL    H1429360   7.910   6.159   6.445  1.2447  0.3528 -0.6053
   74MOL    H1529361   7.893   6.046   6.298 -0.3185  0.9330  0.4163
   74MOL    H1629362   7.781   6.055   6.433  0.4733 -1.6752  1.2073
   74MOL    H1729363   0.098   6.097   6.356 -0.1155 -0.5403  0.2616
   74MOL    H1829364   0.319   6.018   6.323  1.0293  1.4073  2.3825
   74MOL    H1929365   0.527   5.937   6.513  0.5708 -0.7053  1.5589
   74MOL    H2029366   0.530   5.795   6.603 -0.6129  1.8249  0.1486
   74MOL    H2129367   0.436   5.660   6.403 -0.4143  0.2030  0.8832
   74MOL    C2229368   0.686   5.804   6.461  0.0841  1.5924 -0.4126
   74MOL    C2329369   0.721   5.852   6.323  0.0763 -0.6046  0.0265
   74MOL    C2429370   0.708   5.987   6.295  1.0125  0.5485 -0.1311
   74MOL    C2529371   0.749   6.040   6.175 -0.0033 -0.2002  0.0723
   74MOL    C2629372   0.801   5.954   6.079 -0.0672  0.8388  0.3097
   74MOL    O2729373   0.828   6.007   5.953  0.2458 -0.0949 -0.1867
   74MOL    C2829374   0.846   5.922   5.842  0.5094 -0.2516 -0.8722
   74MOL    C2929375   0.817   5.811   6.105 -0.2787 -0.4407  0.7716
   74MOL    C3029376   0.779   5.766   6.232  0.4183 -0.2447  0.4003
   74MOL    C3129377   0.785   5.856   6.578 -0.2664 -0.5754  0.2878
   74MOL    H3229378   0.706   5.697   6.466 -0.7331  1.5272  1.8257
   74MOL    H3329379   0.669   6.052   6.372 -3.2443  0.2257 -1.9167
   74MOL    H3429380   0.736   6.145   6.153 -1.9568 -0.1196  1.4600
   74MOL    H3529381   0.747   5.880   5.825  0.5058 -1.5309  1.9307
   74MOL    H3629382   0.911   5.835   5.860 -0.3440 -1.2328 -2.4166
   74MOL    H3729383   0.874   5.974   5.751  0.9954 -0.5675 -0.9078
   74MOL    H3829384   0.870   5.742   6.042  0.2031 -0.8484  1.6023
   74MOL    H3929385   0.795   5.662   6.254 -0.7832 -0.8695 -1.5759
   74MOL    H4029386   0.771   5.964   6.582 -0.4416 -0.4659 -2.4827
   74MOL    H4129387   0.766   5.821   6.679  0.4090 -0.7971  0.3447
   74MOL    C4229388   0.930   5.809   6.557  0.1478 -0.7018 -0.0402
   74MOL    C4329389   0.944   5.659   6.549  0.5459  0.8303 -0.3198
   74MOL    C4429390   0.898   5.580   6.655  0.4513 -0.3255  0.0466
   74MOL    C4529391   0.912   5.445   6.653  0.2674 -0.6003  0.5603
   74MOL    C4629392   0.951   5.380   6.536 -0.9834 -0.6270  0.3394
   74MOL    O4729393   0.955   5.240   6.522 -0.8962 -0.0776  0.2002
   74MOL    C4829394   0.853   5.166   6.593  0.1398 -0.8567 -0.3497
   74MOL    C4929395   1.008   5.454   6.432 -0.8077 -1.0704 -0.7328
   74MOL    C5029396   0.994   5.591   6.436  0.7378 -0.1360  0.5128
   74MOL    C5129397   1.022   5.860   6.674  0.1995 -0.4566  1.3825
   74MOL    H5229398   0.965   5.851   6.463 -0.2996  1.0376  0.5480
   74MOL    H5329399   0.865   5.628   6.745  2.6191  0.9545  0.1925
   74MOL    H5429400   0.890   5.389   6.743  1.6297  0.8214  1.8223
   74MOL    H5529401   0.810   5.095   6.522  0.6453 -1.3564 -0.1622
   74MOL    H5629402   0.896   5.117   6.680  1.0276 -2.0912 -1.4734
   74MOL    H5729403   0.762   5.218   6.626  0.7099 -0.9753  1.4726
   74MOL    H5829404   1.042   5.409   6.339  2.6308 -1.4582  0.6236
   74MOL    H5929405   1.018   5.654   6.352  0.2137  1.9516  1.8767
   74MOL    H6029406   1.018   5.798   6.763  0.4954 -1.0902  0.9641
   74MOL    H6129407   0.981   5.948   6.722  0.3704  0.5619 -0.2826
   74MOL    C6229408   1.166   5.884   6.625 -0.1774 -0.2717  0.2555
   74MOL    C6329409   1.264   5.878   6.742  0.0095 -0.6274  0.4870
   74MOL    C6429410   1.246   5.951   6.855  0.3861 -0.2727 -0.0806
   74MOL    C6529411   1.323   5.924   6.970 -0.2265 -0.3378 -0.4985
   74MOL    C6629412   1.437   5.834   6.967 -0.2193 -0.2752  0.1437
   74MOL    O6729413   1.530   5.805   7.069  0.1029 -0.0431 -0.3092
   74MOL    C6829414   1.553   5.898   7.174 -0.8616  0.1567 -0.2910
   74MOL    C6929415   1.446   5.751   6.851  1.0538  0.0098 -0.6801
   74MOL    C7029416   1.365   5.773   6.737 -0.5206  0.3433 -0.2598
   74MOL    C7129417   1.175   6.005   6.531  0.0309 -0.1596  0.0529
   74MOL    H7229418   1.182   5.794   6.566  0.4039 -0.3513  0.5344
   74MOL    H7329419   1.172   6.030   6.861 -0.4454 -1.1114  1.0754
   74MOL    H7429420   1.298   5.990   7.052 -1.0434 -0.0339 -0.9865
   74MOL    H7529421   1.522   6.000   7.152 -1.1730  0.0751 -0.2207
   74MOL    H7629422   1.658   5.901   7.204 -0.7833  1.1460 -0.6133
   74MOL    H7729423   1.502   5.867   7.265  0.8110  1.4320  1.1274
   74MOL    H7829424   1.517   5.670   6.844  0.3636 -0.4870 -2.1219
   74MOL    H7929425   1.382   5.704   6.656 -0.8176 -0.9761  0.7738
   74MOL    H8029426   1.074   6.046   6.533 -0.3310 -1.0059 -0.4640
   74MOL    H8129427   1.230   6.083   6.583  0.4104 -0.6541  0.4081
   74MOL    C8229428   1.228   5.975   6.387  0.7741 -0.1740 -0.7918
   74MOL    C8329429   1.191   6.088   6.287  0.2275 -0.5493 -0.0255
   74MOL    C8429430   1.219   6.224   6.312 -0.1688  0.0243 -0.2767
   74MOL    C8529431   1.211   6.322   6.212  0.0032 -0.1205 -0.0909
   74MOL    C8629432   1.153   6.287   6.084  0.1077  0.2974 -0.7449
   74MOL    O8729433   1.159   6.377   5.981  0.4352  0.1304 -0.4934
   74MOL    C8829434   1.033   6.404   5.930  0.2902  0.2800  0.2881
   74MOL    C8929435   1.122   6.152   6.059  0.5680  0.2266 -0.5361
   74MOL    C9029436   1.136   6.055   6.161 -0.0640  0.0086 -0.7339
   74MOL    C9129437   1.378   5.943   6.388  0.6205  0.4748 -0.4274
   74MOL    H9229438   1.171   5.889   6.351 -1.8047  0.9901  0.3073
   74MOL    H9329439   1.253   6.252   6.411  0.9240 -0.1840 -0.5829
   74MOL    H9429440   1.244   6.425   6.221 -1.9365  0.6328 -1.2067
   74MOL    H9529441   0.977   6.459   6.006  1.8186  1.6912  0.4238
   74MOL    H9629442   0.986   6.319   5.880 -1.0729  0.8207  0.6052
   74MOL    H9729443   1.051   6.468   5.844 -0.0408 -1.9726 -1.5104
   74MOL    H9829444   1.096   6.110   5.963  0.3885 -2.6688  0.7175
   74MOL    H9929445   1.120   5.955   6.124  0.4350 -0.2829 -0.1700
   74MOL   H10029446   1.438   6.025   6.348  1.1730 -0.8367 -2.3747
   74MOL   H10129447   1.411   5.942   6.492  1.6517  0.7639 -0.7418
   74MOL   C10229448   1.417   5.805   6.336  0.6406 -0.2629 -0.0989
   74MOL   C10329449   1.355   5.763   6.199  0.2002 -0.4509  0.3084
   74MOL   C10429450   1.382   5.842   6.087  0.0094 -0.0025 -0.1873
   74MOL   C10529451   1.318   5.809   5.962  0.1272 -0.3094  0.0738
   74MOL   C10629452   1.224   5.707   5.955 -0.2261  0.1345  0.1510
   74MOL   O10729453   1.149   5.668   5.845  0.0130 -0.4649  0.2167
   74MOL   C10829454   1.174   5.736   5.721  0.0136  0.0596 -0.6491
   74MOL   C10929455   1.196   5.625   6.068  0.3805  0.1509 -0.5835
   74MOL   C11029456   1.260   5.659   6.189  0.3754  0.0030  0.6438
   74MOL   C11129457   1.569   5.782   6.331 -0.0035  0.7401 -0.0892
   74MOL   H11229458   1.364   5.731   6.395 -5.3289  2.2492 -1.9973
   74MOL   H11329459   1.440   5.933   6.096 -0.6342  0.3190  0.6338
   74MOL   H11429460   1.338   5.869   5.875 -1.5194  2.2116  1.3891
   74MOL   H11529461   1.172   5.845   5.721 -0.2794  0.0528 -0.6862
   74MOL   H11629462   1.274   5.709   5.686  0.0332 -0.1878 -0.3990
   74MOL   H11729463   1.100   5.701   5.649 -1.4456  1.8799 -0.0688
   74MOL   H11829464   1.127   5.542   6.065  1.5159 -0.8013 -0.6067
   74MOL   H11929465   1.215   5.614   6.276 -0.8151  0.8508  0.4799
   74MOL   H12029466   1.627   5.847   6.266  2.4697 -1.1957  0.1202
   74MOL   H12129467   1.604   5.812   6.430  1.7878  0.8699 -0.7509
   74MOL   C12229468   1.604   5.637   6.301  0.4986 -0.5671  0.2969
   74MOL   C12329469   1.567   5.545   6.425  0.3423 -0.3355  0.6437
   74MOL   C12429470   1.456   5.458   6.420  0.7026 -0.3228  0.2821
   74MOL   C12529471   1.437   5.362   6.514  0.5375 -0.1988 -0.4234
   74MOL   C12629472   1.518   5.349   6.629 -0.2614  1.0125 -0.4291
   74MOL   O12729473   1.497   5.252   6.723  0.5025  0.3366 -0.2869
   74MOL   C12829474   1.573   5.252   6.846 -0.5458  0.4406 -1.0152
   74MOL   C12929475   1.631   5.434   6.641  0.0584  0.3560  0.4807
   74MOL   C13029476   1.653   5.533   6.539 -0.2282 -0.2709  0.6698
   74MOL   C13129477   1.755   5.617   6.253  0.4003  0.8647 -0.5641
   74MOL   H13229478   1.544   5.594   6.221 -1.4671  0.9141  0.9365
   74MOL   H13329479   1.396   5.471   6.331  0.5288  2.5729  0.7518
   74MOL   H13429480   1.350   5.299   6.505  0.2741 -0.0541  0.9312
   74MOL   H13529481   1.668   5.207   6.815 -2.4886 -2.9345 -2.3992
   74MOL   H13629482   1.585   5.349   6.893  4.2073 -0.0339 -1.0180
   74MOL   H13729483   1.521   5.191   6.919  2.8699 -0.0800  1.0721
   74MOL   H13829484   1.695   5.439   6.728  0.2438  0.1180  0.3622
   74MOL   H13929485   1.731   5.606   6.556 -0.3478  0.1549 -0.5699
   74MOL   H14029486   1.772   5.509   6.254  0.6165  0.9035 -0.0142
   74MOL   H14129487   1.823   5.646   6.333 -0.7292 -2.5392  1.7776
   74MOL   C14229488   1.803   5.671   6.114  0.1974 -0.3708  0.2060
   74MOL   C14329489   1.931   5.601   6.067  0.4039 -0.2008  0.8027
   74MOL   C14429490   1.935   5.490   5.984 -0.2732 -0.3678  0.4819
   74MOL   C14529491   2.058   5.437   5.943 -0.4005  0.1675 -0.2950
   74MOL   C14629492   2.180   5.503   5.964  0.3507  0.1274 -0.0800
   74MOL   O14729493   2.297   5.447   5.915 -0.4608  0.0495  0.5168
   74MOL   C14829494   2.408   5.531   5.885  0.7889  0.1155  0.5118
   74MOL   C14929495   2.176   5.612   6.049  0.0624 -0.1773  0.7659
   74MOL   C15029496   2.055   5.664   6.099 -0.5453 -0.3178  0.5233
   74MOL   C15129497   1.702   5.668   6.002  0.1009  0.2256  0.1889
   74MOL   H15229498   1.823   5.777   6.134  1.2048 -0.3579 -0.7902
   74MOL   H15329499   1.847   5.431   5.962 -0.5526 -0.0633  0.7799
   74MOL   H15429500   2.057   5.352   5.877 -0.1465 -0.5600  0.6272
   74MOL   H15529501   2.467   5.554   5.974  0.7443  0.3537  0.4798
   74MOL   H15629502   2.475   5.479   5.816  1.2663 -0.1530  1.1696
   74MOL   H15729503   2.367   5.623   5.843  3.5044  1.1709  0.0821
   74MOL   H15829504   2.263   5.668   6.080  0.2028  1.5170 -2.4805
   74MOL   H15929505   2.063   5.745   6.169 -0.3905  1.9888 -2.0760
   74MOL   H16029506   1.608   5.709   6.040  0.8537  2.8520 -0.7295
   74MOL   H16129507   1.675   5.564   5.979  0.7861  0.1947 -0.4753
   74MOL   C16229508   1.749   5.736   5.874  0.1045  0.3239  0.3642
   74MOL   C16329509   1.778   5.883   5.883  0.3672  0.3465 -0.3658
   74MOL   C16429510   1.913   5.918   5.887  0.2149  0.0964 -0.4506
   74MOL   C16529511   1.951   6.052   5.909 -0.1861 -0.8400 -0.9969
   74MOL   C16629512   1.853   6.152   5.933 -0.6857 -0.3963 -0.6071
   74MOL   O16729513   1.883   6.284   5.962 -0.3257 -0.0249  0.1793
   74MOL   C16829514   2.003   6.316   6.039 -0.6708 -0.5630  1.1367
   74MOL   C16929515   1.720   6.120   5.913  0.2924 -0.7634 -0.5355
   74MOL   C17029516   1.681   5.987   5.893 -0.2610 -0.3947  0.1031
   74MOL   C17129517   1.642   5.696   5.765 -0.2828 -0.7105  0.3880
   74MOL   H17229518   1.838   5.692   5.830 -0.7028  0.8051 -1.8197
   74MOL   H17329519   1.993   5.847   5.896  1.7822  0.8699 -5.9804
   74MOL   H17429520   2.055   6.071   5.929 -0.3905  0.0616 -0.7508
   74MOL   H17529521   2.091   6.254   6.020 -0.1309  0.6677 -0.5085
   74MOL   H17629522   1.974   6.306   6.143 -0.1969 -0.0593  1.3229
   74MOL   H17729523   2.029   6.416   6.005  0.2701 -0.5609  1.8457
   74MOL   H17829524   1.651   6.201   5.931  3.0936  1.5756  0.2862
   74MOL   H17929525   1.578   5.956   5.883 -0.0975 -1.3738  1.3186
   74MOL   H18029526   1.549   5.739   5.801  0.5766  0.0731  1.7523
   74MOL   H18129527   1.624   5.589   5.756  0.3059 -0.7935  0.1634
   74MOL   C18229528   1.668   5.756   5.624  0.7719  0.6402  0.4287
   74MOL   C18329529   1.541   5.746   5.532 -0.4862 -0.3891  0.2679
   74MOL   C18429530   1.452   5.859   5.531  0.2344  0.6663  0.3795
   74MOL   C18529531   1.328   5.854   5.463 -0.3969 -0.9434  0.0896
   74MOL   C18629532   1.293   5.737   5.393  0.5979  0.1068 -0.0265
   74MOL   O18729533   1.171   5.742   5.332  0.4927  0.1429 -0.0149
   74MOL   C18829534   1.107   5.618   5.312  0.0940 -0.1257  0.0307
   74MOL   C18929535   1.380   5.623   5.395  0.3211 -0.0411 -0.3845
   74MOL   C19029536   1.499   5.629   5.470 -0.0438  0.6345  0.1072
   74MOL   C19129537   1.794   5.695   5.558 -0.5030  0.8093  0.5089
   74MOL   H19229538   1.687   5.864   5.629 -2.3324  1.2841 -0.6428
   74MOL   H19329539   1.468   5.953   5.582  1.1957  0.0457  1.2548
   74MOL   H19429540   1.268   5.943   5.472 -0.6208 -1.0606 -0.2371
   74MOL   H19529541   1.168   5.566   5.238  1.4045  0.9465  0.3421
   74MOL   H19629542   1.003   5.615   5.279  0.8239  2.8088 -2.7777
   74MOL   H19729543   1.102   5.558   5.403  1.1919 -1.7700 -0.9785
   74MOL   H19829544   1.364   5.539   5.329 -0.4588  1.2414 -1.8661
   74MOL   H19929545   1.562   5.542   5.476 -1.1961 -0.1509  1.2020
   74MOL   H20029546   1.818   5.606   5.616 -3.2337 -0.1008  0.3180
   74MOL   H20129547   1.773   5.650   5.461  0.4647  0.8960  0.2532
   74MOL   C20229548   1.911   5.796   5.542 -0.1711  0.0346 -1.1022
   74MOL   C20329549   1.873   5.907   5.450 -0.5784 -0.6894  0.0469
   74MOL   C20429550   1.848   5.891   5.309  0.0134  0.1035  0.1951
   74MOL   C20529551   1.840   6.005   5.231 -0.0113 -0.3565 -0.0205
   74MOL   C20629552   1.851   6.133   5.285  0.3991  0.5085 -0.5211
   74MOL   O20729553   1.834   6.239   5.199 -0.5575  0.5736 -0.6556
   74MOL   C20829554   1.906   6.354   5.236  0.2161 -0.2187  0.3913
   74MOL   C20929555   1.871   6.149   5.425 -0.1643 -0.7500 -0.0551
   74MOL   C21029556   1.875   6.037   5.507 -0.3812  0.0738  0.0337
   74MOL   C21129557   2.037   5.720   5.494  1.0451  0.1080  0.0223
   74MOL   H21229558   1.937   5.829   5.643 -2.1675 -1.0358 -0.2062
   74MOL   H21329559   1.848   5.796   5.258 -2.6000 -0.5072  1.2639
   74MOL   H21429560   1.828   5.987   5.125 -1.3711 -0.4609  0.1420
   74MOL   H21529561   1.938   6.407   5.146  0.0142  1.6534  1.3922
   74MOL   H21629562   1.843   6.427   5.287  0.4213  0.0812  0.2200
   74MOL   H21729563   1.999   6.341   5.291  0.8237  2.6388  0.1258
   74MOL   H21829564   1.888   6.248   5.465  1.8624  0.1905 -3.0308
   74MOL   H21929565   1.893   6.045   5.613  1.1067 -0.2871 -0.1722
   74MOL   H22029566   2.010   5.661   5.406  0.3397 -0.3574  0.5507
   74MOL   H22129567   2.064   5.653   5.575  0.4321 -1.8247 -1.3422
   74MOL   C22229568   2.169   5.805   5.467 -0.5247 -0.6811 -1.2228
   74MOL   C22329569   2.202   5.886   5.594 -0.0543 -0.2486 -0.5531
   74MOL   C22429570   2.207   6.025   5.586  0.0775  0.1078  0.5431
   74MOL   C22529571   2.244   6.101   5.699 -0.1948  0.0475  0.2797
   74MOL   C22629572   2.285   6.038   5.822 -0.6550 -0.4768  0.8646
   74MOL   O22729573   2.328   6.125   5.924  0.0417 -0.0645 -0.2257
   74MOL   C22829574   2.392   6.069   6.036  0.1918 -0.2927  0.1327
   74MOL   C22929575   2.279   5.897   5.827 -0.0563 -0.0644  0.6664
   74MOL   C23029576   2.233   5.822   5.714  0.0628  0.1279  0.1823
   74MOL   C23129577   2.299   5.738   5.414 -1.0781  0.2465 -0.3256
   74MOL   H23229578   2.153   5.879   5.389  0.0572  0.2412 -0.4725
   74MOL   H23329579   2.172   6.081   5.500  0.8400 -0.9754 -0.4858
   74MOL   H23429580   2.244   6.209   5.702  0.1572  0.0428  0.4409
   74MOL   H23529581   2.424   6.144   6.108  1.5863 -0.3171 -0.4424
   74MOL   H23629582   2.333   6.006   6.103  0.3034 -1.7853 -1.1416
   74MOL   H23729583   2.488   6.022   6.012 -0.5949 -0.5745 -2.5578
   74MOL   H23829584   2.310   5.845   5.916 -1.3557 -0.6572  0.7872
   74MOL   H23929585   2.219   5.715   5.720  0.2677  0.1261  0.7305
   74MOL   H24029586   2.385   5.800   5.440 -0.0078 -1.0457 -0.7758
   74MOL   H24129587   2.317   5.648   5.472 -2.2613  0.4523  0.3830
   74MOL   C24229588   2.300   5.704   5.266  0.2739 -0.0025  0.2151
   74MOL   C24329589   2.330   5.832   5.186  0.4080  0.3418  0.1611
   74MOL   C24429590   2.225   5.900   5.120 -0.9247 -0.3017 -0.0821
   74MOL   C24529591   2.246   6.030   5.064 -0.4540  0.7626 -0.7133
   74MOL   C24629592   2.376   6.087   5.056 -0.1209 -0.2858 -0.9689
   74MOL   O24729593   2.395   6.210   4.997  0.3131  0.0744  0.1656
   74MOL   C24829594   2.294   6.271   4.907 -0.5234  0.6423 -0.2630
   74MOL   C24929595   2.482   6.016   5.110  0.8095  0.6400 -0.0219
   74MOL   C25029596   2.459   5.895   5.186 -0.1569 -0.3921  0.8733
   74MOL   C25129597   2.418   5.604   5.256 -0.5603 -0.5809 -0.1725
   74MOL   H25229598   2.204   5.664   5.235  0.1424 -0.2541  0.9484
   74MOL   H25329599   2.123   5.865   5.129 -0.9626 -0.4444 -1.0486
   74MOL   H25429600   2.165   6.089   5.024  0.0640  0.3946 -2.3407
   74MOL   H25529601   2.328   6.369   4.875  1.4541  0.0844  0.0583
   74MOL   H25629602   2.278   6.215   4.814  1.5075  0.2673 -0.4039
   74MOL   H25729603   2.200   6.296   4.955  0.0364 -0.2799  1.3427
   74MOL   H25829604   2.581   6.058   5.099  1.6294 -0.7691  1.6399
   74MOL   H25929605   2.530   5.857   5.258  1.4627 -1.3200 -1.1560
   74MOL   H26029606   2.396   5.520   5.323  0.0903  0.0703  0.8746
   74MOL   H26129607   2.513   5.637   5.300 -1.6515 -0.2693  2.0259
   74MOL   C26229608   2.441   5.554   5.115  0.5244 -0.4049 -0.2593
   74MOL   C26329609   2.313   5.483   5.069  0.2470 -0.7083  0.4478
   74MOL   C26429610   2.285   5.352   5.111  0.2891 -0.4826  0.4206
   74MOL   C26529611   2.162   5.283   5.086  0.4830 -0.2140 -0.3992
   74MOL   C26629612   2.066   5.352   5.016 -0.4195 -0.7184 -0.1580
   74MOL   O26729613   1.952   5.280   4.997  0.1410 -0.0459 -0.1101
   74MOL   C26829614   1.842   5.339   4.926  0.5952  0.5418 -0.0482
   74MOL   C26929615   2.087   5.489   4.979 -0.4710  0.8925 -0.2167
   74MOL   C27029616   2.211   5.556   4.996  0.3005 -0.0227 -0.3788
   74MOL   C27129617   2.567   5.469   5.106 -0.2587 -0.0458  0.3604
   74MOL   H27229618   2.469   5.642   5.058 -0.7097  0.3612  0.3046
   74MOL   H27329619   2.364   5.307   5.170  0.3587 -0.9802 -0.0516
   74MOL   H27429620   2.141   5.182   5.116 -1.1370  0.5995  1.2926
   74MOL   H27529621   1.852   5.320   4.819  2.7570 -0.0730  0.2250
   74MOL   H27629622   1.837   5.448   4.926 -1.7735  0.4551 -0.4438
   74MOL   H27729623   1.748   5.295   4.957  1.4310 -1.1286  0.1884
   74MOL   H27829624   2.015   5.543   4.918  0.8790  0.2886 -2.3811
   74MOL   H27929625   2.230   5.655   4.958  0.6151 -1.0938 -3.0648
   74MOL   H28029626   2.557   5.400   5.189 -1.2244 -0.7201 -0.2993
   74MOL   H28129627   2.567   5.417   5.010 -0.1831 -1.7684  1.2881
   74MOL   C28229628   2.701   5.544   5.118  0.0003 -0.0360  0.4262
   74MOL   C28329629   2.758   5.552   4.974  0.2472 -0.8025  0.1632
   74MOL   C28429630   2.843   5.452   4.918  0.4800 -0.1602 -0.6703
   74MOL   C28529631   2.915   5.471   4.801 -0.2615 -0.3545 -0.7038
   74MOL   C28629632   2.917   5.594   4.735  0.8069  0.9611  0.2974
   74MOL   O28729633   2.976   5.599   4.613  0.2384 -0.3168  0.4624
   74MOL   C28829634   3.020   5.730   4.568  0.0928 -0.4414 -0.5238
   74MOL   C28929635   2.841   5.702   4.790 -0.1766  0.2785  0.8308
   74MOL   C29029636   2.764   5.680   4.909  0.2410  0.3310  0.0342
   74MOL   C29129637   2.793   5.464   5.210  0.7803  0.1890  0.1674
   74MOL   H29229638   2.674   5.645   5.150 -2.2995 -0.8829  1.3436
   74MOL   H29329639   2.849   5.352   4.960 -2.3871  0.2977  0.9716
   74MOL   H29429640   2.980   5.391   4.769  0.0946 -0.3003 -0.1251
   74MOL   H29529641   2.941   5.796   4.533  0.8258 -0.2370 -1.8498
   74MOL   H29629642   3.076   5.776   4.649 -1.1469 -0.2175  0.2100
   74MOL   H29729643   3.093   5.731   4.487  1.2293 -0.2916  0.4939
   74MOL   H29829644   2.846   5.802   4.750  1.3283  0.5360  1.6605
   74MOL   H29929645   2.707   5.759   4.955  0.1210 -1.2505  2.7581
   74MOL   H30029646   2.748   5.455   5.309 -0.1418 -0.2560 -0.2857
   74MOL   H30129647   2.805   5.363   5.169  0.6264  0.4024 -0.4046
   74MOL   C30229648   2.936   5.522   5.225 -0.5868  0.1650 -0.5863
   74MOL   C30329649   2.948   5.644   5.318  0.3232 -0.0873 -0.0508
   74MOL   C30429650   2.972   5.770   5.269  0.1632 -0.1342  0.2823
   74MOL   C30529651   2.986   5.884   5.359  0.0159 -0.5716 -0.2408
   74MOL   C30629652   2.978   5.866   5.496  0.4730  0.0358 -0.0722
   74MOL   O30729653   2.986   5.970   5.590  0.1721 -0.6354  0.5748
   74MOL   C30829654   3.001   6.109   5.544  0.0508 -0.4174 -0.4243
   74MOL   C30929655   2.955   5.737   5.543 -0.3465 -0.1646 -0.0781
   74MOL   C31029656   2.939   5.629   5.456  0.4499  0.1050 -0.3837
   74MOL   C31129657   3.043   5.415   5.258 -0.0669  0.0723  0.5210
   74MOL   H31229658   2.967   5.554   5.126  1.1077 -1.5887 -0.6547
   74MOL   H31329659   2.996   5.783   5.164 -1.4903 -1.3353 -0.2637
   74MOL   H31429660   3.025   5.976   5.319  0.9112 -0.3257  1.1834
   74MOL   H31529661   3.103   6.135   5.517 -0.1863  1.1483  0.1136
   74MOL   H31629662   2.968   6.183   5.618 -0.0305 -0.9478  0.0734
   74MOL   H31729663   2.938   6.123   5.457 -1.4562  1.3368  0.9024
   74MOL   H31829664   2.955   5.713   5.648  0.5517 -0.9974 -0.2635
   74MOL   H31929665   2.924   5.535   5.506  0.7521  1.5088  2.4446
   74MOL   H32029666   3.041   5.330   5.189  0.5429  1.6549 -1.4949
   74MOL   H32129667   3.032   5.378   5.360 -0.0830 -2.4348 -0.3514
   74MOL   C32229668   3.185   5.468   5.256  0.4661 -0.1572  0.7433
   74MOL   C32329669   3.227   5.525   5.114 -0.7782  0.1233  0.7701
   74MOL   C32429670   3.187   5.466   4.992 -0.4372  0.2369 -0.2721
   74MOL   C32529671   3.238   5.514   4.868  0.0589  0.1308 -0.7364
   74MOL   C32629672   3.313   5.628   4.855 -0.1024 -0.5654  0.2546
   74MOL   O32729673   3.367   5.684   4.743 -0.1198  0.5152 -0.0200
   74MOL   C32829674   3.377   5.594   4.636  0.5070  0.6624  0.2668
   74MOL   C32929675   3.343   5.693   4.975 -0.8548  0.3379  0.2983
   74MOL   C33029676   3.310   5.638   5.103  0.3762 -0.3544  0.3587
   74MOL   C33129677   3.289   5.363   5.303 -0.8737 -0.4155 -0.5706
   74MOL   H33229678   3.203   5.547   5.329 -2.1885  2.0286 -0.8886
   74MOL   H33329679   3.120   5.383   5.000 -2.2074  1.6576 -0.0928
   74MOL   H33429680   3.208   5.457   4.781 -0.9258  0.0712 -0.3660
   74MOL   H33529681   3.284   5.581   4.579 -0.5629  1.7419  1.7281
   74MOL   H33629682   3.424   5.501   4.668 -0.4404  0.8511  2.2819
   74MOL   H33729683   3.453   5.637   4.572  1.0923 -0.0466  0.4775
   74MOL   H33829684   3.413   5.775   4.967 -1.2886  0.8860  1.8522
   74MOL   H33929685   3.342   5.689   5.193  1.0422  0.9150 -0.5901
   74MOL   H34029686   3.378   5.423   5.321 -1.0144 -0.8133  1.6995
   74MOL   H34129687   3.256   5.320   5.398  1.1054 -2.0320 -0.5882
   74MOL   C34229688   3.326   5.246   5.206 -0.2994 -0.0348  0.9330
   74MOL   C34329689   3.334   5.102   5.262  0.3115 -0.0651  0.1814
   74MOL   C34429690   3.423   5.079   5.366  0.5073 -0.5673  0.1676
   74MOL   C34529691   3.421   4.957   5.426 -0.7729 -0.4599 -0.0189
   74MOL   C34629692   3.340   4.849   5.384 -0.2351  0.4165 -0.5515
   74MOL   O34729693   3.348   4.723   5.441  0.6961 -0.4830 -0.0821
   74MOL   C34829694   3.449   4.691   5.532  0.1393 -0.7288  0.0735
   74MOL   C34929695   3.250   4.876   5.277 -0.2696 -0.1135 -0.1311
   74MOL   C35029696   3.245   5.000   5.214 -0.9337  0.0599  0.2038
   74MOL   C35129697   3.459   5.290   5.135  0.5533 -0.9137  0.5038
   74MOL   H35229698   3.249   5.236   5.130  0.5703 -1.9263  0.2580
   74MOL   H35329699   3.480   5.158   5.414  0.3345 -0.7096  0.6142
   74MOL   H35429700   3.481   4.946   5.515  0.3650  2.0901 -0.4367
   74MOL   H35529701   3.544   4.721   5.487  0.9407 -2.1118  0.8075
   74MOL   H35629702   3.447   4.748   5.625 -1.7764 -1.8668  0.7548
   74MOL   H35729703   3.446   4.585   5.558  0.7079 -0.5225  1.0383
   74MOL   H35829704   3.194   4.797   5.229 -0.0731 -0.1116 -0.3655
   74MOL   H35929705   3.179   5.021   5.132 -0.1235 -1.4192 -0.8765
   74MOL   H36029706   3.436   5.391   5.101 -1.4282 -1.1711  0.9871
   74MOL   H36129707   3.544   5.277   5.202  1.7959 -0.2642 -0.9422
   74MOL   C36229708   3.500   5.205   5.010 -0.7745  0.0057 -0.7177
   74MOL   C36329709   3.627   5.286   4.960 -0.6443  0.6950  0.2396
   74MOL   C36429710   3.619   5.411   4.893 -0.0093  0.1005 -0.2001
   74MOL   C36529711   3.740   5.472   4.855 -0.7914  0.4862 -0.2499
   74MOL   C36629712   3.865   5.407   4.868  0.3402  0.2095 -0.3430
   74MOL   O36729713   3.992   5.456   4.823 -0.9194 -0.6321 -0.5098
   74MOL   C36829714   3.990   5.599   4.795 -0.7857  0.1541 -0.1169
   74MOL   C36929715   3.866   5.283   4.931 -0.0192 -0.3410 -0.4629
   74MOL   C37029716   3.752   5.227   4.986  0.4359  0.1038  0.0958
   74MOL   C37129717   3.399   5.181   4.901 -0.3360  0.2661  0.2373
   74MOL   H37229718   3.535   5.110   5.051 -1.9279 -0.5918 -1.0976
   74MOL   H37329719   3.523   5.452   4.867  0.0944 -0.9099 -2.2543
   74MOL   H37429720   3.736   5.564   4.797  2.1288 -0.1162 -1.5374
   74MOL   H37529721   3.929   5.649   4.870  1.0567 -1.6134  2.6533
   74MOL   H37629722   4.088   5.645   4.801 -0.2361 -0.9388 -0.6494
   74MOL   H37729723   3.936   5.623   4.702 -3.6602  1.7812  1.8753
   74MOL   H37829724   3.952   5.219   4.943  0.5014  0.0398 -2.0566
   74MOL   H37929725   3.747   5.138   5.047 -0.1547 -0.1079 -0.2553
   74MOL   H38029726   3.327   5.106   4.934 -0.0124  0.3557  1.1760
   74MOL   H38129727   3.333   5.268   4.901 -1.4033 -0.5379 -1.1133
   74MOL   C38229728   3.453   5.146   4.752  0.0377  0.3747 -0.4087
   74MOL   C38329729   3.331   5.153   4.659  0.5200 -0.3081 -1.1509
   74MOL   C38429730   3.324   5.254   4.556 -0.1878  0.4736 -0.1172
   74MOL   C38529731   3.203   5.271   4.490  0.4829 -0.1793  0.3931
   74MOL   C38629732   3.092   5.186   4.512 -0.0006  0.1897  0.5684
   74MOL   O38729733   2.972   5.198   4.449 -0.4902 -0.4267 -0.2037
   74MOL   C38829734   2.960   5.302   4.356  0.2484  0.2110  0.1078
   74MOL   C38929735   3.107   5.075   4.597  0.0905 -0.0088  0.1901
   74MOL   C39029736   3.223   5.063   4.679  0.1094 -0.2056 -0.3787
   74MOL   C39129737   3.538   5.009   4.748  0.6500 -0.1335  0.1477
   74MOL   H39229738   3.512   5.235   4.732 -0.1581  1.1473  2.2236
   74MOL   H39329739   3.407   5.321   4.538  0.8278 -0.6609  0.2339
   74MOL   H39429740   3.207   5.333   4.401  2.3757  1.1606  1.3664
   74MOL   H39529741   3.020   5.277   4.269  0.0108  1.0517 -0.2997
   74MOL   H39629742   2.990   5.400   4.394 -3.1097  0.4812  2.2769
   74MOL   H39729743   2.858   5.322   4.325  0.7719 -1.1914 -2.6746
   74MOL   H39829744   3.026   5.005   4.598 -1.2849  1.4820  4.5364
   74MOL   H39929745   3.235   4.997   4.764 -1.6363  1.2471  1.0481
   74MOL   H40029746   3.609   5.009   4.666 -0.1742 -0.3169 -0.5821
   74MOL   H40129747   3.480   4.917   4.759 -0.4113  0.3448 -1.2624
   74MOL   H40229748   3.597   5.011   4.839  1.4555  2.4639 -0.4054
   75MOL     C129749   6.552   1.191   3.336 -0.2038 -0.1823  0.5267
   75MOL     C229750   6.513   1.225   3.483 -0.0873 -0.0483  0.9580
   75MOL     C329751   6.530   1.359   3.525 -0.3540  1.1864  0.0221
   75MOL     C429752   6.516   1.395   3.660  0.5184  0.5038 -0.0474
   75MOL     C529753   6.475   1.302   3.756  0.1344  0.1489 -0.5782
   75MOL     O629754   6.444   1.352   3.882  0.0506  0.7128  0.0911
   75MOL     C729755   6.416   1.262   3.979 -0.1977 -0.1668 -0.0408
   75MOL     C829756   6.462   1.170   3.713  0.2116 -0.2960 -0.0012
   75MOL     C929757   6.495   1.130   3.582 -0.3092  0.5806  0.1784
   75MOL    C1029758   6.698   1.212   3.299 -0.8065 -0.2103 -0.6070
   75MOL    H1129759   6.480   1.244   3.273 -0.3775  0.9266  1.6252
   75MOL    H1229760   6.569   1.431   3.455  1.8530 -0.1558 -0.1623
   75MOL    H1329761   6.530   1.498   3.689  1.7531  0.0446  1.0584
   75MOL    H1429762   6.348   1.180   3.953  0.0834 -0.6529  0.7338
   75MOL    H1529763   6.513   1.215   3.995  0.3398  0.9559  0.0302
   75MOL    H1629764   6.380   1.308   4.072 -0.9775  0.5411 -0.6851
   75MOL    H1729765   6.440   1.084   3.774 -1.0278  0.9648  1.3611
   75MOL    H1829766   6.482   1.026   3.555 -1.8034  0.6741  0.5046
   75MOL    H1929767   6.724   1.317   3.307  0.7389 -0.5293 -1.2571
   75MOL    H2029768   6.762   1.155   3.367  2.6343  1.1571 -2.5605
   75MOL    H2129769   6.526   1.087   3.318  0.8100 -0.1374 -1.2655
   75MOL    C2229770   6.728   1.184   3.153 -0.1416  0.1097  0.6993
   75MOL    C2329771   6.631   1.249   3.051  0.2792 -0.3321 -0.7686
   75MOL    C2429772   6.562   1.163   2.963  0.3467  0.0519  0.1196
   75MOL    C2529773   6.470   1.219   2.873 -0.5438  0.2912  0.2436
   75MOL    C2629774   6.459   1.360   2.856  0.0812 -0.0935  0.1818
   75MOL    O2729775   6.366   1.397   2.770  0.8225 -0.2854 -0.3644
   75MOL    C2829776   6.347   1.534   2.737  0.1054  0.5961 -0.5472
   75MOL    C2929777   6.515   1.446   2.958 -0.0688  0.6800  1.2754
   75MOL    C3029778   6.602   1.388   3.049 -0.5547 -0.2360 -0.5984
   75MOL    C3129779   6.870   1.233   3.124 -0.3337  0.4677 -0.5755
   75MOL    H3229780   6.727   1.076   3.138 -0.6780  0.3902 -1.5066
   75MOL    H3329781   6.563   1.055   2.967  0.7695  0.1091  2.0154
   75MOL    H3429782   6.417   1.158   2.802 -0.6939 -0.7098  1.2180
   75MOL    H3529783   6.270   1.542   2.660 -0.5697 -1.0099 -0.0481
   75MOL    H3629784   6.439   1.584   2.707  0.0353  0.2737 -1.3043
   75MOL    H3729785   6.304   1.588   2.822 -0.1447 -1.9708  0.9925
   75MOL    H3829786   6.483   1.549   2.954 -1.0002  0.3478  0.1262
   75MOL    H3929787   6.647   1.456   3.120  1.4407 -3.0178  0.9146
   75MOL    H4029788   6.862   1.281   3.026 -1.2841 -0.1792 -0.8287
   75MOL    H4129789   6.891   1.322   3.183 -0.4800 -2.3666  3.9341
   75MOL    C4229790   6.983   1.129   3.126 -0.3340 -0.0622 -0.3463
   75MOL    C4329791   7.036   1.099   3.266  0.4639  0.0778 -0.5413
   75MOL    C4429792   7.019   0.972   3.328  0.0863  0.8324 -0.7652
   75MOL    C4529793   7.064   0.956   3.457 -0.2315  0.3369 -0.3222
   75MOL    C4629794   7.133   1.055   3.529 -0.3003  0.3769  0.2769
   75MOL    O4729795   7.158   1.021   3.660  0.8987  0.1142  0.0060
   75MOL    C4829796   7.225   1.123   3.736 -0.0374  0.2402  0.0074
   75MOL    C4929797   7.155   1.174   3.468 -0.3367 -0.4933  0.9600
   75MOL    C5029798   7.113   1.199   3.334  0.0148  0.9121 -1.3496
   75MOL    C5129799   7.104   1.149   3.025  0.5307  0.2310  0.2428
   75MOL    H5229800   6.938   1.035   3.094  0.8181 -0.7641  0.0546
   75MOL    H5329801   6.964   0.899   3.271  2.2868  0.0864 -2.0058
   75MOL    H5429802   7.050   0.861   3.507 -0.3117  0.2876 -0.4398
   75MOL    H5529803   7.246   1.090   3.838 -0.2559  1.2477  0.3799
   75MOL    H5629804   7.321   1.124   3.686 -0.6037 -1.7297 -1.1533
   75MOL    H5729805   7.165   1.214   3.729  0.0211  0.4185  1.5661
   75MOL    H5829806   7.200   1.260   3.513 -2.4100  1.2461 -0.1597
   75MOL    H5929807   7.134   1.297   3.293 -3.4172  1.4563 -1.9446
   75MOL    H6029808   7.176   1.067   3.024 -0.7640 -0.9291 -1.6376
   75MOL    H6129809   7.169   1.232   3.055 -2.0209  1.7635  1.6921
   75MOL    C6229810   7.065   1.165   2.874 -0.3402  0.7792  0.0564
   75MOL    C6329811   6.972   1.054   2.828  0.1478 -0.7638  0.1383
   75MOL    C6429812   6.837   1.083   2.794 -0.6495 -0.0912  0.7524
   75MOL    C6529813   6.752   0.972   2.755 -0.5112 -0.4889 -0.7296
   75MOL    C6629814   6.803   0.841   2.743 -0.4128 -0.0876  0.0906
   75MOL    O6729815   6.710   0.746   2.705 -0.4858  0.3081  0.1831
   75MOL    C6829816   6.753   0.614   2.697  0.4508 -0.3679  0.1034
   75MOL    C6929817   6.940   0.816   2.771  0.2039  0.4579 -0.1424
   75MOL    C7029818   7.024   0.919   2.812 -0.6229 -0.2704  0.3682
   75MOL    C7129819   7.185   1.189   2.783 -0.3261 -0.0950 -0.3417
   75MOL    H7229820   7.006   1.256   2.867  0.8541  1.4614 -1.2025
   75MOL    H7329821   6.798   1.183   2.804  0.5141  0.2893  1.7067
   75MOL    H7429822   6.647   0.997   2.745  0.3021  1.9927 -3.6765
   75MOL    H7529823   6.677   0.542   2.667 -0.0089 -0.2825  1.0515
   75MOL    H7629824   6.781   0.572   2.793  1.3565  1.3211  0.6014
   75MOL    H7729825   6.833   0.590   2.627  0.2000  1.3843 -0.8124
   75MOL    H7829826   6.983   0.718   2.759 -0.9921 -0.5337  3.1426
   75MOL    H7929827   7.128   0.897   2.830 -0.1530  0.9965 -0.7238
   75MOL    H8029828   7.236   1.266   2.841 -0.4527 -0.4112  0.1914
   75MOL    H8129829   7.263   1.112   2.782 -1.1021 -0.8920  0.3275
   75MOL    C8229830   7.164   1.234   2.630  0.2713 -0.1250 -0.3050
   75MOL    C8329831   7.159   1.120   2.534  0.0550  0.1029  0.3392
   75MOL    C8429832   7.041   1.038   2.517  0.1471  0.2669  0.3128
   75MOL    C8529833   7.037   0.938   2.423  0.9102 -0.4284  0.4734
   75MOL    C8629834   7.140   0.914   2.336 -0.1808 -0.7337  0.5479
   75MOL    O8729835   7.142   0.801   2.258 -0.6628  0.8302  0.2286
   75MOL    C8829836   7.020   0.751   2.212  0.3571 -0.7311 -0.4737
   75MOL    C8929837   7.251   0.999   2.343  0.0024  1.5192 -0.9080
   75MOL    C9029838   7.266   1.102   2.445  0.0167  0.1733  0.1981
   75MOL    C9129839   7.037   1.323   2.610 -0.0366 -0.5567 -0.1045
   75MOL    H9229840   7.248   1.299   2.607 -1.3318  2.2039  0.1858
   75MOL    H9329841   6.957   1.051   2.584 -0.9609 -1.6721 -0.6718
   75MOL    H9429842   6.945   0.883   2.419  1.4122 -1.1877 -0.8917
   75MOL    H9529843   6.952   0.833   2.187 -1.3162 -2.4745 -1.8357
   75MOL    H9629844   6.975   0.702   2.299  1.3863 -0.9865 -0.0849
   75MOL    H9729845   7.041   0.685   2.128  0.5139 -0.7518 -0.4178
   75MOL    H9829846   7.328   0.991   2.269  1.1588  1.6125  0.2591
   75MOL    H9929847   7.355   1.163   2.445  1.2732 -1.6059  0.0485
   75MOL   H10029848   7.015   1.342   2.504 -0.3653  0.3194  0.1160
   75MOL   H10129849   6.947   1.272   2.645 -0.1902  1.9249  3.3377
   75MOL   C10229850   7.065   1.462   2.676  0.0784  0.5168  0.8911
   75MOL   C10329851   7.155   1.545   2.589  0.1798  0.2685 -0.5456
   75MOL   C10429852   7.252   1.617   2.662 -0.0449 -0.0328  0.4101
   75MOL   C10529853   7.328   1.712   2.600 -0.5204 -0.1637  0.0326
   75MOL   C10629854   7.322   1.731   2.460  0.2582  0.0702 -0.8196
   75MOL   O10729855   7.410   1.819   2.400 -0.1700  0.1221  0.2799
   75MOL   C10829856   7.403   1.852   2.264 -0.5765  0.7010 -0.5208
   75MOL   C10929857   7.235   1.652   2.382  0.0609 -0.8662  0.2214
   75MOL   C11029858   7.148   1.558   2.450 -0.5419  0.2131 -0.0632
   75MOL   C11129859   6.925   1.531   2.698  1.0195  0.4149 -0.1596
   75MOL   H11229860   7.115   1.436   2.769  1.5176  0.2651  0.0613
   75MOL   H11329861   7.264   1.598   2.767  0.2727  2.3222  0.8459
   75MOL   H11429862   7.396   1.768   2.662  1.5979 -1.2374 -1.2818
   75MOL   H11529863   7.303   1.891   2.248 -0.1067  3.1284  2.0547
   75MOL   H11629864   7.462   1.938   2.232 -2.9126  2.6113  0.1911
   75MOL   H11729865   7.417   1.761   2.205 -1.8066  0.2080 -0.0702
   75MOL   H11829866   7.210   1.665   2.278 -1.3330  0.4611  0.7069
   75MOL   H11929867   7.081   1.506   2.383  0.2714 -0.2912 -0.4964
   75MOL   H12029868   6.867   1.525   2.606 -0.9499  2.3374  0.9358
   75MOL   H12129869   6.878   1.457   2.763  0.2230 -0.7253 -2.0158
   75MOL   C12229870   6.898   1.657   2.778  0.3218 -0.0183 -0.1565
   75MOL   C12329871   7.007   1.686   2.882 -0.9322  0.5858 -0.0955
   75MOL   C12429872   7.022   1.591   2.985 -0.5097 -0.4192 -0.6047
   75MOL   C12529873   7.112   1.616   3.094 -0.1611  0.0654  0.0826
   75MOL   C12629874   7.180   1.743   3.099 -0.6197 -0.5471  0.2989
   75MOL   O12729875   7.252   1.772   3.216  0.1071 -0.1093 -0.2235
   75MOL   C12829876   7.318   1.899   3.226  0.4933 -0.0328  0.5111
   75MOL   C12929877   7.159   1.837   2.993  0.1159 -0.3673  0.8226
   75MOL   C13029878   7.082   1.809   2.878  0.4577 -0.2206  0.0356
   75MOL   C13129879   6.755   1.662   2.833 -0.3138  0.0818  0.3069
   75MOL   H13229880   6.897   1.736   2.703  1.3609  0.4275  0.2974
   75MOL   H13329881   6.973   1.497   2.966 -0.2791  0.0177 -3.5145
   75MOL   H13429882   7.116   1.548   3.178 -0.8270 -2.4907 -1.8872
   75MOL   H13529883   7.417   1.905   3.180 -0.2471  1.9728 -0.8995
   75MOL   H13629884   7.255   1.982   3.193  2.0842  0.9624 -0.0547
   75MOL   H13729885   7.326   1.909   3.334  1.1392  0.3990  0.4293
   75MOL   H13829886   7.212   1.931   3.003 -0.0248 -0.2776  0.7184
   75MOL   H13929887   7.058   1.885   2.806  0.5048 -0.1125  0.1327
   75MOL   H14029888   6.756   1.574   2.897  0.6321  0.5396  0.9381
   75MOL   H14129889   6.690   1.638   2.749  0.0271  0.9620 -0.2128
   75MOL   C14229890   6.710   1.794   2.902 -0.2026  0.7243 -0.1944
   75MOL   C14329891   6.561   1.814   2.866 -0.1178 -0.4111  0.2709
   75MOL   C14429892   6.530   1.858   2.733  0.2695  0.0560  0.5234
   75MOL   C14529893   6.397   1.874   2.691 -0.2451  0.1253  0.4679
   75MOL   C14629894   6.288   1.861   2.781  0.1662  0.3916 -0.3269
   75MOL   O14729895   6.154   1.868   2.752 -0.5588  0.0417 -0.2044
   75MOL   C14829896   6.122   1.893   2.617 -0.0941 -0.3041 -0.3100
   75MOL   C14929897   6.320   1.836   2.917 -0.1699 -0.0005 -0.1470
   75MOL   C15029898   6.451   1.799   2.956  0.5687 -0.1998 -0.2345
   75MOL   C15129899   6.742   1.792   3.056  0.1100 -0.1452 -0.5744
   75MOL   H15229900   6.768   1.875   2.859  2.4239 -0.0812  1.6624
   75MOL   H15329901   6.612   1.871   2.665  0.1553  1.2699  0.6012
   75MOL   H15429902   6.371   1.902   2.589  1.1459  2.1520  0.6550
   75MOL   H15529903   6.153   1.820   2.543 -2.1067  1.1659 -2.6666
   75MOL   H15629904   6.014   1.903   2.603 -0.0676 -0.1877 -0.4285
   75MOL   H15729905   6.160   1.990   2.583 -1.4142 -0.1645 -1.4357
   75MOL   H15829906   6.244   1.852   2.993  0.9702 -2.8866  1.6633
   75MOL   H15929907   6.465   1.778   3.061  0.5868  0.1551 -0.1668
   75MOL   H16029908   6.849   1.781   3.072  0.0014  0.3255  0.5215
   75MOL   H16129909   6.695   1.710   3.109  3.9799 -0.5103  2.5994
   75MOL   C16229910   6.704   1.913   3.145  0.1976  0.2995 -0.0765
   75MOL   C16329911   6.743   2.051   3.087 -0.0758 -0.1271  0.2524
   75MOL   C16429912   6.876   2.088   3.048  0.5686 -0.6556  0.4328
   75MOL   C16529913   6.901   2.217   3.010 -0.1891 -0.7624 -0.3750
   75MOL   C16629914   6.796   2.310   2.995 -0.4628 -0.2585 -0.2957
   75MOL   O16729915   6.828   2.435   2.948  0.1525  0.0099 -0.3285
   75MOL   C16829916   6.723   2.531   2.956 -0.5109  0.0988 -0.4734
   75MOL   C16929917   6.662   2.272   3.017  0.9233  0.6517 -0.5579
   75MOL   C17029918   6.639   2.142   3.072  0.1882  0.4907  0.0475
   75MOL   C17129919   6.763   1.902   3.289  0.5909 -1.0320  0.0330
   75MOL   H17229920   6.597   1.931   3.159  0.0170  0.2313 -1.2876
   75MOL   H17329921   6.959   2.022   3.070  1.9573  0.3859 -1.4973
   75MOL   H17429922   7.003   2.249   2.994 -0.8658  0.5914 -2.1055
   75MOL   H17529923   6.765   2.632   2.948 -1.4012  0.4774 -0.4966
   75MOL   H17629924   6.666   2.539   3.049 -0.1182  2.5305 -0.4116
   75MOL   H17729925   6.660   2.519   2.868 -1.8901 -1.0668  0.6570
   75MOL   H17829926   6.571   2.330   3.015  0.4783  0.0137  0.4008
   75MOL   H17929927   6.540   2.110   3.103 -0.8065  2.2490 -1.2645
   75MOL   H18029928   6.743   1.999   3.333  1.8055 -0.2085 -1.1867
   75MOL   H18129929   6.871   1.895   3.274  0.8203  0.1787  1.0397
   75MOL   C18229930   6.715   1.785   3.370 -0.4885  0.0861 -0.6711
   75MOL   C18329931   6.558   1.779   3.371  0.2473  0.4473 -0.5462
   75MOL   C18429932   6.492   1.672   3.307  0.5484  0.5277 -0.4430
   75MOL   C18529933   6.355   1.662   3.321 -0.0970  0.7722  0.0122
   75MOL   C18629934   6.273   1.754   3.401  0.2210  0.3306  0.3700
   75MOL   O18729935   6.136   1.752   3.408  0.3058 -0.3166 -0.1629
   75MOL   C18829936   6.065   1.648   3.345 -0.4450  0.2018  0.1441
   75MOL   C18929937   6.344   1.857   3.469 -0.3115 -0.1181  0.1971
   75MOL   C19029938   6.483   1.870   3.452 -0.2027  0.3051  0.0543
   75MOL   C19129939   6.770   1.780   3.515  0.5743 -0.2511 -0.3478
   75MOL   H19229940   6.748   1.699   3.311  2.6901  1.7772 -1.4676
   75MOL   H19329941   6.548   1.596   3.255  2.4025  0.6736  1.2977
   75MOL   H19429942   6.319   1.569   3.279 -2.7959  2.1129 -0.8090
   75MOL   H19529943   5.957   1.656   3.341 -0.7202 -2.5187  0.7474
   75MOL   H19629944   6.100   1.551   3.382 -1.0084 -0.3490 -0.7420
   75MOL   H19729945   6.093   1.650   3.239 -2.1788 -2.4545 -0.4287
   75MOL   H19829946   6.280   1.926   3.522 -0.2622 -0.0201  0.1291
   75MOL   H19929947   6.527   1.959   3.497 -1.3399  1.5915 -1.3233
   75MOL   H20029948   6.763   1.877   3.565 -0.2911 -0.7039  0.4186
   75MOL   H20129949   6.708   1.715   3.577  0.8828 -2.4607 -2.2819
   75MOL   C20229950   6.914   1.741   3.542  0.3303  0.1537 -0.2624
   75MOL   C20329951   6.918   1.599   3.599 -0.0092  0.6261 -0.1884
   75MOL   C20429952   6.887   1.571   3.734  0.0108 -0.3348 -0.0619
   75MOL   C20529953   6.869   1.437   3.775 -0.1107  1.2511  0.0911
   75MOL   C20629954   6.863   1.330   3.675  0.5378 -0.1615 -0.1828
   75MOL   O20729955   6.843   1.193   3.695  0.7481 -0.3005  0.0284
   75MOL   C20829956   6.860   1.141   3.828 -0.8101 -0.0344  0.2046
   75MOL   C20929957   6.893   1.357   3.543  0.0568  0.5474 -0.1651
   75MOL   C21029958   6.914   1.494   3.505 -0.4078  0.1899 -0.3261
   75MOL   C21129959   7.000   1.835   3.630 -0.2255  0.0310 -0.0033
   75MOL   H21229960   6.968   1.744   3.447 -0.2543  0.0637 -0.6024
   75MOL   H21329961   6.871   1.651   3.804 -2.0219  0.8298 -1.7826
   75MOL   H21429962   6.855   1.418   3.880  0.2669  0.5331  0.0157
   75MOL   H21529963   6.837   1.034   3.833 -0.4776 -0.0507  1.8353
   75MOL   H21629964   6.958   1.159   3.873 -0.5915 -2.8796  0.9685
   75MOL   H21729965   6.787   1.180   3.899  0.3567  2.7319 -0.0843
   75MOL   H21829966   6.892   1.271   3.477 -0.4259  0.4738 -0.0691
   75MOL   H21929967   6.927   1.515   3.400  1.5486  1.7296  0.1713
   75MOL   H22029968   7.076   1.771   3.676 -1.5392 -1.5091  0.0620
   75MOL   H22129969   6.940   1.851   3.720  0.3882 -0.5011  0.5096
   75MOL   C22229970   7.059   1.970   3.569 -0.2818 -0.4388  0.0560
   75MOL   C22329971   6.945   2.069   3.537  0.1995  0.2122  0.8000
   75MOL   C22429972   6.937   2.141   3.418  0.0200  0.0620  0.4068
   75MOL   C22529973   6.846   2.252   3.402 -0.4294 -0.4117  0.1660
   75MOL   C22629974   6.764   2.291   3.508  0.2954 -0.3246  0.3778
   75MOL   O22729975   6.671   2.394   3.498  0.0399 -0.0720  0.1384
   75MOL   C22829976   6.683   2.481   3.388 -0.2385 -0.1916 -0.4205
   75MOL   C22929977   6.777   2.220   3.628  0.3463  0.0438  0.3125
   75MOL   C23029978   6.863   2.114   3.643  0.2662  0.7785 -0.0857
   75MOL   C23129979   7.171   2.026   3.656  0.3386 -0.5167 -0.5917
   75MOL   H23229980   7.115   1.941   3.479  0.8379  1.8486 -0.0345
   75MOL   H23329981   7.004   2.121   3.336 -2.2403  1.3475 -1.8229
   75MOL   H23429982   6.841   2.298   3.304  0.7237 -1.4527 -0.3947
   75MOL   H23529983   6.636   2.579   3.399  0.6747  0.4966 -2.4130
   75MOL   H23629984   6.786   2.508   3.367 -0.2708  0.0180 -0.3098
   75MOL   H23729985   6.638   2.425   3.307 -2.5438  2.9625 -1.4416
   75MOL   H23829986   6.721   2.251   3.716 -2.5820  1.3988 -1.9522
   75MOL   H23929987   6.876   2.070   3.741 -0.5069 -1.2690 -0.8664
   75MOL   H24029988   7.141   2.022   3.761 -0.5263 -1.7773 -0.8706
   75MOL   H24129989   7.247   1.949   3.650  0.6145 -0.4638  1.6199
   75MOL   C24229990   7.229   2.161   3.614 -0.4559 -0.3359 -0.1289
   75MOL   C24329991   7.329   2.211   3.712 -0.3927 -0.1446  0.2579
   75MOL   C24429992   7.457   2.150   3.728 -0.1066 -0.2718  0.0621
   75MOL   C24529993   7.545   2.183   3.828  0.6855 -0.0945 -0.3941
   75MOL   C24629994   7.519   2.287   3.920  0.1633 -0.5746  0.0493
   75MOL   O24729995   7.610   2.316   4.018 -0.5000 -0.3965 -0.0519
   75MOL   C24829996   7.568   2.389   4.127 -0.0558  0.4130 -0.3768
   75MOL   C24929997   7.399   2.356   3.906  0.7110 -0.1178 -0.7260
   75MOL   C25029998   7.307   2.320   3.806  0.4940  0.7916 -0.5252
   75MOL   C25129999   7.297   2.154   3.473  0.3797  0.1857 -0.1778
   75MOL   H25230000   7.144   2.229   3.615 -3.0753 -3.5088  1.2031
   75MOL   H25330001   7.476   2.064   3.665 -0.4461  1.0335 -1.8538
   75MOL   H25430002   7.637   2.127   3.830  0.0140 -1.2615 -1.1391
   75MOL   H25530003   7.648   2.397   4.201  0.6482 -3.9962 -0.4896
   75MOL   H25630004   7.535   2.488   4.097 -0.6566  0.5424  0.6493
   75MOL   H25730005   7.482   2.346   4.180  0.3593  0.6644  0.5205
   75MOL   H25830006   7.374   2.446   3.960 -2.2898 -1.7158  0.6328
   75MOL   H25930007   7.221   2.384   3.798  0.2698  0.4269 -1.0747
   75MOL   H26030008   7.225   2.106   3.407  1.8849 -2.4373  0.0301
   75MOL   H26130009   7.379   2.082   3.484  1.5826  1.3410 -1.3886
   75MOL   C26230010   7.352   2.286   3.420 -0.3394  0.7175  0.3375
   75MOL   C26330011   7.241   2.390   3.402  0.0048  0.2422 -0.0667
   75MOL   C26430012   7.149   2.386   3.296 -0.2589  0.0886 -0.2876
   75MOL   C26530013   7.067   2.493   3.260 -0.5089  0.6272  0.4427
   75MOL   C26630014   7.067   2.604   3.349 -0.5445 -0.7395  0.2714
   75MOL   O26730015   6.974   2.700   3.349  0.7387 -0.3353  0.0288
   75MOL   C26830016   6.935   2.758   3.225 -0.3680  0.4936  0.3653
   75MOL   C26930017   7.150   2.607   3.462  0.4346 -0.2253  0.1655
   75MOL   C27030018   7.243   2.504   3.481 -0.5339 -0.1607 -0.4849
   75MOL   C27130019   7.435   2.273   3.293 -0.1693 -0.2166 -0.2788
   75MOL   H27230020   7.427   2.329   3.487  1.0965 -0.6030 -0.3936
   75MOL   H27330021   7.133   2.296   3.240 -1.3854 -0.3911  0.7688
   75MOL   H27430022   6.983   2.476   3.195  1.3035  0.7027 -1.9916
   75MOL   H27530023   6.834   2.799   3.225 -0.6493 -0.0855 -2.8270
   75MOL   H27630024   6.927   2.686   3.143 -4.2657  0.4026  0.7311
   75MOL   H27730025   7.016   2.825   3.193  1.8956 -0.9932  2.7601
   75MOL   H27830026   7.148   2.694   3.525 -1.9615 -0.8162  0.9494
   75MOL   H27930027   7.315   2.508   3.562  0.1012 -0.0651 -1.0572
   75MOL   H28030028   7.377   2.238   3.208  0.2654  0.1403 -0.7275
   75MOL   H28130029   7.455   2.377   3.269 -1.6085  0.0850 -0.1789
   75MOL   C28230030   7.569   2.192   3.275 -0.4354 -0.4088 -0.0798
   75MOL   C28330031   7.646   2.193   3.406 -0.3596 -0.0786  0.5622
   75MOL   C28430032   7.694   2.075   3.465  0.0975  0.6715 -0.0621
   75MOL   C28530033   7.780   2.071   3.574  0.6418 -0.5991  0.2418
   75MOL   C28630034   7.826   2.194   3.634 -0.0987  0.0126  0.3334
   75MOL   O28730035   7.913   2.197   3.739  0.0587 -0.3674  0.2496
   75MOL   C28830036   7.924   2.068   3.814  0.2434 -0.3351  0.1301
   75MOL   C28930037   7.776   2.311   3.577 -0.3504  0.1863 -0.2543
   75MOL   C29030038   7.693   2.312   3.464 -0.2263 -0.4050 -0.1000
   75MOL   C29130039   7.646   2.262   3.162 -0.3252 -0.0375  0.3610
   75MOL   H29230040   7.549   2.090   3.245  2.4120 -1.6270  1.9717
   75MOL   H29330041   7.673   1.978   3.423 -0.4757 -1.4400  4.7255
   75MOL   H29430042   7.796   1.973   3.616 -1.5763 -1.4309 -0.7752
   75MOL   H29530043   7.997   1.995   3.780  0.0869 -0.9764  1.1564
   75MOL   H29630044   7.975   2.092   3.907  0.3810 -0.3300  0.0541
   75MOL   H29730045   7.827   2.025   3.840  0.7628 -1.7661 -0.2854
   75MOL   H29830046   7.793   2.409   3.620 -0.3843 -0.4983  1.3655
   75MOL   H29930047   7.671   2.409   3.420 -0.1193 -0.1321  0.4391
   75MOL   H30030048   7.583   2.251   3.074 -0.1678 -0.7082  0.3267
   75MOL   H30130049   7.651   2.370   3.180  1.9278  0.0288 -0.4793
   75MOL   C30230050   7.792   2.220   3.140 -0.1293 -0.0069 -0.0992
   75MOL   C30330051   7.806   2.074   3.107  0.3967 -0.5624 -0.1596
   75MOL   C30430052   7.887   1.988   3.193 -0.1535  0.8368 -0.0607
   75MOL   C30530053   7.892   1.847   3.167  0.8434  0.2117 -0.1585
   75MOL   C30630054   7.828   1.794   3.052  0.3660  0.2782  0.3356
   75MOL   O30730055   7.830   1.659   3.039  0.9621 -0.0182  0.4034
   75MOL   C30830056   7.760   1.598   2.927 -0.0708 -0.4457 -0.1270
   75MOL   C30930057   7.762   1.882   2.961 -0.2911  0.1251  0.3272
   75MOL   C31030058   7.750   2.020   2.983  0.5416  0.0795  0.2049
   75MOL   C31130059   7.857   2.319   3.039 -0.9162  0.4888  0.0655
   75MOL   H31230060   7.853   2.240   3.229  0.3146  2.5001 -0.9045
   75MOL   H31330061   7.931   2.013   3.289  1.6948 -3.8669  0.4131
   75MOL   H31430062   7.950   1.783   3.232  0.4958 -1.5832 -1.5588
   75MOL   H31530063   7.766   1.490   2.937 -2.1394 -0.5576  0.0030
   75MOL   H31630064   7.800   1.622   2.829 -1.4992  0.0915 -0.5764
   75MOL   H31730065   7.658   1.635   2.934  0.3178  0.7244 -0.4426
   75MOL   H31830066   7.724   1.846   2.867 -1.6054  2.2579  0.0137
   75MOL   H31930067   7.699   2.073   2.904  0.0179 -0.3818  0.2323
   75MOL   H32030068   7.848   2.414   3.090  1.1244 -0.1990  1.7429
   75MOL   H32130069   7.790   2.319   2.952 -2.5425  0.6271  1.2865
   75MOL   C32230070   8.006   2.297   3.011 -0.1277  0.0525 -0.7659
   75MOL   C32330071   0.053   2.336   3.131  0.3364  0.4252 -0.2347
   75MOL   C32430072   0.056   2.470   3.181 -0.5582 -0.2826  0.0899
   75MOL   C32530073   0.147   2.503   3.286 -0.1496  0.4347  0.0005
   75MOL   C32630074   0.244   2.412   3.332 -0.6833  0.0029  0.7888
   75MOL   O32730075   0.348   2.453   3.413 -0.0526 -0.1093  0.3438
   75MOL   C32830076   0.409   2.583   3.391 -0.3813 -0.4101 -0.1691
   75MOL   C32930077   0.241   2.279   3.276 -0.1392 -0.3847  0.1590
   75MOL   C33030078   0.146   2.245   3.177  0.5131  0.6691 -0.5768
   75MOL   C33130079   8.030   2.393   2.897 -0.1871 -0.1295  0.4890
   75MOL   H33230080   8.027   2.197   2.973 -0.7119 -0.4325  0.1717
   75MOL   H33330081   8.020   2.543   3.157 -1.5378 -0.9024  1.2478
   75MOL   H33430082   0.147   2.606   3.319  1.1983 -0.4364  2.8038
   75MOL   H33530083   0.433   2.592   3.285  0.8203  1.9817  0.2848
   75MOL   H33630084   0.499   2.593   3.452 -0.0237 -0.9934 -0.5923
   75MOL   H33730085   0.345   2.668   3.414  0.8662  0.4482  0.1371
   75MOL   H33830086   0.305   2.203   3.319  2.5360  1.5797 -0.1994
   75MOL   H33930087   0.152   2.145   3.138  0.6482  0.9516 -1.2911
   75MOL   H34030088   7.953   2.383   2.820 -1.1183  1.2303  1.2197
   75MOL   H34130089   8.022   2.499   2.922 -0.7406 -0.4468  1.6913
   75MOL   C34230090   0.130   2.384   2.824  0.3691  0.5814  0.1157
   75MOL   C34330091   0.216   2.512   2.847 -0.3019  0.2699 -0.8591
   75MOL   C34430092   0.309   2.510   2.954 -0.3989 -0.2380  0.4169
   75MOL   C34530093   0.389   2.624   2.970 -0.8840  0.1288 -0.0541
   75MOL   C34630094   0.390   2.731   2.880 -0.0892  0.7475  0.1723
   75MOL   O34730095   0.465   2.844   2.897  0.5440 -0.8033  0.1925
   75MOL   C34830096   0.576   2.834   2.991  0.3269 -0.1628 -0.7271
   75MOL   C34930097   0.297   2.735   2.770 -0.5476  0.5462 -0.8419
   75MOL   C35030098   0.207   2.624   2.754 -0.2492  0.2157  0.0120
   75MOL   C35130099   0.128   2.334   2.676 -0.7161 -0.4631 -0.8351
   75MOL   H35230100   0.182   2.302   2.874 -0.5280 -0.0790 -0.0394
   75MOL   H35330101   0.316   2.425   3.020 -0.0388 -1.5328 -1.2508
   75MOL   H35430102   0.441   2.628   3.065  0.1496 -1.4882 -0.5293
   75MOL   H35530103   0.559   2.799   3.092  1.8925 -1.6443 -0.9494
   75MOL   H35630104   0.648   2.766   2.945 -1.3690 -2.6665  0.2265
   75MOL   H35730105   0.621   2.933   2.996  3.4035 -1.5976  1.0085
   75MOL   H35830106   0.284   2.817   2.701 -1.0385  1.4315  0.2719
   75MOL   H35930107   0.120   2.621   2.690  0.2758 -1.9485 -0.6649
   75MOL   H36030108   0.066   2.398   2.613 -2.1349 -0.0106  0.9718
   75MOL   H36130109   0.228   2.334   2.631  0.3289  1.7615  1.3474
   75MOL   C36230110   0.073   2.190   2.671  0.2228  0.0222  0.3506
   75MOL   C36330111   0.152   2.087   2.754  0.0173 -0.1698  0.4600
   75MOL   C36430112   0.084   1.991   2.825  0.0089  0.3462 -0.3764
   75MOL   C36530113   0.148   1.899   2.901  0.1579  0.3241  0.0771
   75MOL   C36630114   0.285   1.886   2.894  0.3574  0.2404 -0.6474
   75MOL   O36730115   0.364   1.789   2.947 -0.0983 -0.3396  0.2050
   75MOL   C36830116   0.306   1.703   3.047  0.0033 -0.5247 -0.0275
   75MOL   C36930117   0.360   1.987   2.822  0.0338 -0.1966 -0.6026
   75MOL   C37030118   0.292   2.086   2.751 -0.2290  0.0158 -0.1649
   75MOL   C37130119   0.049   2.142   2.527 -0.0432  0.0465  0.1821
   75MOL   H37230120   8.011   2.197   2.709  0.0828  1.5098 -0.2611
   75MOL   H37330121   8.017   2.001   2.834  0.1226 -0.2198  1.9038
   75MOL   H37430122   0.090   1.831   2.962  0.3955 -1.5614 -1.7267
   75MOL   H37530123   0.385   1.635   3.078  0.2344  0.3276  1.3160
   75MOL   H37630124   0.274   1.760   3.134 -1.5656  0.3561 -1.1613
   75MOL   H37730125   0.221   1.650   3.005  1.2911 -0.5309 -2.7339
   75MOL   H37830126   0.467   1.994   2.829 -0.0527  1.5009 -0.8073
   75MOL   H37930127   0.346   2.166   2.702 -1.1593  1.5717  1.2977
   75MOL   H38030128   0.138   2.145   2.465 -0.5745  4.2359 -0.5685
   75MOL   H38130129   0.027   2.036   2.537 -0.6014  0.3323  2.1206
   75MOL   C38230130   7.967   2.201   2.453 -0.4649 -0.5225 -0.0969
   75MOL   C38330131   7.832   2.192   2.526  0.2234 -0.2750 -0.1646
   75MOL   C38430132   7.786   2.071   2.571 -0.2158 -0.4673 -0.4807
   75MOL   C38530133   7.661   2.062   2.640  0.0270  0.2111  0.3645
   75MOL   C38630134   7.593   2.182   2.677 -0.1968 -0.5920  0.0420
   75MOL   O38730135   7.474   2.166   2.744 -0.6032 -0.3858 -0.1242
   75MOL   C38830136   7.384   2.278   2.738 -0.4894 -0.2684 -0.2304
   75MOL   C38930137   7.641   2.305   2.635 -1.1058 -0.5466  0.2767
   75MOL   C39030138   7.758   2.306   2.553  0.1098 -0.2136  0.5824
   75MOL   C39130139   7.944   2.132   2.321  0.1441 -0.4015  0.2652
   75MOL   H39230140   7.994   2.306   2.442 -1.9151 -0.1642 -0.3713
   75MOL   H39330141   7.844   1.980   2.565 -1.2156 -0.9755 -2.7304
   75MOL   H39430142   7.621   1.967   2.673  0.6002  0.2229  1.1092
   75MOL   H39530143   7.287   2.257   2.784 -0.3118 -1.2001 -0.2754
   75MOL   H39630144   7.369   2.322   2.640  1.2840  0.7964 -0.0484
   75MOL   H39730145   7.429   2.362   2.792  0.5464 -0.4287 -0.8398
   75MOL   H39830146   7.594   2.401   2.655  1.3321  0.6171  0.5634
   75MOL   H39930147   7.791   2.401   2.515  0.3578 -0.6254 -0.2528
   75MOL   H40030148   7.922   2.026   2.339 -1.8488 -0.0492 -0.0448
   75MOL   H40130149   8.035   2.133   2.260 -0.4202 -0.0037 -0.5821
   75MOL   H40230150   7.875   2.190   2.261  1.2001 -1.4297 -2.0116
   76MOL     C130151   4.573   4.989   0.465  0.5226 -0.3900  0.5618
   76MOL     C230152   4.713   4.977   0.527 -0.2028  0.4763  0.4772
   76MOL     C330153   4.740   5.047   0.644 -0.3075  0.2843 -0.2084
   76MOL     C430154   4.850   5.013   0.721 -0.2365  0.0804 -0.5270
   76MOL     C530155   4.952   4.931   0.667 -0.1612  0.0443  0.4878
   76MOL     O630156   5.069   4.926   0.744 -0.5204 -0.1884 -0.2239
   76MOL     C730157   5.169   4.831   0.707  1.3811  0.1151 -0.2993
   76MOL     C830158   4.931   4.859   0.547 -0.3008  0.3282  0.5652
   76MOL     C930159   4.810   4.886   0.476 -0.4918 -0.3421  0.1083
   76MOL    C1030160   4.475   4.879   0.514  0.0337  1.0206  0.0188
   76MOL    H1130161   4.592   4.973   0.359  0.4250  0.0653  0.4739
   76MOL    H1230162   4.663   5.116   0.677  2.2926  2.3401  1.7877
   76MOL    H1330163   4.869   5.072   0.810  0.7715 -3.0717  1.4257
   76MOL    H1430164   5.225   4.848   0.615 -0.5610  0.6472 -1.4286
   76MOL    H1530165   5.249   4.824   0.781  1.4939  3.2635 -0.0450
   76MOL    H1630166   5.120   4.734   0.706  2.5259 -0.4862  0.9247
   76MOL    H1730167   5.000   4.789   0.503 -1.5579  0.9964 -2.5604
   76MOL    H1830168   4.782   4.813   0.401 -2.1209 -0.7109  1.0491
   76MOL    H1930169   4.496   4.884   0.621  1.5175  1.3214 -0.2613
   76MOL    H2030170   4.372   4.908   0.497 -0.7572 -2.0523 -0.6670
   76MOL    H2130171   4.521   5.084   0.479 -1.9844 -1.7496  0.7880
   76MOL    C2230172   4.498   4.734   0.462  0.5887  0.6895  0.3052
   76MOL    C2330173   4.419   4.640   0.553  0.0833  0.0679  0.0507
   76MOL    C2430174   4.280   4.627   0.545  0.2047  0.4573 -0.1592
   76MOL    C2530175   4.209   4.552   0.642  0.1828 -0.0501 -0.1208
   76MOL    C2630176   4.278   4.487   0.743  0.4462  0.1546  0.1917
   76MOL    O2730177   4.201   4.408   0.828 -0.3233 -0.8313  0.4023
   76MOL    C2830178   4.271   4.337   0.933 -0.7002  0.1735 -0.4314
   76MOL    C2930179   4.421   4.503   0.758 -0.0600 -0.0013  0.0015
   76MOL    C3030180   4.487   4.577   0.658 -1.2256  0.6561 -0.4687
   76MOL    C3130181   4.460   4.711   0.309  0.0785  0.8571 -0.2398
   76MOL    H3230182   4.600   4.702   0.480  0.3002  0.0679  0.8639
   76MOL    H3330183   4.222   4.687   0.476  1.5373  0.4492 -1.3028
   76MOL    H3430184   4.101   4.559   0.641  0.0462 -1.9432  0.0124
   76MOL    H3530185   4.357   4.279   0.900  0.0870  1.6599 -1.0380
   76MOL    H3630186   4.207   4.265   0.985  0.2310 -0.7112 -0.4932
   76MOL    H3730187   4.301   4.408   1.010 -1.0333 -0.3464  0.1841
   76MOL    H3830188   4.474   4.447   0.835 -0.5908  0.0119  0.3770
   76MOL    H3930189   4.594   4.584   0.671 -1.1684  0.5026 -0.8333
   76MOL    H4030190   4.351   4.711   0.310  0.0754  1.9976  0.2375
   76MOL    H4130191   4.508   4.791   0.252 -1.0075  2.0837  0.5503
   76MOL    C4230192   4.516   4.573   0.261  0.1660 -0.7654  0.9225
   76MOL    C4330193   4.663   4.562   0.294  0.4622 -0.4685 -0.1257
   76MOL    C4430194   4.696   4.469   0.396 -0.7396 -0.0347 -0.0215
   76MOL    C4530195   4.827   4.460   0.437 -0.6480  0.2729  0.4768
   76MOL    C4630196   4.930   4.531   0.371 -0.6683  0.2966 -0.0691
   76MOL    O4730197   5.063   4.533   0.417  0.5976 -0.2638  0.6520
   76MOL    C4830198   5.092   4.480   0.546 -0.3032  0.3997 -0.8612
   76MOL    C4930199   4.903   4.616   0.266  0.5331  0.2534  0.2727
   76MOL    C5030200   4.766   4.641   0.235 -0.4358  0.0269  0.7349
   76MOL    C5130201   4.493   4.524   0.111  0.1253 -0.2177  1.0233
   76MOL    H5230202   4.463   4.499   0.321 -0.2896 -1.4876 -0.3433
   76MOL    H5330203   4.618   4.402   0.431  0.5547 -0.2070  2.6026
   76MOL    H5430204   4.842   4.394   0.521  2.8376  0.4281  0.0622
   76MOL    H5530205   5.191   4.491   0.589  0.1751 -3.2388 -0.8089
   76MOL    H5630206   5.030   4.533   0.618  2.9848  2.2298  0.7389
   76MOL    H5730207   5.064   4.375   0.560 -1.5902  0.9343  0.7406
   76MOL    H5830208   4.982   4.678   0.227  0.9806 -0.4007  0.1448
   76MOL    H5930209   4.726   4.711   0.164 -1.2296 -0.5466  0.6085
   76MOL    H6030210   4.526   4.421   0.105 -2.8472 -1.0976 -1.4285
   76MOL    H6130211   4.551   4.582   0.039 -1.4001 -1.3965 -1.2151
   76MOL    C6230212   4.346   4.522   0.056  0.3162 -0.3574 -0.8997
   76MOL    C6330213   4.237   4.455   0.148 -0.4527  0.1617 -0.4198
   76MOL    C6430214   4.131   4.533   0.198 -0.3955 -0.3477  0.1900
   76MOL    C6530215   4.040   4.470   0.283  0.4211 -0.5122  0.3301
   76MOL    C6630216   4.054   4.333   0.319 -0.2036  0.4913  0.2744
   76MOL    O6730217   3.972   4.273   0.409 -0.0164 -0.0473 -0.5243
   76MOL    C6830218   3.870   4.356   0.458  0.2762  0.1459 -0.8650
   76MOL    C6930219   4.149   4.257   0.263 -0.1276  0.8631  0.1041
   76MOL    C7030220   4.252   4.317   0.190 -0.6917 -0.2321  0.1711
   76MOL    C7130221   4.348   4.469   7.948 -0.1096 -0.4369  0.2136
   76MOL    H7230222   4.315   4.626   0.055 -0.6916 -0.6542 -0.8839
   76MOL    H7330223   4.118   4.638   0.175 -1.5821 -0.0991  1.8734
   76MOL    H7430224   3.961   4.533   0.322  1.1227 -1.4317  3.3378
   76MOL    H7530225   3.801   4.379   0.377 -0.4954  0.8351 -0.0291
   76MOL    H7630226   3.894   4.449   0.511 -0.1376 -0.2683  0.0418
   76MOL    H7730227   3.811   4.312   0.538 -0.6893  0.8878 -1.1566
   76MOL    H7830228   4.144   4.149   0.273 -0.5115  0.7255 -1.4530
   76MOL    H7930229   4.330   4.250   0.157  0.0515  0.9377 -0.4828
   76MOL    H8030230   4.443   4.485   7.898 -0.0960  0.4462  0.5148
   76MOL    H8130231   4.351   4.360   7.944 -1.1937 -0.4824  0.3669
   76MOL    C8230232   4.244   4.534   7.856 -0.2330  0.0625  0.8708
   76MOL    C8330233   4.277   4.679   7.824  0.0656  0.5127  0.2691
   76MOL    C8430234   4.379   4.703   7.729 -0.2682 -0.0355 -0.4275
   76MOL    C8530235   4.405   4.836   7.695  0.1060  0.0606 -0.7347
   76MOL    C8630236   4.333   4.940   7.749 -0.0284 -0.5042  0.3489
   76MOL    O8730237   4.376   5.064   7.700  0.3129 -0.0541 -0.1809
   76MOL    C8830238   4.307   5.181   7.741  0.1120 -0.1109 -0.1285
   76MOL    C8930239   4.243   4.916   7.857  0.0688 -0.3399  0.3475
   76MOL    C9030240   4.217   4.784   7.894  0.9500  0.2204 -0.0841
   76MOL    C9130241   4.223   4.455   7.723 -0.7266  0.2712  0.4350
   76MOL    H9230242   4.154   4.536   7.918 -0.5294  0.2309  0.4431
   76MOL    H9330243   4.434   4.625   7.679 -0.3085 -0.4710  0.1995
   76MOL    H9430244   4.479   4.878   7.630  0.3814  3.1294  1.4614
   76MOL    H9530245   4.355   5.207   7.836 -0.7580  0.7308  0.0923
   76MOL    H9630246   4.200   5.165   7.755  0.3074  0.7220  2.6612
   76MOL    H9730247   4.305   5.272   7.682  0.2105 -0.0867 -0.0955
   76MOL    H9830248   4.186   4.998   7.898 -0.7039 -0.4234 -0.5272
   76MOL    H9930249   4.147   4.771   7.975  0.3648 -0.5300 -0.7079
   76MOL   H10030250   4.191   4.519   7.641 -0.1887  0.6587  0.5285
   76MOL   H10130251   4.322   4.420   7.694 -1.0506  0.0017 -0.3590
   76MOL   C10230252   4.139   4.325   7.748  0.0289 -0.2126  0.5546
   76MOL   C10330253   3.993   4.361   7.715 -0.3608  0.1340  0.0518
   76MOL   C10430254   3.958   4.407   7.586  0.2649  0.0107 -0.3511
   76MOL   C10530255   3.828   4.450   7.555  0.7155 -0.1075  0.5506
   76MOL   C10630256   3.732   4.439   7.658 -0.1224 -0.1367 -0.4367
   76MOL   O10730257   3.602   4.466   7.626  0.1713 -0.0157  0.0532
   76MOL   C10830258   3.517   4.496   7.732  0.5586 -0.6405 -0.4062
   76MOL   C10930259   3.763   4.391   7.785  1.4232 -0.8140  0.2348
   76MOL   C11030260   3.892   4.354   7.817 -0.2789  0.2638  0.5771
   76MOL   C11130261   4.195   4.191   7.686  0.2553  1.2700 -0.3204
   76MOL   H11230262   4.125   4.303   7.853  0.5395 -0.1159  0.6443
   76MOL   H11330263   4.036   4.397   7.512 -1.4369 -0.3930 -2.1492
   76MOL   H11430264   3.805   4.481   7.454  1.6243  0.9887  0.6685
   76MOL   H11530265   3.471   4.401   7.762  1.2896 -0.8435  0.0776
   76MOL   H11630266   3.560   4.541   7.821 -0.2358  1.0276 -0.8580
   76MOL   H11730267   3.445   4.564   7.687  0.8172 -0.7227 -0.9596
   76MOL   H11830268   3.693   4.370   7.864  0.3363  1.3884 -0.0979
   76MOL   H11930269   3.919   4.315   7.914 -0.9812  0.6347  0.9270
   76MOL   H12030270   4.229   4.210   7.583 -1.1210 -1.1061 -1.2382
   76MOL   H12130271   4.285   4.169   7.742  0.7472  0.8188 -1.2696
   76MOL   C12230272   4.102   4.069   7.701  0.1828  0.1158 -0.3371
   76MOL   C12330273   4.070   4.025   7.846  0.6079  0.1575 -0.4977
   76MOL   C12430274   3.945   4.034   7.897  0.7455  0.4360  0.3223
   76MOL   C12530275   3.912   3.990   8.023  0.3843  0.4059  0.2919
   76MOL   C12630276   4.012   3.934   0.066  0.4729  0.3812 -0.3441
   76MOL   O12730277   3.975   3.898   0.193  0.2160  0.3822 -0.9197
   76MOL   C12830278   4.068   3.866   0.298 -0.1562 -0.2339 -0.9970
   76MOL   C12930279   4.143   3.925   0.019  0.0657  0.0902  0.1286
   76MOL   C13030280   4.172   3.978   7.931 -0.3385  0.2743 -0.0808
   76MOL   C13130281   4.160   3.959   7.626  0.6203  0.0882  0.4453
   76MOL   H13230282   4.015   4.094   7.641  1.2055 -0.9169 -2.2819
   76MOL   H13330283   3.864   4.084   7.845  1.9827  0.8710 -1.2084
   76MOL   H13430284   3.810   3.990   0.020  0.2178 -0.7550 -0.1399
   76MOL   H13530285   4.137   3.787   0.269  2.3136  1.9035 -1.1529
   76MOL   H13630286   4.139   3.938   0.338  0.2834 -0.7160 -0.9067
   76MOL   H13730287   4.016   3.846   0.391 -0.9528 -0.7903 -1.5543
   76MOL   H13830288   4.225   3.896   0.083  0.0430  1.0892  0.6335
   76MOL   H13930289   4.273   3.988   7.894 -0.5626 -0.6645 -0.9983
   76MOL   H14030290   4.114   3.865   7.658  0.4659  0.3793  1.0767
   76MOL   H14130291   4.260   3.943   7.666  0.3336  1.6486  1.8264
   76MOL   C14230292   4.176   3.975   7.466  0.2258  0.4004  0.2688
   76MOL   C14330293   4.297   3.882   7.425  0.9053  0.7280 -0.3341
   76MOL   C14430294   4.286   3.739   7.416 -0.2471 -0.4471  0.3665
   76MOL   C14530295   4.388   3.663   7.368  0.1909  0.2464  0.3258
   76MOL   C14630296   4.506   3.727   7.337  0.1575  0.0244  0.4150
   76MOL   O14730297   4.605   3.643   7.296  0.2867 -0.3624 -0.4150
   76MOL   C14830298   4.717   3.696   7.222  0.5877  0.0630 -0.5758
   76MOL   C14930299   4.524   3.867   7.339  0.4974 -0.0870 -0.2340
   76MOL   C15030300   4.415   3.946   7.385 -0.2425  0.2221  0.2246
   76MOL   C15130301   4.040   3.939   7.406 -0.5385 -0.5159  0.2091
   76MOL   H15230302   4.207   4.075   7.435  1.2555  0.8563  2.5972
   76MOL   H15330303   4.188   3.695   7.424  0.0431 -0.9602  1.1264
   76MOL   H15430304   4.385   3.556   7.359  2.1734  0.2279 -0.4084
   76MOL   H15530305   4.685   3.733   7.124 -2.2249 -0.2918  0.1765
   76MOL   H15630306   4.775   3.775   7.270  1.9179 -0.3322 -1.4836
   76MOL   H15730307   4.802   3.630   7.201  1.7174  0.6195  2.0320
   76MOL   H15830308   4.617   3.915   7.314 -0.1686  1.2572 -0.1794
   76MOL   H15930309   4.426   4.053   7.389  2.6113 -0.0402 -0.0364
   76MOL   H16030310   3.984   3.878   7.476 -1.6447  1.1741  0.8305
   76MOL   H16130311   4.061   3.873   7.322  1.3088 -0.5850  0.6909
   76MOL   C16230312   3.956   4.051   7.346  0.0636 -0.0937 -0.3526
   76MOL   C16330313   3.809   4.040   7.376 -0.1731  0.4448  0.3854
   76MOL   C16430314   3.743   4.165   7.398 -0.7458 -0.3269 -0.2165
   76MOL   C16530315   3.602   4.164   7.412  0.8463 -0.8535 -0.1390
   76MOL   C16630316   3.525   4.046   7.393 -0.9244  0.1613 -0.9900
   76MOL   O16730317   3.392   4.041   7.407  0.2910 -0.0029  0.1278
   76MOL   C16830318   3.324   4.156   7.455 -0.3730 -0.1120  0.7205
   76MOL   C16930319   3.593   3.920   7.368  0.0364 -0.3799  0.3332
   76MOL   C17030320   3.736   3.920   7.364  0.2235 -0.4208 -0.4557
   76MOL   C17130321   3.968   4.054   7.196 -0.9392  1.1096  0.1378
   76MOL   H17230322   3.990   4.145   7.390 -0.1629 -0.7126  1.1640
   76MOL   H17330323   3.792   4.260   7.405 -0.1374 -0.6619  0.0915
   76MOL   H17430324   3.560   4.260   7.440  2.1318 -0.6596  1.2032
   76MOL   H17530325   3.222   4.136   7.488 -1.5352  1.5112 -1.7298
   76MOL   H17630326   3.320   4.230   7.375 -0.4182  0.2213  1.0264
   76MOL   H17730327   3.367   4.203   7.543 -2.2005  3.8771 -0.3872
   76MOL   H17830328   3.538   3.827   7.370 -0.3259 -0.1559  0.8517
   76MOL   H17930329   3.783   3.826   7.338  1.0756  0.2277 -1.2923
   76MOL   H18030330   3.880   4.115   7.172 -3.3929 -1.2003  2.8506
   76MOL   H18130331   3.937   3.960   7.150 -1.5189  1.3942 -0.0666
   76MOL   C18230332   4.093   4.105   7.132 -0.0910 -0.0833 -0.2156
   76MOL   C18330333   4.121   4.244   7.172 -0.7308 -0.1796  0.1663
   76MOL   C18430334   4.229   4.276   7.255 -0.0439 -0.2701  0.2845
   76MOL   C18530335   4.249   4.406   7.292  0.2059 -0.2844  0.6746
   76MOL   C18630336   4.153   4.505   7.265 -0.3271 -0.3443  0.1148
   76MOL   O18730337   4.181   4.623   7.326  0.2662 -0.2743  0.4626
   76MOL   C18830338   4.107   4.735   7.290  0.1256 -0.1822  0.2019
   76MOL   C18930339   4.041   4.474   7.184 -0.7461 -0.4110 -1.0078
   76MOL   C19030340   4.026   4.346   7.143  0.2936  0.5947  0.0227
   76MOL   C19130341   4.076   4.092   6.977 -0.1355  0.6355  0.0711
   76MOL   H19230342   4.165   4.037   7.177 -0.0544  0.9807  1.3613
   76MOL   H19330343   4.296   4.192   7.269 -0.8475 -1.9913 -5.0123
   76MOL   H19430344   4.334   4.427   7.356  0.5504  1.4377 -0.3179
   76MOL   H19530345   4.129   4.755   7.185  1.4315  0.9226  0.6665
   76MOL   H19630346   4.138   4.827   7.340 -0.3638  0.4779 -0.6842
   76MOL   H19730347   4.002   4.719   7.314  0.0268  0.7084  0.3726
   76MOL   H19830348   3.969   4.549   7.156  1.4492  2.1192 -0.1288
   76MOL   H19930349   3.938   4.327   7.083  0.1769 -1.1194  0.7300
   76MOL   H20030350   4.011   4.011   6.942  0.9974 -0.4621  0.4672
   76MOL   H20130351   4.031   4.185   6.943 -2.0187 -0.1461  0.3411
   76MOL   C20230352   4.212   4.069   6.910  0.4599 -0.4994  0.1379
   76MOL   C20330353   4.212   4.147   6.778 -0.2255 -0.4133 -0.2654
   76MOL   C20430354   4.152   4.099   6.664  0.3136  0.1690 -0.2814
   76MOL   C20530355   4.142   4.177   6.553 -0.6623  0.9130 -0.1950
   76MOL   C20630356   4.203   4.302   6.547  0.6210  0.3405  0.2858
   76MOL   O20730357   4.185   4.366   6.430  0.6893  0.6833 -0.3133
   76MOL   C20830358   4.273   4.472   6.400 -0.3998 -0.0786  0.8071
   76MOL   C20930359   4.283   4.344   6.658  0.3599  0.2402  0.4139
   76MOL   C21030360   4.280   4.268   6.774 -0.0051 -0.3028  0.5880
   76MOL   C21130361   4.245   3.919   6.902 -1.4531  0.3257  0.1245
   76MOL   H21230362   4.298   4.105   6.965 -0.2045  0.0653  0.8220
   76MOL   H21330363   4.108   4.001   6.666 -0.2202  0.4373  2.1788
   76MOL   H21430364   4.088   4.136   6.469 -0.0789 -0.2826  0.0052
   76MOL   H21530365   4.253   4.561   6.460  0.0845  0.9340 -0.4938
   76MOL   H21630366   4.374   4.430   6.399 -1.4920 -2.7927 -1.3249
   76MOL   H21730367   4.240   4.506   6.302 -0.3778 -1.2723  0.3868
   76MOL   H21830368   4.326   4.443   6.661  0.8768  0.0397 -0.1585
   76MOL   H21930369   4.330   4.305   6.862 -0.1682  0.7629  0.2314
   76MOL   H22030370   4.169   3.862   6.849  0.0171 -0.4648 -1.1736
   76MOL   H22130371   4.247   3.889   7.007  1.8377 -0.5961 -0.1347
   76MOL   C22230372   4.385   3.894   6.830 -0.2082  0.3856 -0.8444
   76MOL   C22330373   4.500   3.982   6.875  0.3603  1.0108 -0.1937
   76MOL   C22430374   4.553   4.083   6.782  0.1645  0.4923 -0.7482
   76MOL   C22530375   4.664   4.159   6.812 -0.7393  0.8418 -1.1682
   76MOL   C22630376   4.735   4.133   6.933 -0.3307 -0.2532  0.5027
   76MOL   O22730377   4.855   4.200   6.946 -0.5811 -0.3100 -0.5555
   76MOL   C22830378   4.960   4.146   7.021  0.7760  0.3508  0.2548
   76MOL   C22930379   4.688   4.029   7.022 -0.2690  0.3541 -0.5430
   76MOL   C23030380   4.570   3.956   6.996 -0.7326 -0.9434 -0.9738
   76MOL   C23130381   4.420   3.737   6.817  0.3662 -0.1683 -0.3338
   76MOL   H23230382   4.365   3.926   6.727  3.6396 -2.3468 -2.5469
   76MOL   H23330383   4.496   4.093   6.691 -0.1678 -0.3403 -0.6344
   76MOL   H23430384   4.698   4.236   6.744  1.3606  1.7565  0.8479
   76MOL   H23530385   4.935   4.165   7.126  0.1414 -0.4648  0.2553
   76MOL   H23630386   4.965   4.043   6.988 -2.5210  0.1894  0.1049
   76MOL   H23730387   5.045   4.207   6.990 -1.7669  4.3145  0.6879
   76MOL   H23830388   4.746   4.002   7.108  1.8880  3.6620 -0.8564
   76MOL   H23930389   4.537   3.883   7.069  1.5485 -0.6863  0.3498
   76MOL   H24030390   4.427   3.698   6.918 -3.0617  0.4674  0.2173
   76MOL   H24130391   4.334   3.680   6.783  0.1443 -0.3836  0.5945
   76MOL   C24230392   4.544   3.700   6.738  0.3214  0.3787  0.3449
   76MOL   C24330393   4.639   3.595   6.813 -0.5453  0.3327  0.5008
   76MOL   C24430394   4.622   3.458   6.815 -0.4873  0.1317 -0.0476
   76MOL   C24530395   4.727   3.383   6.867  0.6000 -0.1116  0.1525
   76MOL   C24630396   4.854   3.432   6.904 -0.2822  0.1744 -0.1113
   76MOL   O24730397   4.964   3.355   6.946  0.6106 -0.1584 -0.3305
   76MOL   C24830398   4.958   3.217   6.920  0.8492 -0.4384  0.1936
   76MOL   C24930399   4.863   3.571   6.916  0.8408 -0.1000  0.1342
   76MOL   C25030400   4.758   3.654   6.866 -0.0993 -0.6313 -0.0719
   76MOL   C25130401   4.512   3.644   6.603 -0.8454 -0.2127  0.2537
   76MOL   H25230402   4.604   3.788   6.717 -1.0238  0.9398 -1.2309
   76MOL   H25330403   4.530   3.412   6.784  0.4277 -2.0986  0.4193
   76MOL   H25430404   4.711   3.278   6.889 -0.2787 -0.1852 -0.8316
   76MOL   H25530405   4.885   3.173   6.988 -1.2992  2.9157  0.2014
   76MOL   H25630406   4.916   3.199   6.821  0.7470 -1.6801  0.4578
   76MOL   H25730407   5.053   3.167   6.938  0.6482 -1.5494 -1.6563
   76MOL   H25830408   4.949   3.612   6.965  0.7851 -1.2985  1.2735
   76MOL   H25930409   4.763   3.761   6.878  0.4999 -0.8988  2.3544
   76MOL   H26030410   4.438   3.706   6.552 -1.8668 -2.3381 -0.9165
   76MOL   H26130411   4.461   3.550   6.623  0.9028 -0.9351  1.3943
   76MOL   C26230412   4.640   3.606   6.515  0.6334  0.5256  1.0681
   76MOL   C26330413   4.739   3.725   6.514 -0.3749  0.2212 -0.0697
   76MOL   C26430414   4.868   3.710   6.567 -0.0808 -0.3193 -0.2106
   76MOL   C26530415   4.947   3.821   6.605 -0.1265  0.0794  0.6022
   76MOL   C26630416   4.905   3.952   6.568  0.3420  0.4485  0.2043
   76MOL   O26730417   4.978   4.062   6.594 -0.3460 -0.2560 -0.3399
   76MOL   C26830418   5.116   4.049   6.641 -0.0710  0.2248 -0.4970
   76MOL   C26930419   4.776   3.962   6.509  0.6677 -0.8735  0.1987
   76MOL   C27030420   4.694   3.852   6.476  0.3648 -0.4411 -0.1912
   76MOL   C27130421   4.617   3.561   6.373 -0.0791  0.5168 -0.0999
   76MOL   H27230422   4.701   3.526   6.557  0.7815  0.5479  0.8934
   76MOL   H27330423   4.901   3.612   6.598  0.4795 -0.7486 -2.1074
   76MOL   H27430424   5.048   3.806   6.642  0.4603 -1.3761 -1.5178
   76MOL   H27530425   5.124   4.031   6.748  0.0361  0.7479 -0.4134
   76MOL   H27630426   5.154   4.150   6.629  1.0577 -0.1137  0.1770
   76MOL   H27730427   5.177   3.982   6.582 -0.8025 -0.3445 -0.6117
   76MOL   H27830428   4.728   4.058   6.495 -2.4220 -2.3361  0.2910
   76MOL   H27930429   4.598   3.875   6.433  0.3744 -0.5349 -0.2605
   76MOL   H28030430   4.560   3.643   6.329 -2.2913 -0.3759  1.0309
   76MOL   H28130431   4.710   3.551   6.318  1.2594  0.9792  1.9894
   76MOL   C28230432   4.534   3.433   6.341 -0.4762  0.9146  0.0709
   76MOL   C28330433   4.596   3.299   6.385  0.0809 -0.8364 -0.5279
   76MOL   C28430434   4.514   3.209   6.460  0.2882  0.0294 -0.5218
   76MOL   C28530435   4.566   3.091   6.510 -0.4445 -0.3380  0.0054
   76MOL   C28630436   4.699   3.052   6.481  0.5292  0.2902  0.4299
   76MOL   O28730437   4.758   2.939   6.538  0.0559  0.4749  0.6689
   76MOL   C28830438   4.861   2.872   6.465 -0.0938 -0.1535  0.3011
   76MOL   C28930439   4.782   3.145   6.411  0.5612  0.7692  0.2186
   76MOL   C29030440   4.729   3.261   6.351 -0.0478 -0.0253  0.0852
   76MOL   C29130441   4.523   3.423   6.181  0.5287 -0.2757 -0.6281
   76MOL   H29230442   4.433   3.428   6.384 -1.0132  1.0670 -1.1484
   76MOL   H29330443   4.409   3.231   6.469  0.1706 -0.2573 -1.1552
   76MOL   H29430444   4.500   3.031   6.571  1.2777 -0.6321  1.6294
   76MOL   H29530445   4.855   2.767   6.494 -0.0701 -0.3413 -0.3683
   76MOL   H29630446   4.838   2.876   6.359 -0.9561 -2.4734  0.3810
   76MOL   H29730447   4.964   2.906   6.473 -0.9208  2.3970  0.6390
   76MOL   H29830448   4.889   3.133   6.400  0.0890 -1.6588 -2.2077
   76MOL   H29930449   4.792   3.332   6.299 -0.6144  1.2871  1.1545
   76MOL   H30030450   4.605   3.476   6.133  0.6197 -3.6076 -4.3974
   76MOL   H30130451   4.541   3.322   6.146 -1.5252 -0.6787 -0.6142
   76MOL   C30230452   4.385   3.471   6.128 -0.3110 -0.1918  0.9616
   76MOL   C30330453   4.371   3.623   6.151  0.3663 -0.6172  0.0943
   76MOL   C30430454   4.302   3.671   6.261  0.7869 -0.0713  0.1813
   76MOL   C30530455   4.295   3.810   6.283 -1.4116  0.0538  0.5410
   76MOL   C30630456   4.343   3.899   6.192  0.0687  0.3574  0.5898
   76MOL   O30730457   4.315   4.030   6.224 -0.0436 -0.5377 -0.1976
   76MOL   C30830458   4.405   4.131   6.185  0.0346  0.1662 -0.2861
   76MOL   C30930459   4.411   3.848   6.077  0.0984 -0.1969  0.3464
   76MOL   C31030460   4.417   3.711   6.048 -0.4359 -0.4122 -0.1905
   76MOL   C31130461   4.368   3.425   5.978  0.8899 -0.3699 -0.0193
   76MOL   H31230462   4.312   3.418   6.189  0.0811 -1.0744  0.6733
   76MOL   H31330463   4.265   3.611   6.342 -0.3109  2.4595  1.6403
   76MOL   H31430464   4.251   3.846   6.374  1.4268  1.5159  1.3693
   76MOL   H31530465   4.507   4.096   6.202  0.5069  0.1652 -3.0062
   76MOL   H31630466   4.394   4.225   6.239 -2.4753  1.4915 -3.0371
   76MOL   H31730467   4.395   4.144   6.078 -0.0705 -0.9055 -0.4184
   76MOL   H31830468   4.445   3.912   5.998  1.2588 -0.1061  0.9033
   76MOL   H31930469   4.451   3.678   5.951 -1.5031  0.3225 -0.8241
   76MOL   H32030470   4.461   3.443   5.924 -0.9025  0.3348 -3.0428
   76MOL   H32130471   4.296   3.501   5.947  1.4157 -0.1728 -0.7719
   76MOL   C32230472   4.321   3.289   5.935 -0.4088 -0.2215  0.0689
   76MOL   C32330473   4.430   3.170   5.943 -0.3823 -0.6553 -0.2743
   76MOL   C32430474   4.558   3.180   5.884 -0.2934  0.0052  0.1678
   76MOL   C32530475   4.652   3.077   5.893 -0.0117 -0.7620  0.1836
   76MOL   C32630476   4.617   2.955   5.957  0.1520  0.3069  0.1640
   76MOL   O32730477   4.695   2.840   5.952  0.2655  0.2393 -0.4307
   76MOL   C32830478   4.823   2.851   5.889 -0.3990 -0.0284 -0.1759
   76MOL   C32930479   4.494   2.950   6.021  0.7077 -0.4120 -0.4427
   76MOL   C33030480   4.396   3.052   6.013 -0.4582 -0.6291 -1.3002
   76MOL   C33130481   4.266   3.290   5.786  0.0778  0.1465  0.0726
   76MOL   H33230482   4.245   3.259   6.008 -0.9430 -1.6458 -1.0352
   76MOL   H33330483   4.582   3.270   5.830 -0.4618  0.1969  0.4128
   76MOL   H33430484   4.745   3.085   5.839 -0.5163  0.4356 -0.5333
   76MOL   H33530485   4.902   2.902   5.943  1.3322 -1.5147 -1.2508
   76MOL   H33630486   4.822   2.892   5.788  2.9004 -1.3040 -0.7881
   76MOL   H33730487   4.872   2.754   5.877  2.2902  0.8898  2.6982
   76MOL   H33830488   4.464   2.869   6.087  3.0177  0.8567  2.2330
   76MOL   H33930489   4.299   3.047   6.060 -0.8997  3.0283 -1.6516
   76MOL   H34030490   4.334   3.342   5.717 -0.9916 -0.5090 -1.5032
   76MOL   H34130491   4.282   3.187   5.753  2.1658 -0.6573  3.2736
   76MOL   C34230492   4.125   3.350   5.759  0.4868 -0.1179  0.8622
   76MOL   C34330493   4.011   3.282   5.832 -0.2563  0.7761  0.0338
   76MOL   C34430494   4.003   3.146   5.866  0.5138  0.3397 -0.6247
   76MOL   C34530495   3.892   3.093   5.936 -0.6058  0.1816  0.3562
   76MOL   C34630496   3.786   3.176   5.980  0.2667 -0.5700  0.1041
   76MOL   O34730497   3.689   3.118   6.058  0.0098  0.7416 -0.2318
   76MOL   C34830498   3.602   3.200   6.139  0.7155 -0.0147  0.0671
   76MOL   C34930499   3.788   3.317   5.946  0.2256  0.2719 -0.2055
   76MOL   C35030500   3.897   3.366   5.874  0.0833 -0.2472 -0.1282
   76MOL   C35130501   4.102   3.357   5.609  0.0106 -0.0218 -0.6926
   76MOL   H35230502   4.134   3.446   5.810  0.8284  0.3209 -0.0148
   76MOL   H35330503   4.077   3.076   5.831  0.0901 -0.9703  1.0449
   76MOL   H35430504   3.892   2.989   5.966 -2.6308 -0.4991 -1.8500
   76MOL   H35530505   3.522   3.137   6.179 -2.2080  3.4600 -0.0269
   76MOL   H35630506   3.645   3.229   6.235 -0.1350  0.4887  0.3038
   76MOL   H35730507   3.555   3.273   6.074 -0.2518 -0.9610 -0.3032
   76MOL   H35830508   3.716   3.392   5.975 -1.5310 -1.4978  0.1309
   76MOL   H35930509   3.896   3.472   5.855 -1.3032 -0.3395 -0.6411
   76MOL   H36030510   4.095   3.259   5.561  3.3519  0.1823 -1.7439
   76MOL   H36130511   4.000   3.391   5.590 -0.0524 -0.4373 -1.1040
   76MOL   C36230512   4.191   3.451   5.521  0.6011  0.1189  0.1925
   76MOL   C36330513   4.220   3.585   5.581  0.4999 -0.3928 -0.1842
   76MOL   C36430514   4.124   3.684   5.607  0.2457  0.6068 -0.4765
   76MOL   C36530515   4.164   3.802   5.664 -0.6749  0.2281  0.5282
   76MOL   C36630516   4.300   3.825   5.702 -0.1029  0.9967  0.6445
   76MOL   O36730517   4.343   3.938   5.765  0.1854  0.3779 -0.4642
   76MOL   C36830518   4.243   4.020   5.830 -0.0070 -0.0902  0.0420
   76MOL   C36930519   4.400   3.733   5.659  0.3793  0.1753  1.0458
   76MOL   C37030520   4.357   3.608   5.603  0.4557  0.1933 -0.2630
   76MOL   C37130521   4.135   3.461   5.376 -0.7747  0.6261 -0.0183
   76MOL   H37230522   4.287   3.401   5.511  0.1181 -0.3662 -2.4088
   76MOL   H37330523   4.021   3.663   5.584  0.0847  1.1181 -0.2112
   76MOL   H37430524   4.092   3.882   5.669  0.8017  1.6094  0.2328
   76MOL   H37530525   4.173   3.968   5.896  0.7917  0.1921  1.1380
   76MOL   H37630526   4.294   4.099   5.885  2.1037 -0.9128 -0.6994
   76MOL   H37730527   4.190   4.068   5.748  0.2021  2.5323  1.3976
   76MOL   H37830528   4.507   3.748   5.669  0.2106  0.0902  3.2963
   76MOL   H37930529   4.426   3.529   5.577 -0.3942 -0.5699 -0.2226
   76MOL   H38030530   4.166   3.373   5.321  0.8995  0.9351  0.4116
   76MOL   H38130531   4.026   3.472   5.376 -1.2115 -3.0006  0.4205
   76MOL   C38230532   4.198   3.568   5.283  0.8801  0.6624 -0.4596
   76MOL   C38330533   4.118   3.580   5.159  0.0597 -0.0672 -0.2528
   76MOL   C38430534   4.109   3.472   5.067 -0.3516 -0.6110 -0.2823
   76MOL   C38530535   4.038   3.477   4.948  0.0212  0.1915 -0.1348
   76MOL   C38630536   3.969   3.596   4.913 -0.0393  0.3160 -0.2772
   76MOL   O38730537   3.901   3.592   4.797 -0.3671  0.0073  0.5653
   76MOL   C38830538   3.833   3.714   4.757  0.1071  0.1078 -0.1611
   76MOL   C38930539   3.986   3.707   5.002 -0.8944 -0.3356 -0.1665
   76MOL   C39030540   4.064   3.701   5.121  0.1696 -0.5569  0.8165
   76MOL   C39130541   4.349   3.552   5.260  0.2449  0.2730  0.0044
   76MOL   H39230542   4.187   3.663   5.335 -2.0499 -0.6351  1.4500
   76MOL   H39330543   4.143   3.372   5.091 -2.1229 -1.2399 -0.2936
   76MOL   H39430544   4.013   3.389   4.892  0.3779  0.1419 -0.2152
   76MOL   H39530545   3.791   3.691   4.660 -1.2287  0.7404  0.2629
   76MOL   H39630546   3.902   3.797   4.741  2.4886 -1.5820  0.9063
   76MOL   H39730547   3.744   3.735   4.815  1.2802 -1.7681  2.4131
   76MOL   H39830548   3.936   3.801   4.982 -4.1150 -1.6418  1.4386
   76MOL   H39930549   4.055   3.783   5.191 -3.7052 -1.6266  1.6863
   76MOL   H40030550   4.397   3.629   5.200  2.4856 -1.3743 -0.3620
   76MOL   H40130551   4.367   3.461   5.203 -0.3872  2.0872 -3.2047
   76MOL   H40230552   4.414   3.539   5.347 -0.3831 -0.4021  0.3899
   77MOL     C130553   2.624   2.702   2.963 -0.4310 -0.2771  0.4702
   77MOL     C230554   2.703   2.612   3.054 -0.6844 -0.1663  0.5184
   77MOL     C330555   2.647   2.585   3.182  0.1189  0.5364  0.1658
   77MOL     C430556   2.708   2.499   3.269  0.2393  0.5990  0.0420
   77MOL     C530557   2.832   2.439   3.227  0.1079 -0.3081  0.0410
   77MOL     O630558   2.896   2.358   3.317  0.5328  0.0237  0.6719
   77MOL     C730559   2.983   2.255   3.263  0.1463 -0.0788 -0.9320
   77MOL     C830560   2.886   2.467   3.102 -0.1279  0.1542 -0.1509
   77MOL     C930561   2.824   2.556   3.014 -0.2595 -0.1501 -0.4431
   77MOL    C1030562   2.542   2.619   2.871  0.3072 -0.4338  0.1914
   77MOL    H1130563   2.692   2.774   2.917 -0.4605  0.4850  1.5899
   77MOL    H1230564   2.549   2.623   3.207  0.4519  2.3399 -1.1541
   77MOL    H1330565   2.669   2.484   3.368 -1.5231 -0.4102 -0.7735
   77MOL    H1430566   2.941   2.191   3.186 -2.8681  4.1114 -2.9404
   77MOL    H1530567   3.070   2.301   3.215  1.0456 -0.2836  0.4588
   77MOL    H1630568   3.023   2.198   3.347 -0.6245 -0.0250 -0.5171
   77MOL    H1730569   2.979   2.418   3.076  0.1017 -0.3149  1.4823
   77MOL    H1830570   2.868   2.583   2.919  3.1484  2.8602  1.8182
   77MOL    H1930571   2.602   2.546   2.817  0.1609 -1.4731  1.4018
   77MOL    H2030572   2.478   2.554   2.929 -0.6135 -0.0523 -0.3907
   77MOL    H2130573   2.549   2.759   3.018  0.4221  0.2343  1.1079
   77MOL    C2230574   2.448   2.695   2.773  0.2112 -0.7974  0.6094
   77MOL    C2330575   2.537   2.798   2.697 -0.0148 -0.1477 -0.7532
   77MOL    C2430576   2.631   2.758   2.597  0.6055 -0.7024 -0.0189
   77MOL    C2530577   2.682   2.856   2.509 -0.3768  0.1758 -0.1843
   77MOL    C2630578   2.668   2.988   2.541  0.0779  0.7612 -0.6561
   77MOL    O2730579   2.719   3.086   2.455 -0.1766  0.0212 -0.4438
   77MOL    C2830580   2.723   3.070   2.315  0.3987  0.5435 -1.2369
   77MOL    C2930581   2.590   3.027   2.652 -0.5987  0.0505 -0.3209
   77MOL    C3030582   2.520   2.933   2.725 -0.0844 -0.6959 -0.1651
   77MOL    C3130583   2.361   2.609   2.682  0.1453  0.8169  0.0707
   77MOL    H3230584   2.386   2.760   2.834 -0.8050 -0.5252 -0.6845
   77MOL    H3330585   2.634   2.653   2.569 -0.7320 -0.8334  0.2853
   77MOL    H3430586   2.741   2.826   2.423  0.0861  1.7658 -0.4345
   77MOL    H3530587   2.675   2.979   2.278  0.4877 -0.3407  0.7032
   77MOL    H3630588   2.828   3.062   2.285 -0.3238  0.0760 -3.7638
   77MOL    H3730589   2.676   3.149   2.257  0.0692  1.2884  0.0332
   77MOL    H3830590   2.579   3.132   2.678 -0.3090 -0.1590  0.6662
   77MOL    H3930591   2.458   2.961   2.808  1.1950  1.3652  0.1238
   77MOL    H4030592   2.409   2.514   2.662 -0.0035  1.1013 -1.6787
   77MOL    H4130593   2.268   2.588   2.736  1.7846 -0.3454  2.5374
   77MOL    C4230594   2.329   2.657   2.534  0.2153 -0.1464 -0.0002
   77MOL    C4330595   2.258   2.794   2.542  0.1090  0.7205 -0.1758
   77MOL    C4430596   2.309   2.904   2.465 -1.2424  0.4650 -0.1640
   77MOL    C4530597   2.254   3.029   2.493 -0.2281  0.3276  0.1829
   77MOL    C4630598   2.142   3.052   2.578  0.3189 -0.0640 -0.3094
   77MOL    O4730599   2.099   3.185   2.607  0.5923  0.2192 -0.2273
   77MOL    C4830600   2.162   3.303   2.552 -0.4416  0.1535 -0.7768
   77MOL    C4930601   2.089   2.946   2.646  0.7468 -0.5270 -0.1028
   77MOL    C5030602   2.137   2.814   2.611  0.4606 -1.1503  0.2059
   77MOL    C5130603   2.247   2.561   2.456  0.1303  0.6079 -0.7642
   77MOL    H5230604   2.413   2.677   2.468  0.4631 -3.5561 -0.8240
   77MOL    H5330605   2.395   2.894   2.400 -0.2821  1.6896  0.8902
   77MOL    H5430606   2.299   3.113   2.441  2.4335 -1.0115  0.2428
   77MOL    H5530607   2.264   3.296   2.588 -0.6478 -2.9721 -0.6715
   77MOL    H5630608   2.131   3.311   2.448  0.6360  0.9083 -1.0482
   77MOL    H5730609   2.116   3.387   2.605 -1.5035 -0.9461  0.1025
   77MOL    H5830610   2.006   2.954   2.714  1.1423 -3.1060  0.7326
   77MOL    H5930611   2.088   2.726   2.650 -1.0827 -0.5105 -0.2699
   77MOL    H6030612   2.236   2.601   2.355 -0.0120 -0.6090 -1.2406
   77MOL    H6130613   2.150   2.552   2.504  0.2814 -0.8698 -0.7108
   77MOL    C6230614   2.311   2.422   2.426  0.1532 -0.1405  0.2589
   77MOL    C6330615   2.455   2.411   2.376 -0.1020  0.9480 -0.1915
   77MOL    C6430616   2.489   2.467   2.250 -0.3669  0.1065 -0.1169
   77MOL    C6530617   2.618   2.444   2.199 -0.0286 -0.9964  0.2333
   77MOL    C6630618   2.717   2.381   2.274 -0.2825  0.7175  0.1857
   77MOL    O6730619   2.836   2.375   2.218  0.0670 -0.6503  0.3678
   77MOL    C6830620   2.944   2.369   2.310 -0.4382 -0.0101  0.7986
   77MOL    C6930621   2.686   2.326   2.400 -0.4930  0.2397  0.1575
   77MOL    C7030622   2.552   2.335   2.447 -0.5414 -0.0402 -0.2831
   77MOL    C7130623   2.216   2.333   2.342  0.3513  0.1129  0.2365
   77MOL    H7230624   2.323   2.368   2.520 -0.7142 -0.3434  0.2558
   77MOL    H7330625   2.401   2.505   2.200  0.3871  1.8442 -0.1272
   77MOL    H7430626   2.646   2.464   2.096 -2.9814  0.4318 -0.3551
   77MOL    H7530627   3.033   2.395   2.252 -1.5107  2.3980  0.1651
   77MOL    H7630628   2.960   2.267   2.344  3.5729  0.2075 -0.1594
   77MOL    H7730629   2.936   2.446   2.387  1.7094  1.8892 -0.8074
   77MOL    H7830630   2.760   2.272   2.457 -0.5633 -2.3585 -2.0942
   77MOL    H7930631   2.523   2.290   2.541  1.3427  1.3277  0.9822
   77MOL    H8030632   2.120   2.322   2.393  0.2477  0.2744  0.0779
   77MOL    H8130633   2.202   2.386   2.247  2.1486 -0.2595 -0.2460
   77MOL    C8230634   2.265   2.185   2.310  0.2348 -0.9952 -0.3621
   77MOL    C8330635   2.273   2.090   2.427 -0.0361 -0.6874  0.1406
   77MOL    C8430636   2.391   2.040   2.472  0.6426 -0.3428  0.5135
   77MOL    C8530637   2.395   1.954   2.586  0.4962 -0.1093  0.0090
   77MOL    C8630638   2.280   1.930   2.660 -0.4473 -0.4011  0.0358
   77MOL    O8730639   2.272   1.841   2.768  0.9592 -0.1525  0.0058
   77MOL    C8830640   2.385   1.764   2.807 -1.1806 -0.1459  0.2411
   77MOL    C8930641   2.161   1.990   2.619  0.3188 -0.2115 -0.0218
   77MOL    C9030642   2.154   2.065   2.502  0.2308  0.3992  0.0554
   77MOL    C9130643   2.166   2.119   2.207  0.0454 -0.9827 -0.1149
   77MOL    H9230644   2.364   2.188   2.266  0.7040  1.0120  0.7895
   77MOL    H9330645   2.483   2.063   2.418  0.4911  0.9454  0.7815
   77MOL    H9430646   2.488   1.904   2.609 -0.7629 -2.6628 -0.3192
   77MOL    H9530647   2.462   1.831   2.845  0.2758 -1.7964  0.2668
   77MOL    H9630648   2.428   1.709   2.723 -1.3860  0.3711 -0.2066
   77MOL    H9730649   2.372   1.685   2.881  1.0288 -0.8143 -0.0260
   77MOL    H9830650   2.071   1.969   2.675 -1.7113  0.8089 -2.8107
   77MOL    H9930651   2.063   2.112   2.467  0.8379  0.3855 -1.5920
   77MOL   H10030652   2.178   2.010   2.207  0.5971 -0.9306  1.0785
   77MOL   H10130653   2.069   2.132   2.254  1.2734  1.8129  1.7624
   77MOL   C10230654   2.180   2.156   2.053  0.0475 -0.6941 -0.7660
   77MOL   C10330655   2.323   2.130   1.999 -0.1486  0.2910  0.1222
   77MOL   C10430656   2.397   2.245   1.971 -0.6552  0.3795  0.1990
   77MOL   C10530657   2.528   2.241   1.917 -0.9132 -0.2528  0.3854
   77MOL   C10630658   2.588   2.114   1.897 -0.3622 -0.7396  0.4624
   77MOL   O10730659   2.726   2.115   1.858  0.2877 -0.0938 -0.7926
   77MOL   C10830660   2.807   2.000   1.871 -0.5700 -0.2210  0.0089
   77MOL   C10930661   2.514   1.998   1.926 -0.3667 -0.3332 -0.2627
   77MOL   C11030662   2.383   2.007   1.978 -0.0694  0.2295 -0.2717
   77MOL   C11130663   2.080   2.071   1.983 -0.3439  0.3563 -0.2069
   77MOL   H11230664   2.156   2.262   2.039 -2.3075 -1.0897  0.0740
   77MOL   H11330665   2.352   2.341   1.991  1.1181  1.0987  0.8680
   77MOL   H11430666   2.590   2.326   1.893 -0.2376 -1.0596 -0.7762
   77MOL   H11530667   2.847   1.999   1.972 -0.6894  0.7579  0.0764
   77MOL   H11630668   2.753   1.906   1.858  0.7693 -0.9953  0.0367
   77MOL   H11730669   2.893   2.009   1.806 -1.3372 -0.3835 -1.0454
   77MOL   H11830670   2.550   1.897   1.916  1.4140  0.2879 -0.2282
   77MOL   H11930671   2.339   1.918   2.020 -0.9078  0.9883  0.4842
   77MOL   H12030672   2.101   1.966   2.001  0.3598  0.1538 -2.0342
   77MOL   H12130673   1.985   2.081   2.035 -0.4423 -1.7942  0.0770
   77MOL   C12230674   2.058   2.097   1.832  0.2199  0.6170 -0.1778
   77MOL   C12330675   2.040   2.251   1.793 -0.3013  0.0417 -0.0724
   77MOL   C12430676   2.138   2.307   1.705  1.0700  0.4791  0.4551
   77MOL   C12530677   2.113   2.431   1.651  0.1263 -0.0307 -0.5100
   77MOL   C12630678   1.993   2.501   1.683 -0.0342  0.7920 -0.2512
   77MOL   O12730679   1.959   2.623   1.638  0.6168  0.0362 -0.0998
   77MOL   C12830680   2.014   2.652   1.516  1.0751 -0.5525 -0.8432
   77MOL   C12930681   1.897   2.447   1.774 -0.2849  0.1224  0.2383
   77MOL   C13030682   1.927   2.321   1.825  0.0809 -0.2157  0.4812
   77MOL   C13130683   1.939   2.012   1.782  0.7386  0.0964 -0.5359
   77MOL   H13230684   2.156   2.078   1.790  0.6154  0.0106  1.0202
   77MOL   H13330685   2.236   2.262   1.698  0.9262  0.2883 -0.3278
   77MOL   H13430686   2.192   2.486   1.603  1.4032 -1.3294  0.0555
   77MOL   H13530687   1.977   2.747   1.479  0.9832 -0.6686 -1.0508
   77MOL   H13630688   2.121   2.658   1.534  0.9595 -3.5473  1.4158
   77MOL   H13730689   2.000   2.577   1.438  1.5579 -0.1729 -1.2898
   77MOL   H13830690   1.812   2.511   1.793 -0.3406 -0.3993  1.8249
   77MOL   H13930691   1.857   2.275   1.894 -1.9023  1.2254 -0.5264
   77MOL   H14030692   1.854   2.072   1.746 -2.0949 -1.0582  3.8289
   77MOL   H14130693   1.898   1.959   1.868  0.4285  1.3731  0.1218
   77MOL   C14230694   1.983   1.909   1.676 -0.3504  0.3375 -0.0294
   77MOL   C14330695   2.102   1.824   1.720 -0.6015  0.1350  0.1814
   77MOL   C14430696   2.079   1.714   1.813  0.3695 -0.1715  0.4971
   77MOL   C14530697   2.189   1.629   1.844  0.0257 -0.4405 -0.1516
   77MOL   C14630698   2.322   1.671   1.819  0.8878  0.2325 -0.1291
   77MOL   O14730699   2.435   1.602   1.854 -0.3762  0.5181 -0.2584
   77MOL   C14830700   2.415   1.491   1.949 -0.0278  0.2999  0.6347
   77MOL   C14930701   2.342   1.780   1.733  0.5140 -0.5318 -0.2953
   77MOL   C15030702   2.234   1.856   1.681  0.3494  0.0074  0.7544
   77MOL   C15130703   1.861   1.828   1.628 -0.1537 -0.2758  0.6669
   77MOL   H15230704   2.018   1.977   1.598  1.5632 -1.4951 -0.8099
   77MOL   H15330705   1.978   1.686   1.840  0.8434  1.2162  4.1068
   77MOL   H15430706   2.174   1.541   1.903  0.1984  1.2449  2.4768
   77MOL   H15530707   2.507   1.436   1.971 -0.1596  0.5956  1.9544
   77MOL   H15630708   2.386   1.547   2.037  0.5894  1.4202  0.1450
   77MOL   H15730709   2.337   1.418   1.930 -0.3881  0.3642  1.8409
   77MOL   H15830710   2.442   1.807   1.704  0.1599  0.7194 -0.3653
   77MOL   H15930711   2.264   1.929   1.606 -0.3825  0.0375  0.4909
   77MOL   H16030712   1.780   1.898   1.605 -0.6206 -1.0051  0.0921
   77MOL   H16130713   1.822   1.763   1.705 -0.9922  0.7481  1.1217
   77MOL   C16230714   1.895   1.737   1.506 -0.7523 -0.3726 -0.3474
   77MOL   C16330715   1.929   1.813   1.372 -0.5679  1.0077 -0.2775
   77MOL   C16430716   2.028   1.764   1.279  0.5946 -0.5502 -0.2671
   77MOL   C16530717   2.059   1.832   1.158  0.9087 -0.2181 -0.6107
   77MOL   C16630718   1.998   1.957   1.134 -0.0504  0.8604 -0.2943
   77MOL   O16730719   2.028   2.039   1.030 -0.4752  0.5876 -0.4664
   77MOL   C16830720   2.164   2.030   0.976 -0.3239  0.1770 -0.5936
   77MOL   C16930721   1.906   2.009   1.230 -0.6385  0.4197 -0.4374
   77MOL   C17030722   1.863   1.936   1.343 -0.7900  0.6661 -0.6514
   77MOL   C17130723   1.809   1.617   1.496  0.0559  0.6450 -0.1750
   77MOL   H17230724   1.996   1.700   1.521  1.1657  3.1561 -3.5173
   77MOL   H17330725   2.076   1.670   1.301  0.4022 -0.5238  0.2777
   77MOL   H17430726   2.125   1.783   1.087  1.3747 -0.5025  0.0065
   77MOL   H17530727   2.194   1.938   0.925 -1.2805  0.0942 -1.0310
   77MOL   H17630728   2.230   2.066   1.055 -1.6602  0.3319  0.4803
   77MOL   H17730729   2.160   2.105   0.897 -0.9203  0.0252 -0.7156
   77MOL   H17830730   1.863   2.107   1.217  1.1564  1.1666 -0.9562
   77MOL   H17930731   1.797   1.979   1.417  0.4395 -0.0657  0.8868
   77MOL   H18030732   1.820   1.552   1.583 -1.2809  0.3619 -0.2055
   77MOL   H18130733   1.843   1.560   1.409 -2.0110  0.4869 -0.9330
   77MOL   C18230734   1.661   1.648   1.472  0.5668 -0.3484 -0.5033
   77MOL   C18330735   1.580   1.628   1.596  0.8001 -0.1303 -0.0467
   77MOL   C18430736   1.549   1.494   1.638  0.3077  0.0391 -0.3092
   77MOL   C18530737   1.450   1.478   1.734 -0.9770 -0.1973  0.6119
   77MOL   C18630738   1.389   1.586   1.802 -1.3760  1.3017 -0.2734
   77MOL   O18730739   1.321   1.564   1.917  0.1780  0.1911 -0.0166
   77MOL   C18830740   1.217   1.468   1.903  0.5053  0.1624 -0.3586
   77MOL   C18930741   1.439   1.713   1.772  1.1120  0.1131 -0.2183
   77MOL   C19030742   1.520   1.736   1.658  0.1247  0.1334 -0.4554
   77MOL   C19130743   1.588   1.565   1.360  0.3447  0.6397  0.3439
   77MOL   H19230744   1.657   1.755   1.449 -1.5831 -0.2249  0.3324
   77MOL   H19330745   1.591   1.417   1.574  1.4194 -0.1690  0.6361
   77MOL   H19430746   1.414   1.379   1.756 -2.4364  0.0395 -0.6395
   77MOL   H19530747   1.133   1.488   1.969  1.6025  2.9253  0.2644
   77MOL   H19630748   1.258   1.368   1.915  0.1579  0.0823  0.1508
   77MOL   H19730749   1.168   1.457   1.806  0.0437 -0.8817 -0.0161
   77MOL   H19830750   1.414   1.801   1.830 -0.4030  0.7420 -1.7766
   77MOL   H19930751   1.550   1.837   1.635  1.4810 -0.6116 -2.0313
   77MOL   H20030752   1.640   1.579   1.266 -1.8373 -0.2680 -1.0471
   77MOL   H20130753   1.601   1.457   1.370  0.3614  0.7280  1.3534
   77MOL   C20230754   1.444   1.609   1.340 -0.6908  0.1228 -0.5787
   77MOL   C20330755   1.367   1.506   1.257 -0.5464 -0.1272  0.9872
   77MOL   C20430756   1.298   1.403   1.324 -0.5966  0.0561 -0.2650
   77MOL   C20530757   1.222   1.311   1.253  0.0486  0.1991  0.0038
   77MOL   C20630758   1.218   1.318   1.113  0.3150  0.1965  0.3204
   77MOL   O20730759   1.154   1.220   1.045 -0.0101 -0.0319  0.4646
   77MOL   C20830760   1.037   1.270   0.976 -0.5184  0.3743 -0.4291
   77MOL   C20930761   1.300   1.408   1.042  1.0775  0.5549 -0.3074
   77MOL   C21030762   1.370   1.503   1.115 -0.2396 -0.3643 -0.4952
   77MOL   C21130763   1.442   1.754   1.287 -0.0177  0.6359 -0.4188
   77MOL   H21230764   1.403   1.605   1.441 -1.3402  1.1337 -0.7946
   77MOL   H21330765   1.313   1.391   1.430  0.5566 -1.8066 -0.6125
   77MOL   H21430766   1.161   1.240   1.306 -0.1115 -1.8148 -2.7807
   77MOL   H21530767   1.060   1.362   0.922 -0.6043  1.4429  1.2943
   77MOL   H21630768   1.021   1.191   0.903  2.6851  0.1780 -0.9945
   77MOL   H21730769   0.950   1.282   1.041  0.2713 -0.0743  0.7273
   77MOL   H21830770   1.310   1.407   0.934  1.9023 -0.0602 -0.2245
   77MOL   H21930771   1.416   1.591   1.071 -0.1076 -0.1464  0.0733
   77MOL   H22030772   1.494   1.761   1.192  0.0433 -0.1975 -0.4478
   77MOL   H22130773   1.488   1.811   1.368  1.8053  0.0787 -1.0329
   77MOL   C22230774   1.305   1.813   1.273  0.2235 -0.3395  0.1401
   77MOL   C22330775   1.219   1.798   1.402  0.5189 -0.1605 -0.3312
   77MOL   C22430776   1.245   1.879   1.519 -0.8027  0.5163 -0.0231
   77MOL   C22530777   1.167   1.848   1.635 -0.4853 -0.2310  0.6165
   77MOL   C22630778   1.067   1.752   1.625  0.0175  0.1459  0.6716
   77MOL   O22730779   0.991   1.711   1.733 -0.3439 -0.2863 -0.0595
   77MOL   C22830780   0.997   1.799   1.851 -0.1379 -0.4978 -0.0455
   77MOL   C22930781   1.043   1.674   1.513  0.2359 -0.3045  0.0490
   77MOL   C23030782   1.126   1.691   1.401 -0.9046 -0.0586  0.0021
   77MOL   C23130783   1.318   1.963   1.231 -0.3730 -0.3914  0.0396
   77MOL   H23230784   1.251   1.764   1.191 -0.5594 -0.0541  0.4908
   77MOL   H23330785   1.319   1.957   1.520 -0.1120 -0.1412  0.6132
   77MOL   H23430786   1.193   1.907   1.722  0.0368 -1.7156  1.4761
   77MOL   H23530787   0.930   1.758   1.927 -0.6898 -3.0079 -1.7972
   77MOL   H23630788   1.086   1.816   1.910  0.1251  0.4304 -0.7041
   77MOL   H23730789   0.958   1.898   1.829  1.4341 -0.2991 -2.0766
   77MOL   H23830790   0.970   1.595   1.517 -1.2807  1.0547 -0.1768
   77MOL   H23930791   1.113   1.635   1.310 -1.9841  0.7449 -0.3489
   77MOL   H24030792   1.215   1.999   1.236  0.2567  1.4069  0.5016
   77MOL   H24130793   1.371   2.020   1.307  0.7106 -0.5074 -0.6171
   77MOL   C24230794   1.361   1.990   1.089 -0.0565  0.2906  0.4347
   77MOL   C24330795   1.277   2.103   1.026  0.2867 -0.4833 -0.2763
   77MOL   C24430796   1.172   2.075   0.930 -0.0081 -0.1842  0.4313
   77MOL   C24530797   1.096   2.181   0.878 -0.0061  0.6488 -0.8053
   77MOL   C24630798   1.111   2.315   0.922 -0.6491 -0.2607 -0.4088
   77MOL   O24730799   1.024   2.411   0.873  0.3676 -0.0259  1.0084
   77MOL   C24830800   1.010   2.527   0.949  0.7620  0.2171  0.3143
   77MOL   C24930801   1.204   2.342   1.027 -0.4607 -0.4125  0.1806
   77MOL   C25030802   1.284   2.235   1.071 -0.2604  0.1967  0.0269
   77MOL   C25130803   1.515   2.009   1.069  0.1342 -0.5797 -0.0067
   77MOL   H25230804   1.341   1.907   1.021  1.5237  0.4169 -0.2152
   77MOL   H25330805   1.153   1.976   0.892 -0.3663 -0.2683  0.8274
   77MOL   H25430806   1.013   2.159   0.813 -0.6527  1.6714 -0.3416
   77MOL   H25530807   0.917   2.578   0.926  0.2928 -0.3695  0.8847
   77MOL   H25630808   1.004   2.501   1.055  0.9359 -0.3301  0.1949
   77MOL   H25730809   1.092   2.595   0.929 -0.9971  2.1791 -0.3422
   77MOL   H25830810   1.212   2.442   1.065  0.5092 -0.6918  0.7168
   77MOL   H25930811   1.356   2.249   1.150 -0.6700 -1.2958  0.6857
   77MOL   H26030812   1.569   1.945   1.140 -0.6574 -2.2983 -0.9116
   77MOL   H26130813   1.536   2.113   1.092 -0.7215  0.1422 -2.3591
   77MOL   C26230814   1.563   1.980   0.923  0.5626  0.3550 -0.0741
   77MOL   C26330815   1.571   1.833   0.892  0.1517 -0.4412  0.3646
   77MOL   C26430816   1.658   1.746   0.955  0.6070 -0.8822  0.2020
   77MOL   C26530817   1.665   1.610   0.932  0.0241 -0.1240 -1.4802
   77MOL   C26630818   1.577   1.553   0.836 -0.4379  0.8370 -1.5708
   77MOL   O26730819   1.588   1.422   0.786 -0.5512  0.0411  0.9745
   77MOL   C26830820   1.668   1.325   0.842 -0.8660  0.1675  0.5463
   77MOL   C26930821   1.497   1.644   0.760 -0.2051  0.8462 -0.1179
   77MOL   C27030822   1.485   1.778   0.793 -0.1702  0.4020  0.1962
   77MOL   C27130823   1.694   2.054   0.885 -0.1795 -0.0190 -0.4200
   77MOL   H27230824   1.488   2.026   0.859 -0.8443  2.1896  2.7965
   77MOL   H27330825   1.716   1.782   1.039 -0.3591 -0.7484  0.8164
   77MOL   H27430826   1.731   1.557   0.998 -1.4996  0.7982  0.8524
   77MOL   H27530827   1.635   1.224   0.821  1.9239 -0.6337 -0.1577
   77MOL   H27630828   1.658   1.333   0.950  1.1150 -1.8931  0.9274
   77MOL   H27730829   1.774   1.338   0.821 -0.8483 -0.1829  0.4164
   77MOL   H27830830   1.429   1.601   0.689 -0.5763 -2.2726  2.0054
   77MOL   H27930831   1.419   1.845   0.740  0.8544  1.9462  0.8280
   77MOL   H28030832   1.749   2.063   0.978 -0.0183 -0.1554 -0.5040
   77MOL   H28130833   1.763   2.002   0.819  2.2814  0.5663  1.6142
   77MOL   C28230834   1.664   2.189   0.815  0.6651 -0.1994  0.1842
   77MOL   C28330835   1.592   2.176   0.688  0.0380 -0.2750  0.6976
   77MOL   C28430836   1.647   2.110   0.576  0.5554 -0.6243 -0.9000
   77MOL   C28530837   1.578   2.112   0.453  0.2077 -0.2913 -0.3399
   77MOL   C28630838   1.455   2.170   0.439  0.0479  0.2025  0.7169
   77MOL   O28730839   1.417   2.188   0.305 -0.1620 -0.0456  0.1502
   77MOL   C28830840   1.290   2.229   0.276  0.1423 -0.3587 -0.3492
   77MOL   C28930841   1.390   2.215   0.553 -0.3481  0.1725  0.1958
   77MOL   C29030842   1.455   2.221   0.672  0.7126 -1.3028 -0.7702
   77MOL   C29130843   1.795   2.273   0.805  0.2862 -0.1716  0.7580
   77MOL   H29230844   1.597   2.245   0.881  2.4028  0.3120  1.5713
   77MOL   H29330845   1.745   2.064   0.583 -0.0453 -1.9007 -0.9080
   77MOL   H29430846   1.641   2.077   0.372 -0.6176  0.4033 -1.2887
   77MOL   H29530847   1.210   2.179   0.331 -2.2903  1.6445 -1.9347
   77MOL   H29630848   1.290   2.336   0.294  2.4285 -0.5622  1.0344
   77MOL   H29730849   1.270   2.222   0.169  0.5731  1.9415 -0.6075
   77MOL   H29830850   1.296   2.269   0.541 -1.2333 -1.2261  0.7598
   77MOL   H29930851   1.403   2.267   0.755 -0.3109 -2.4238 -0.7847
   77MOL   H30030852   1.871   2.203   0.770  0.4610  1.4975 -2.3241
   77MOL   H30130853   1.797   2.338   0.718  2.3287 -3.9572 -2.1793
   77MOL   C30230854   1.842   2.347   0.940 -0.1170 -0.3482 -0.0273
   77MOL   C30330855   1.985   2.393   0.924 -0.1306 -0.0680 -0.0021
   77MOL   C30430856   2.039   2.452   0.811  0.3564 -0.0788 -0.0561
   77MOL   C30530857   2.169   2.502   0.809 -0.3536 -0.1019 -0.1450
   77MOL   C30630858   2.253   2.468   0.917 -0.7878 -0.0826 -0.0505
   77MOL   O30730859   2.379   2.507   0.905 -0.2843  0.5288  0.0841
   77MOL   C30830860   2.439   2.579   1.013  0.1734  0.5193 -0.1190
   77MOL   C30930861   2.206   2.403   1.033  0.2813 -0.0585 -0.5368
   77MOL   C31030862   2.075   2.358   1.032  0.1181 -0.0002  0.3141
   77MOL   C31130863   1.750   2.468   0.979  0.3451  0.0439  0.0778
   77MOL   H31230864   1.850   2.274   1.020  1.0607  0.5816  0.7043
   77MOL   H31330865   1.971   2.475   0.730  0.8811  1.2831 -0.1227
   77MOL   H31430866   2.193   2.563   0.723  2.0876  0.1407  0.6815
   77MOL   H31530867   2.517   2.646   0.979  0.4875 -0.3371 -1.1094
   77MOL   H31630868   2.470   2.512   1.093  0.0365  0.8062  0.1778
   77MOL   H31730869   2.363   2.645   1.056 -2.6225 -1.7082 -1.4360
   77MOL   H31830870   2.272   2.373   1.113  0.0863 -2.8548 -1.3568
   77MOL   H31930871   2.033   2.292   1.107 -1.4739 -0.5336 -1.0007
   77MOL   H32030872   1.642   2.451   0.981  0.4155 -0.2239  1.8919
   77MOL   H32130873   1.756   2.545   0.902 -0.3679  0.8017  0.7609
   77MOL   C32230874   1.781   2.547   1.109 -0.2758 -0.7378 -0.7776
   77MOL   C32330875   1.745   2.459   1.232 -0.1842 -0.7292 -0.6210
   77MOL   C32430876   1.611   2.415   1.260  0.5733  1.3603  0.2310
   77MOL   C32530877   1.580   2.334   1.368 -0.1931  0.0561  0.2277
   77MOL   C32630878   1.681   2.268   1.440 -1.1066  0.6285  0.4166
   77MOL   O32730879   1.664   2.165   1.534  0.0904  0.5249 -0.4439
   77MOL   C32830880   1.535   2.110   1.546  0.5185 -0.2033  0.1350
   77MOL   C32930881   1.819   2.322   1.425  0.4037  1.3902  0.0121
   77MOL   C33030882   1.846   2.411   1.320  0.0817  0.3898  0.4381
   77MOL   C33130883   1.708   2.678   1.115 -0.0277  0.1903 -0.3355
   77MOL   H33230884   1.889   2.563   1.103 -0.5412  1.3570 -0.2067
   77MOL   H33330885   1.524   2.443   1.203 -0.0436  1.2539  1.1168
   77MOL   H33430886   1.475   2.308   1.371 -0.1694  0.0884  1.7309
   77MOL   H33530887   1.463   2.188   1.568 -1.0004 -1.1679 -1.3373
   77MOL   H33630888   1.552   2.048   1.635  0.3117 -2.6825 -1.4895
   77MOL   H33730889   1.506   2.036   1.471 -1.1969 -0.7122  1.2765
   77MOL   H33830890   1.898   2.286   1.490  0.4280  1.6461  0.1227
   77MOL   H33930891   1.950   2.434   1.301  0.1793 -0.7911 -0.5332
   77MOL   H34030892   1.602   2.666   1.090 -0.8934  1.2359  2.5006
   77MOL   H34130893   1.697   2.712   1.218 -1.5666  2.6197 -1.2546
   77MOL   C34230894   1.776   2.786   1.031 -0.2006  0.2045  0.4833
   77MOL   C34330895   1.922   2.814   1.064  0.1923  0.0261 -0.7971
   77MOL   C34430896   2.025   2.819   0.965 -0.0905  0.4577  0.4277
   77MOL   C34530897   2.159   2.854   1.003  0.2119  0.4059  0.7207
   77MOL   C34630898   2.190   2.862   1.140  0.9776 -0.6102 -0.4986
   77MOL   O34730899   2.321   2.883   1.173  0.7285 -0.4205 -0.1879
   77MOL   C34830900   2.384   2.990   1.105  0.1080  0.8121  0.4482
   77MOL   C34930901   2.085   2.868   1.238  0.1589 -1.4703  0.6156
   77MOL   C35030902   1.948   2.845   1.200 -0.4262  0.6557 -0.3962
   77MOL   C35130903   1.696   2.921   1.034  0.4900 -0.6046 -1.6022
   77MOL   H35230904   1.782   2.757   0.926 -3.3857  0.9187  0.0519
   77MOL   H35330905   1.995   2.811   0.862 -2.2869 -3.2065  1.2585
   77MOL   H35430906   2.238   2.865   0.931  0.9567  0.7531  1.5823
   77MOL   H35530907   2.489   2.977   1.134  0.2805  1.4817  0.1509
   77MOL   H35630908   2.386   2.985   0.996  1.3008 -0.7790  0.5233
   77MOL   H35730909   2.343   3.081   1.148  0.6335  1.3941 -0.2467
   77MOL   H35830910   2.107   2.897   1.340 -1.4593 -0.3374  0.6647
   77MOL   H35930911   1.871   2.858   1.275 -1.8457 -0.1835 -1.6840
   77MOL   H36030912   1.715   2.983   1.122 -1.2840 -2.6886  0.3120
   77MOL   H36130913   1.749   2.984   0.962  2.5836  0.4831  0.8316
   77MOL   C36230914   1.543   2.912   1.000  0.6386  0.1821  0.3168
   77MOL   C36330915   1.515   2.827   0.887 -1.0948 -0.0225  0.6739
   77MOL   C36430916   1.403   2.743   0.891 -0.1956  0.1688  0.1931
   77MOL   C36530917   1.368   2.668   0.777 -0.3402  0.0709 -0.1517
   77MOL   C36630918   1.448   2.666   0.659 -0.2798  0.5160 -0.2552
   77MOL   O36730919   1.431   2.584   0.548 -0.5143 -0.0927  0.0212
   77MOL   C36830920   1.547   2.568   0.466  0.1166 -0.0282 -0.1741
   77MOL   C36930921   1.560   2.760   0.662 -0.2822 -0.0141  0.0360
   77MOL   C37030922   1.597   2.833   0.776  0.0222 -0.2089  0.0194
   77MOL   C37130923   1.462   3.040   1.019 -0.0904 -0.0043  0.6500
   77MOL   H37230924   1.513   2.858   1.090  2.6316 -0.7689  0.4545
   77MOL   H37330925   1.336   2.742   0.975 -0.8898  3.1362 -0.2469
   77MOL   H37430926   1.293   2.591   0.788 -1.1089  1.0378  1.4160
   77MOL   H37530927   1.518   2.492   0.393 -1.6525 -1.3027  1.7703
   77MOL   H37630928   1.599   2.651   0.420 -1.9659  1.0440 -0.6458
   77MOL   H37730929   1.617   2.507   0.523  0.7211 -0.3656 -1.2681
   77MOL   H37830930   1.630   2.771   0.581 -2.0489 -1.2165 -1.7058
   77MOL   H37930931   1.678   2.905   0.774 -1.1656  1.1592 -0.0528
   77MOL   H38030932   1.356   3.032   0.994  0.1867 -2.5631  0.2425
   77MOL   H38130933   1.454   3.057   1.126 -2.1360 -0.0526  0.5270
   77MOL   C38230934   1.516   3.178   0.951  0.1299  0.3083 -0.2570
   77MOL   C38330935   1.480   3.294   1.036  0.2993  1.0161  0.6637
   77MOL   C38430936   1.411   3.406   0.984  0.7374  0.0834 -0.5248
   77MOL   C38530937   1.386   3.520   1.059  0.4926  0.0401 -0.3525
   77MOL   C38630938   1.425   3.516   1.197 -0.0722 -0.0258  0.3519
   77MOL   O38730939   1.399   3.629   1.269  0.7730  0.8392  0.6525
   77MOL   C38830940   1.410   3.617   1.409 -0.5823  0.2820  0.2458
   77MOL   C38930941   1.493   3.404   1.249  0.4815  0.8856 -1.1249
   77MOL   C39030942   1.535   3.296   1.168  0.4114  0.0849 -0.6080
   77MOL   C39130943   1.447   3.177   0.818  0.3907 -0.0079  0.0214
   77MOL   H39230944   1.625   3.172   0.948  0.0313 -1.5468 -0.6739
   77MOL   H39330945   1.377   3.410   0.882 -1.2766  0.6313  0.1514
   77MOL   H39430946   1.341   3.612   1.024 -0.3216 -0.0917  0.3203
   77MOL   H39530947   1.372   3.704   1.462  0.2057  0.5402  0.4086
   77MOL   H39630948   1.513   3.603   1.442 -0.7438  0.3706  0.7927
   77MOL   H39730949   1.355   3.533   1.449 -1.0003  1.1864  1.5875
   77MOL   H39830950   1.520   3.402   1.354 -1.6064  0.6706 -0.5600
   77MOL   H39930951   1.595   3.214   1.204 -3.4533 -2.2848  0.6861
   77MOL   H40030952   1.480   3.089   0.765  1.9618 -0.4572  1.7004
   77MOL   H40130953   1.483   3.263   0.761  1.3576 -0.2257  0.2981
   77MOL   H40230954   1.338   3.173   0.830  0.5432 -0.3849  1.3158
   78MOL     C130955   6.890   3.882   6.303  0.0153  1.0162 -0.2154
   78MOL     C230956   6.901   3.813   6.440 -0.4919 -0.2499  0.3247
   78MOL     C330957   7.027   3.809   6.491  0.2593 -0.0387  0.5071
   78MOL     C430958   7.059   3.728   6.604 -0.2819  0.2611 -0.0256
   78MOL     C530959   6.962   3.652   6.666 -0.2418  0.0813 -0.1062
   78MOL     O630960   6.994   3.575   6.780 -0.4473  0.3585  0.1733
   78MOL     C730961   7.114   3.609   6.851  0.9259  1.3721 -0.4818
   78MOL     C830962   6.839   3.645   6.608 -1.0831 -0.8986 -0.9434
   78MOL     C930963   6.804   3.731   6.494 -0.4872  0.9760  0.5564
   78MOL    C1030964   6.785   3.995   6.326  0.7354 -0.0510  0.1111
   78MOL    H1130965   6.850   3.807   6.234 -1.6587  1.3434  0.3758
   78MOL    H1230966   7.106   3.858   6.436 -1.2241  1.6571 -0.1417
   78MOL    H1330967   7.160   3.726   6.643 -0.1957 -1.6224 -0.3097
   78MOL    H1430968   7.120   3.562   6.949  1.3368 -1.8420 -2.0152
   78MOL    H1530969   7.197   3.578   6.789  1.9010 -1.6934  2.2214
   78MOL    H1630970   7.120   3.716   6.875 -0.6927  1.4297 -0.2387
   78MOL    H1730971   6.769   3.577   6.653 -3.2895  1.8280 -0.0633
   78MOL    H1830972   6.705   3.722   6.452 -0.5408  0.1264  0.8477
   78MOL    H1930973   6.696   3.937   6.350  1.6394 -0.5461  2.5013
   78MOL    H2030974   6.804   4.060   6.412 -1.5787  0.5824  0.1737
   78MOL    H2130975   6.988   3.923   6.279  0.4784 -0.8848 -1.7794
   78MOL    C2230976   6.774   4.085   6.195 -0.6492  0.0964 -0.8213
   78MOL    C2330977   6.642   4.151   6.196  0.7372  0.8082  0.2259
   78MOL    C2430978   6.620   4.261   6.281  0.7827 -0.2298  0.4205
   78MOL    C2530979   6.511   4.348   6.268  0.0406  0.1014 -0.5300
   78MOL    C2630980   6.411   4.317   6.174 -0.5648 -0.2106  0.0559
   78MOL    O2730981   6.292   4.389   6.174  0.4238 -0.1265  0.3881
   78MOL    C2830982   6.294   4.524   6.230  0.1618  0.0721 -0.0696
   78MOL    C2930983   6.425   4.198   6.098  0.1528 -0.1358 -0.1599
   78MOL    C3030984   6.535   4.110   6.110 -0.3039  0.3242  0.5627
   78MOL    C3130985   6.903   4.165   6.178  0.7012 -0.5958 -0.2405
   78MOL    H3230986   6.762   4.016   6.111  2.9804 -2.4379  0.6567
   78MOL    H3330987   6.700   4.292   6.346  1.6032  0.8693 -1.0712
   78MOL    H3430988   6.504   4.434   6.332  2.0722  1.3597 -1.9503
   78MOL    H3530989   6.339   4.592   6.158  0.9916 -3.8569 -3.4781
   78MOL    H3630990   6.328   4.538   6.333 -2.8881  1.9709  0.7546
   78MOL    H3730991   6.190   4.553   6.243  0.5548  2.8833 -2.6905
   78MOL    H3830992   6.345   4.160   6.037  0.5382  1.0565 -1.4372
   78MOL    H3930993   6.541   4.021   6.049 -1.3053  0.7668 -0.2025
   78MOL    H4030994   6.891   4.265   6.219 -0.7798 -1.4920  1.6288
   78MOL    H4130995   6.986   4.111   6.225 -0.2735 -0.7523  1.3302
   78MOL    C4230996   6.953   4.176   6.029 -0.0636  0.1871 -0.5517
   78MOL    C4330997   6.887   4.266   5.925 -0.7031 -0.0319  0.0901
   78MOL    C4430998   6.767   4.225   5.858  0.3368 -0.2798  0.0604
   78MOL    C4530999   6.703   4.314   5.764  0.4754  0.7330  0.3759
   78MOL    C4631000   6.764   4.438   5.725  0.0106  0.4071 -0.1083
   78MOL    O4731001   6.700   4.521   5.636  0.1606  0.5528 -0.4229
   78MOL    C4831002   6.759   4.641   5.592 -0.2881  0.1970 -0.0128
   78MOL    C4931003   6.885   4.477   5.794 -0.1300  0.1129 -0.4083
   78MOL    C5031004   6.941   4.396   5.893 -0.2682  0.6681 -0.1239
   78MOL    C5131005   7.011   4.043   5.973 -0.4423 -0.2849  0.2160
   78MOL    H5231006   7.050   4.226   6.033  0.1045  0.0534 -2.6245
   78MOL    H5331007   6.709   4.144   5.899 -3.1770  2.0884  0.0146
   78MOL    H5431008   6.615   4.275   5.714 -0.4473  0.4406  2.1761
   78MOL    H5531009   6.784   4.714   5.669  0.8322 -2.0997  1.8688
   78MOL    H5631010   6.846   4.619   5.530 -1.7971 -0.2220 -2.0526
   78MOL    H5731011   6.697   4.690   5.517 -1.3273  0.4545  0.9975
   78MOL    H5831012   6.927   4.576   5.781  0.5529  0.2371  2.4307
   78MOL    H5931013   7.013   4.433   5.964  0.9745  0.8387 -1.4605
   78MOL    H6031014   6.926   3.975   5.961 -0.7449 -0.0842  1.2195
   78MOL    H6131015   7.078   4.002   6.048 -0.2920  0.1657  0.3240
   78MOL    C6231016   7.072   4.049   5.834  0.5680 -0.4145 -0.0105
   78MOL    C6331017   7.079   3.905   5.775 -0.2923  0.6890 -0.2653
   78MOL    C6431018   7.150   3.805   5.842 -0.9734  0.4515  0.7796
   78MOL    C6531019   7.151   3.676   5.784 -0.8173 -0.4913 -0.6460
   78MOL    C6631020   7.091   3.648   5.658 -0.0987 -0.3170  0.1217
   78MOL    O6731021   7.091   3.522   5.593  0.0080  0.0589 -0.0293
   78MOL    C6831022   7.170   3.419   5.645  0.5804  0.0057  0.0867
   78MOL    C6931023   7.028   3.756   5.595 -0.2400  0.4841 -0.3987
   78MOL    C7031024   7.015   3.883   5.651  0.1399 -0.3859 -0.0364
   78MOL    C7131025   7.215   4.114   5.839 -0.2170 -0.0798  0.4309
   78MOL    H7231026   7.017   4.112   5.764  1.2887  1.7132  1.3029
   78MOL    H7331027   7.204   3.819   5.934 -0.6676  2.0289  0.3767
   78MOL    H7431028   7.206   3.605   5.845  0.5502 -1.4370 -2.9311
   78MOL    H7531029   7.278   3.432   5.646  0.5290  0.3833  1.2589
   78MOL    H7631030   7.144   3.331   5.586 -0.0438  0.0235  0.3307
   78MOL    H7731031   7.136   3.405   5.747 -0.0746 -2.6987 -0.4630
   78MOL    H7831032   6.985   3.737   5.498 -0.0564 -1.2396 -0.1579
   78MOL    H7931033   6.961   3.963   5.602  0.9305 -0.6060 -1.2964
   78MOL    H8031034   7.211   4.206   5.897 -0.2483 -1.4705  2.7134
   78MOL    H8131035   7.276   4.034   5.881  0.7701  0.9556  0.9905
   78MOL    C8231036   7.260   4.138   5.689 -0.5745  0.6265  0.4881
   78MOL    C8331037   7.183   4.246   5.612  0.0383  0.1906 -0.3013
   78MOL    C8431038   7.131   4.214   5.490 -0.1453 -0.4945  0.6468
   78MOL    C8531039   7.067   4.313   5.407 -0.3340 -0.6483 -0.0543
   78MOL    C8631040   7.075   4.449   5.445 -0.3217  0.0655 -0.1533
   78MOL    O8731041   7.016   4.548   5.369 -0.1531 -0.1766  0.1080
   78MOL    C8831042   6.965   4.520   5.240  0.2512  0.0306  0.1360
   78MOL    C8931043   7.128   4.477   5.570 -0.0566  0.0401  0.0365
   78MOL    C9031044   7.178   4.377   5.655  0.3860 -0.3934 -1.0873
   78MOL    C9131045   7.417   4.159   5.681 -0.3123 -0.0924 -0.1446
   78MOL    H9231046   7.232   4.051   5.629  1.6393 -0.2147  0.6124
   78MOL    H9331047   7.142   4.112   5.457  0.6764 -0.3780  0.5453
   78MOL    H9431048   7.028   4.280   5.312 -0.9895  1.5311 -0.5686
   78MOL    H9531049   6.872   4.464   5.254  0.6520 -0.3707  1.2211
   78MOL    H9631050   7.035   4.475   5.171  0.6052  0.6719  0.0737
   78MOL    H9731051   6.952   4.615   5.188 -0.7641 -0.9619 -1.4477
   78MOL    H9831052   7.133   4.577   5.611  0.7669 -0.7517  1.9454
   78MOL    H9931053   7.229   4.394   5.749  1.0703 -2.0654 -1.1276
   78MOL   H10031054   7.446   4.203   5.586  3.7035  3.0151  2.3716
   78MOL   H10131055   7.434   4.226   5.765  1.1770 -0.2524 -0.3075
   78MOL   C10231056   7.500   4.036   5.695 -0.0317  0.3514  0.3926
   78MOL   C10331057   7.498   3.941   5.574 -0.8239  0.5132 -0.6020
   78MOL   C10431058   7.447   3.812   5.596  0.3513  0.0694  0.3046
   78MOL   C10531059   7.451   3.716   5.494  0.7354  0.4223 -0.1405
   78MOL   C10631060   7.513   3.753   5.369  0.2971 -0.2863  0.3169
   78MOL   O10731061   7.524   3.647   5.282 -0.6188  0.5842 -0.7274
   78MOL   C10831062   7.615   3.655   5.165 -0.1425  0.0124  0.2935
   78MOL   C10931063   7.556   3.883   5.353 -0.0060 -0.1995  0.1609
   78MOL   C11031064   7.556   3.973   5.455 -0.6306  0.8498 -0.1724
   78MOL   C11131065   7.645   4.066   5.747 -0.3614  0.3293  0.1213
   78MOL   H11231066   7.456   3.977   5.775 -0.0687 -0.6929 -0.3911
   78MOL   H11331067   7.412   3.773   5.691  0.4621  0.3523  0.4632
   78MOL   H11431068   7.421   3.615   5.519 -0.7623  0.5112 -1.4691
   78MOL   H11531069   7.716   3.625   5.192 -0.4391 -1.6796 -0.4197
   78MOL   H11631070   7.589   3.577   5.093  0.5217 -1.0629  1.2114
   78MOL   H11731071   7.620   3.753   5.119  0.7935 -0.0908  0.1619
   78MOL   H11831072   7.577   3.918   5.253 -2.3093  2.9285  0.6940
   78MOL   H11931073   7.587   4.074   5.430  1.8299 -0.2500 -1.7535
   78MOL   H12031074   7.699   4.126   5.674 -2.9002  1.6662 -0.7005
   78MOL   H12131075   7.640   4.129   5.836 -1.4344 -1.4493  1.3655
   78MOL   C12231076   7.732   3.943   5.797  0.6088 -0.0207  0.6630
   78MOL   C12331077   7.658   3.863   5.903  0.0924 -0.4070  0.1085
   78MOL   C12431078   7.641   3.722   5.896 -0.3086 -0.6259  0.5698
   78MOL   C12531079   7.557   3.660   5.990  0.0515 -0.0003  0.1693
   78MOL   C12631080   7.506   3.737   6.097  0.2633  0.4466  0.1952
   78MOL   O12731081   7.435   3.674   6.199 -0.5669  0.2290  0.0340
   78MOL   C12831082   7.479   3.540   6.232  0.2584  0.6379  0.1819
   78MOL   C12931083   7.531   3.874   6.107  0.0947 -0.0353  0.1075
   78MOL   C13031084   7.609   3.935   6.013  0.2780  0.0110  0.0089
   78MOL   C13131085   7.867   3.993   5.860 -0.0875  0.4449  0.5945
   78MOL   H13231086   7.749   3.874   5.714 -2.7265  0.1310 -0.2038
   78MOL   H13331087   7.698   3.663   5.825  0.8638  1.1569 -0.0210
   78MOL   H13431088   7.521   3.560   5.970 -0.8735  0.7311 -1.9715
   78MOL   H13531089   7.429   3.474   6.161 -2.1087  3.7222 -1.1704
   78MOL   H13631090   7.583   3.515   6.211  0.5174 -0.0352  2.1499
   78MOL   H13731091   7.451   3.514   6.334  0.2480  2.0338  0.5531
   78MOL   H13831092   7.494   3.930   6.192 -2.5468 -2.5652  0.6849
   78MOL   H13931093   7.653   4.029   6.044  2.7558 -0.6566 -1.3768
   78MOL   H14031094   7.836   4.066   5.935  0.6907  0.9852  0.3986
   78MOL   H14131095   7.925   4.043   5.782  0.6757 -0.4813  0.5666
   78MOL   C14231096   7.953   3.880   5.930 -0.6623  0.5556 -0.6473
   78MOL   C14331097   8.005   3.764   5.832  0.5894  0.0802  0.5853
   78MOL   C14431098   0.063   3.790   5.735 -0.2008 -0.2036  0.0447
   78MOL   C14531099   0.111   3.682   5.654 -0.2405  0.0243  0.1154
   78MOL   C14631100   0.064   3.545   5.681  0.1822 -0.3281 -0.3453
   78MOL   O14731101   0.113   3.459   5.586 -0.2711  0.0865 -0.0861
   78MOL   C14831102   0.068   3.322   5.584 -0.0822 -0.2239 -0.3833
   78MOL   C14931103   8.012   3.523   5.782  0.3988 -0.4082  0.0365
   78MOL   C15031104   7.962   3.630   5.858  0.3752 -0.1235  0.0503
   78MOL   C15131105   0.019   3.926   6.029  0.1303  0.2661  0.1869
   78MOL   H15231106   7.878   3.832   5.992 -0.5696 -0.0138 -0.9760
   78MOL   H15331107   0.103   3.889   5.719 -1.5237  0.0594 -1.8034
   78MOL   H15431108   0.188   3.686   5.579 -0.2797 -2.3752 -0.0693
   78MOL   H15531109   8.010   3.296   5.625  0.1955 -0.3567  0.2014
   78MOL   H15631110   0.059   3.287   5.481  1.0775 -1.2434 -0.1556
   78MOL   H15731111   0.138   3.248   5.625  0.6671  0.1116 -1.0492
   78MOL   H15831112   7.990   3.424   5.821  0.7996 -1.0951 -1.4379
   78MOL   H15931113   7.894   3.615   5.940 -0.3635 -1.6110 -0.8123
   78MOL   H16031114   0.001   4.027   6.067 -0.4837 -0.3904  1.6843
   78MOL   H16131115   0.120   3.925   5.987  0.5232 -0.9005  1.1340
   78MOL   C16231116   0.017   3.825   6.150  0.5240  0.0395 -0.5119
   78MOL   C16331117   7.926   3.838   6.236 -0.0311  0.5020  0.3389
   78MOL   C16431118   7.849   3.727   6.261  0.0279  0.1800  0.7758
   78MOL   C16531119   7.741   3.734   6.350  0.3126  0.0019 -0.0926
   78MOL   C16631120   7.703   3.851   6.418  0.1978 -0.0249 -0.0588
   78MOL   O16731121   7.612   3.859   6.524  0.0544 -0.1901 -0.5991
   78MOL   C16831122   7.532   3.744   6.547  0.1430 -0.2579 -0.3914
   78MOL   C16931123   7.778   3.969   6.393  0.4465  0.0066 -0.4007
   78MOL   C17031124   7.886   3.956   6.305  0.1032  0.6073  0.7826
   78MOL   C17131125   0.143   3.855   6.234 -0.0684  0.1670 -0.4457
   78MOL   H17231126   0.029   3.723   6.113  1.6146 -0.4789  1.2280
   78MOL   H17331127   7.871   3.636   6.206  0.7312  0.1954  1.0286
   78MOL   H17431128   7.694   3.639   6.370  3.8931 -1.8845 -0.2525
   78MOL   H17531129   7.474   3.719   6.458  1.5341  0.3972 -1.4985
   78MOL   H17631130   7.457   3.767   6.623  0.7089 -0.2972  0.1897
   78MOL   H17731131   7.592   3.666   6.594 -1.5850 -0.7172  1.1439
   78MOL   H17831132   7.757   4.065   6.438 -0.5435 -0.0221 -0.7805
   78MOL   H17931133   7.953   4.039   6.287  3.1088 -1.2272  3.2678
   78MOL   H18031134   0.137   3.954   6.279 -0.8188 -0.6129  1.1809
   78MOL   H18131135   0.230   3.868   6.168 -1.3765 -0.1499 -2.2798
   78MOL   C18231136   0.173   3.732   6.328  0.1079  0.2990  0.1351
   78MOL   C18331137   0.252   3.777   6.438 -0.2047  0.2020 -0.0544
   78MOL   C18431138   0.366   3.853   6.423 -0.3560 -0.4266 -0.1090
   78MOL   C18531139   0.439   3.905   6.536  0.0255 -0.0281 -0.2197
   78MOL   C18631140   0.395   3.875   6.667  0.0692  0.1846 -0.1670
   78MOL   O18731141   0.470   3.929   6.771  0.5886  0.0204 -0.1284
   78MOL   C18831142   0.454   3.881   6.904 -0.3002 -0.1146 -0.4963
   78MOL   C18931143   0.274   3.799   6.680 -0.2858 -0.2416  0.5715
   78MOL   C19031144   0.204   3.752   6.566  0.2358  0.5021  0.5156
   78MOL   C19131145   0.246   3.613   6.258 -0.2158  0.6846 -0.7524
   78MOL   H19231146   0.075   3.712   6.371  0.9072 -0.3125  1.7165
   78MOL   H19331147   0.406   3.859   6.323 -2.2803 -0.2834 -0.9068
   78MOL   H19431148   0.532   3.958   6.521 -0.5449  1.1512  0.3540
   78MOL   H19531149   0.378   3.935   6.960 -1.4456 -2.0959 -0.0914
   78MOL   H19631150   0.550   3.892   6.953  0.5878  0.7122 -2.3463
   78MOL   H19731151   0.419   3.778   6.911 -0.4069  0.0430  1.3770
   78MOL   H19831152   0.242   3.761   6.776 -1.3084 -1.0830 -0.0760
   78MOL   H19931153   0.111   3.699   6.581  0.4431 -0.3326 -0.9554
   78MOL   H20031154   0.228   3.624   6.151  0.2655  0.7867 -0.8269
   78MOL   H20131155   0.353   3.635   6.265 -0.4995  2.0028 -0.4971
   78MOL   C20231156   0.222   3.469   6.313  0.1393 -0.3248 -0.3060
   78MOL   C20331157   0.075   3.429   6.309  0.3093  0.6061 -0.6912
   78MOL   C20431158   0.018   3.384   6.190  0.4004 -0.6259  0.0460
   78MOL   C20531159   7.924   3.348   6.187  0.2945 -0.1031  0.0749
   78MOL   C20631160   7.844   3.360   6.299  0.2015 -0.1875 -0.0482
   78MOL   O20731161   7.708   3.317   6.309 -0.0986 -0.3813  0.1554
   78MOL   C20831162   7.665   3.232   6.199 -0.9237  0.3881 -0.0762
   78MOL   C20931163   7.901   3.422   6.417  1.2170  0.1092  0.2629
   78MOL   C21031164   8.033   3.452   6.422  0.8837  0.8352 -0.0731
   78MOL   C21131165   0.302   3.434   6.450 -0.2431  0.4372  0.4404
   78MOL   H21231166   0.273   3.407   6.240  0.3621  0.7895 -1.1177
   78MOL   H21331167   0.073   3.374   6.098  0.8103 -1.4167  0.3731
   78MOL   H21431168   7.883   3.309   6.096  3.1688 -2.2327 -0.3712
   78MOL   H21531169   7.633   3.298   6.118 -2.4551  1.3531  1.2828
   78MOL   H21631170   7.735   3.153   6.174 -1.5139 -0.9326  2.2896
   78MOL   H21731171   7.572   3.185   6.230 -1.3132 -0.4311 -2.3878
   78MOL   H21831172   7.840   3.432   6.506  2.2871  0.9879  0.9036
   78MOL   H21931173   0.037   3.484   6.515  0.9256 -0.6688  0.4376
   78MOL   H22031174   0.298   3.514   6.523  0.2832  0.8958 -0.0242
   78MOL   H22131175   0.406   3.425   6.420  0.1205 -0.5183  1.9514
   78MOL   C22231176   0.255   3.312   6.531 -0.0938  0.1938 -0.0924
   78MOL   C22331177   0.222   3.197   6.441  0.1013 -0.6145 -0.2517
   78MOL   C22431178   0.321   3.134   6.359 -0.3918 -0.4109 -0.1114
   78MOL   C22531179   0.275   3.029   6.270 -0.6401 -0.4544 -0.1233
   78MOL   C22631180   0.143   2.994   6.259 -0.2156  0.1669 -0.3509
   78MOL   O22731181   0.103   2.904   6.165  0.5019  0.1723 -0.2521
   78MOL   C22831182   8.008   2.879   6.139  0.3382  0.5194 -0.0731
   78MOL   C22931183   0.052   3.054   6.349  0.2520 -0.7707  0.4566
   78MOL   C23031184   0.093   3.149   6.439  0.0213 -0.3610 -0.5601
   78MOL   C23131185   0.351   3.259   6.628 -0.2404  0.3169  0.0725
   78MOL   H23231186   0.167   3.346   6.586 -0.8507  0.9534 -1.7331
   78MOL   H23331187   0.423   3.170   6.370 -0.3215  0.2615 -2.6619
   78MOL   H23431188   0.347   2.984   6.203 -1.6639  0.0690 -1.5994
   78MOL   H23531189   7.937   2.961   6.133 -0.1119  0.0708 -0.9648
   78MOL   H23631190   7.993   2.832   6.041 -2.0370 -0.1268  0.5524
   78MOL   H23731191   7.967   2.810   6.214 -2.5638  1.1091 -1.0436
   78MOL   H23831192   7.990   3.018   6.356  0.0022 -0.6712 -1.9425
   78MOL   H23931193   0.011   3.185   6.500  0.4326  0.2255 -0.3499
   78MOL   H24031194   0.319   3.159   6.655  0.6434 -0.3823 -1.4219
   78MOL   H24131195   0.448   3.251   6.580  0.2835 -0.8965  1.3006
   78MOL   C24231196   0.363   3.336   6.761 -0.1962  0.1657  0.2119
   78MOL   C24331197   0.257   3.287   6.856  0.3762 -0.4300 -0.0447
   78MOL   C24431198   0.144   3.370   6.882 -0.6674 -0.3212 -0.7453
   78MOL   C24531199   0.043   3.328   6.974  0.0158 -0.6699  0.5985
   78MOL   C24631200   0.057   3.207   7.042  0.2314  0.0146 -0.9091
   78MOL   O24731201   7.989   3.166   7.116  0.2439 -0.0704  0.1060
   78MOL   C24831202   8.011   3.054   7.194 -0.3415 -0.6581  0.6214
   78MOL   C24931203   0.167   3.118   7.011 -1.0317  0.5305 -0.3652
   78MOL   C25031204   0.265   3.162   6.921  0.1497 -0.3164 -0.2593
   78MOL   C25131205   0.501   3.324   6.827  0.2009 -0.2213 -0.0921
   78MOL   H25231206   0.358   3.441   6.734 -2.2264 -0.7169 -3.0811
   78MOL   H25331207   0.128   3.461   6.826  1.3706 -0.9666 -2.4654
   78MOL   H25431208   8.007   3.394   7.012  2.0242  0.7152  2.3402
   78MOL   H25531209   7.916   3.024   7.238 -1.2766 -0.5091 -1.2471
   78MOL   H25631210   0.018   2.965   7.151  1.4059  0.6208 -0.1743
   78MOL   H25731211   0.042   3.083   7.271 -1.3256 -0.7793  1.5837
   78MOL   H25831212   0.183   3.022   7.056 -0.2250  0.3491 -1.0181
   78MOL   H25931213   0.353   3.103   6.901  0.6929  0.2455  0.4610
   78MOL   H26031214   0.544   3.226   6.805 -0.4316 -0.8587  1.4835
   78MOL   H26131215   0.499   3.330   6.935 -3.0511 -0.2548 -0.1016
   78MOL   C26231216   0.613   3.422   6.797 -0.7347 -0.0566 -0.9784
   78MOL   C26331217   0.643   3.427   6.644 -0.5225  0.1006  0.1438
   78MOL   C26431218   0.721   3.326   6.577  0.5291  0.0901  0.0857
   78MOL   C26531219   0.752   3.339   6.442 -0.3126 -0.1991  0.5233
   78MOL   C26631220   0.715   3.455   6.371 -0.6405 -0.0670  0.4551
   78MOL   O26731221   0.755   3.473   6.238 -0.2649 -0.1031 -0.6318
   78MOL   C26831222   0.855   3.387   6.181 -0.4396 -0.3278  0.1534
   78MOL   C26931223   0.627   3.549   6.426 -0.0181  0.5326  0.0001
   78MOL   C27031224   0.602   3.535   6.565 -0.8762  0.4933  0.3426
   78MOL   C27131225   0.745   3.392   6.880 -0.5812  0.4737  0.1517
   78MOL   H27231226   0.562   3.514   6.826  0.7855 -0.0841  1.8959
   78MOL   H27331227   0.756   3.235   6.624 -2.3583 -1.0672  0.1297
   78MOL   H27431228   0.809   3.263   6.391 -2.5577 -1.8317  0.3780
   78MOL   H27531229   0.894   3.421   6.085 -0.0526 -1.3766 -0.0615
   78MOL   H27631230   0.805   3.291   6.171  0.1649 -0.6125 -0.0991
   78MOL   H27731231   0.944   3.364   6.239  0.7779 -0.8907 -1.8989
   78MOL   H27831232   0.595   3.639   6.376  0.7535 -0.1904 -1.8596
   78MOL   H27931233   0.549   3.619   6.609 -2.1297 -0.5380  0.8145
   78MOL   H28031234   0.728   3.378   6.986  1.8396 -1.8173  0.3220
   78MOL   H28131235   0.765   3.288   6.851 -1.0246  0.7494 -1.2012
   78MOL   C28231236   0.863   3.482   6.846 -0.1566  0.8813 -0.7165
   78MOL   C28331237   0.986   3.428   6.903  0.4635  0.3775  0.1218
   78MOL   C28431238   1.086   3.369   6.821  0.1956  0.3587  0.2191
   78MOL   C28531239   1.211   3.331   6.874  0.3720 -0.2792  0.1791
   78MOL   C28631240   1.231   3.343   7.012  0.3080 -0.1398  0.0803
   78MOL   O28731241   1.357   3.301   7.053 -0.1632 -0.1486 -0.2024
   78MOL   C28831242   1.412   3.358   7.170 -0.4772  0.2497  0.3711
   78MOL   C28931243   1.129   3.403   7.096 -0.6877  0.6162  0.3270
   78MOL   C29031244   1.004   3.439   7.042  0.0771 -0.3550  0.3032
   78MOL   C29131245   0.837   3.633   6.893 -0.1354 -0.2764 -0.1326
   78MOL   H29231246   0.866   3.483   6.737 -1.2607  1.1825 -0.7486
   78MOL   H29331247   1.065   3.363   6.715  0.5163  0.7736  0.1324
   78MOL   H29431248   1.286   3.294   6.805  0.6288 -1.1530  0.9225
   78MOL   H29531249   1.343   3.340   7.253 -2.4438 -0.2129 -1.3183
   78MOL   H29631250   1.500   3.307   7.208 -0.0818  0.8221  0.2306
   78MOL   H29731251   1.435   3.464   7.165 -0.2701  0.3002  2.2593
   78MOL   H29831252   1.135   3.403   7.204 -0.9677 -1.8436  0.3718
   78MOL   H29931253   0.922   3.490   7.089  0.4638 -1.6566  2.4951
   78MOL   H30031254   0.748   3.674   6.845 -1.7734 -1.3395  1.8876
   78MOL   H30131255   0.806   3.650   6.996 -0.9780 -1.3120 -0.2120
   78MOL   C30231256   0.957   3.727   6.855  0.5290  0.0061  0.5003
   78MOL   C30331257   0.952   3.759   6.709 -0.2185 -0.9640 -0.4954
   78MOL   C30431258   1.045   3.710   6.622 -0.3670  0.6759  0.2327
   78MOL   C30531259   1.037   3.737   6.489 -0.1958 -1.0866 -0.2323
   78MOL   C30631260   0.938   3.823   6.439 -0.1672  0.0501 -0.7463
   78MOL   O30731261   0.937   3.874   6.312 -0.1601 -0.0086  1.1242
   78MOL   C30831262   0.992   3.781   6.217 -0.0366  0.6849 -0.1739
   78MOL   C30931263   0.850   3.878   6.530  0.3308  0.3967  0.7690
   78MOL   C31031264   0.846   3.833   6.660  0.6772 -0.3297  0.0125
   78MOL   C31131265   0.963   3.845   6.952 -0.6399  0.0466  0.0459
   78MOL   H31231266   1.054   3.685   6.884 -0.1545  0.1461  3.1663
   78MOL   H31331267   1.127   3.648   6.654 -0.6163  1.7095  3.0066
   78MOL   H31431268   1.112   3.714   6.414 -1.2946 -0.6544 -1.4877
   78MOL   H31531269   0.968   3.810   6.114 -3.6871 -2.6372 -0.3600
   78MOL   H31631270   0.950   3.681   6.228  1.9576 -0.1215  0.1599
   78MOL   H31731271   1.100   3.787   6.224  0.0931 -0.2990 -1.1623
   78MOL   H31831272   0.770   3.933   6.483  1.0734  1.8166  1.1442
   78MOL   H31931273   0.767   3.870   6.724  2.7006  1.1919  1.7367
   78MOL   H32031274   0.998   3.787   7.037 -0.2540 -2.6001 -1.8391
   78MOL   H32131275   0.863   3.881   6.977 -1.3720 -1.1065 -1.1229
   78MOL   C32231276   1.060   3.957   6.915 -0.2034  0.0023 -0.4179
   78MOL   C32331277   1.202   3.904   6.918 -0.3300 -0.7294 -0.6672
   78MOL   C32431278   1.271   3.873   6.796  0.6118 -0.6859 -0.5346
   78MOL   C32531279   1.400   3.818   6.794  0.5557  0.1985  0.2189
   78MOL   C32631280   1.470   3.797   6.916  0.0622  0.5387 -0.2621
   78MOL   O32731281   1.593   3.732   6.916  0.1322 -0.4925  0.1233
   78MOL   C32831282   1.655   3.714   7.039  0.7011  0.2807 -0.2526
   78MOL   C32931283   1.401   3.831   7.038 -0.0239  0.0003 -0.4212
   78MOL   C33031284   1.276   3.890   7.037  0.5154  0.0767  1.0272
   78MOL   C33131285   1.047   4.086   6.998 -0.6078 -0.4988 -0.2210
   78MOL   H33231286   1.041   3.978   6.809 -1.1668  0.8880 -0.0697
   78MOL   H33331287   1.225   3.886   6.699 -1.0006  0.4377  0.3683
   78MOL   H33431288   1.448   3.788   6.702  1.7006 -0.6765  1.0821
   78MOL   H33531289   1.737   3.646   7.015  0.6046 -0.6490  1.9718
   78MOL   H33631290   1.590   3.663   7.110  0.6149  0.0785 -0.4773
   78MOL   H33731291   1.689   3.806   7.086  2.3426  0.9447 -2.6185
   78MOL   H33831292   1.447   3.825   7.135 -1.4081 -1.2922  0.1735
   78MOL   H33931293   1.224   3.925   7.125  1.6370  2.4440  0.7759
   78MOL   H34031294   1.051   4.062   7.104 -1.2631  1.8861  0.3858
   78MOL   H34131295   1.130   4.156   6.990 -0.9008 -0.0284  0.8729
   78MOL   C34231296   0.910   4.151   6.978 -0.4679 -0.1837 -0.0418
   78MOL   C34331297   0.885   4.188   6.832 -0.2121  0.0795  0.7416
   78MOL   C34431298   0.751   4.165   6.797  0.2720 -0.2335 -0.2104
   78MOL   C34531299   0.720   4.158   6.661  0.0879  0.5204 -0.1534
   78MOL   C34631300   0.802   4.218   6.566  0.0219  0.0724  0.2719
   78MOL   O34731301   0.763   4.230   6.435 -0.2077 -0.2588  0.4399
   78MOL   C34831302   0.631   4.266   6.401  0.4797  0.3339 -0.2582
   78MOL   C34931303   0.929   4.268   6.605 -0.5316  0.3795 -0.3641
   78MOL   C35031304   0.973   4.246   6.731 -0.2977 -0.2665 -0.0065
   78MOL   C35131305   0.904   4.265   7.076  0.2297  1.1250  0.7521
   78MOL   H35231306   0.830   4.085   7.010 -1.0343  0.3677 -0.3158
   78MOL   H35331307   0.685   4.126   6.873  3.1386 -2.8849  1.0673
   78MOL   H35431308   0.622   4.125   6.631  0.4349 -2.2193  1.5309
   78MOL   H35531309   0.578   4.188   6.346  1.3956 -0.9840  0.7131
   78MOL   H35631310   0.573   4.284   6.491  0.9665  0.6317 -0.0009
   78MOL   H35731311   0.623   4.359   6.345 -2.5868  1.1408  1.4071
   78MOL   H35831312   0.988   4.307   6.524 -0.8634  0.7455 -0.4352
   78MOL   H35931313   1.077   4.264   6.753 -0.8702  2.5977  0.5305
   78MOL   H36031314   0.999   4.318   7.083 -0.4363  2.4969 -0.3478
   78MOL   H36131315   0.832   4.337   7.038 -0.0235  0.6640  0.3620
   78MOL   C36231316   0.844   4.233   7.221 -0.4929  0.2083 -0.0748
   78MOL   C36331317   0.707   4.156   7.216  0.1004  0.2375 -0.1895
   78MOL   C36431318   0.593   4.225   7.172 -1.0485 -0.2140 -0.2576
   78MOL   C36531319   0.465   4.166   7.180  0.0241 -0.3822  0.1981
   78MOL   C36631320   0.450   4.037   7.237 -0.5629  0.0356  0.1843
   78MOL   O36731321   0.323   3.985   7.226 -0.3495  0.2860  0.0766
   78MOL   C36831322   0.303   3.872   7.311 -0.1523  0.8857  0.2296
   78MOL   C36931323   0.563   3.972   7.289 -0.9215 -0.0193  0.0115
   78MOL   C37031324   0.694   4.028   7.275  0.7972 -0.0420  0.7947
   78MOL   C37131325   0.831   4.361   7.309  0.6571  0.2201 -0.9976
   78MOL   H37231326   0.919   4.173   7.272 -0.6991 -0.5051 -0.5975
   78MOL   H37331327   0.602   4.326   7.135  0.5579  0.4851  1.9193
   78MOL   H37431328   0.381   4.214   7.131 -0.6868 -1.4385  0.3815
   78MOL   H37531329   0.375   3.791   7.295 -0.3357  0.3831  1.7947
   78MOL   H37631330   0.328   3.896   7.415  0.0041 -0.5394  0.5368
   78MOL   H37731331   0.206   3.824   7.308  0.0467  0.2406  2.8545
   78MOL   H37831332   0.558   3.876   7.339 -3.7611 -0.1680 -0.5084
   78MOL   H37931333   0.782   3.971   7.301 -0.0288 -1.3527  0.7630
   78MOL   H38031334   0.921   4.420   7.324 -1.1610  2.2327  2.5206
   78MOL   H38131335   0.770   4.430   7.250 -1.3392 -1.4343 -0.9523
   78MOL   C38231336   0.781   4.349   7.454 -0.3941 -0.0445 -0.0474
   78MOL   C38331337   0.723   4.486   7.497 -0.4255  0.2861  0.3294
   78MOL   C38431338   0.582   4.497   7.489 -0.5277  0.5164 -0.5732
   78MOL   C38531339   0.521   4.618   7.534 -0.7489 -0.1204  0.7956
   78MOL   C38631340   0.599   4.726   7.583 -0.2161  0.4867 -0.3639
   78MOL   O38731341   0.547   4.841   7.637 -0.0996  0.4221  0.2006
   78MOL   C38831342   0.405   4.852   7.652  0.3674  0.5906 -0.6808
   78MOL   C38931343   0.738   4.713   7.580 -0.1901  0.0933  0.1246
   78MOL   C39031344   0.804   4.593   7.542 -0.2441 -0.6825  0.5804
   78MOL   C39131345   0.887   4.283   7.547  0.2729  0.6225  0.4729
   78MOL   H39231346   0.705   4.271   7.465 -0.9776  0.4969 -0.2329
   78MOL   H39331347   0.520   4.418   7.449  2.4075 -1.5414 -1.3291
   78MOL   H39431348   0.414   4.610   7.536 -0.6374 -2.6476 -0.7596
   78MOL   H39531349   0.354   4.851   7.556  0.1776 -1.4340 -0.5795
   78MOL   H39631350   0.382   4.951   7.693 -1.2458  0.7341 -1.8703
   78MOL   H39731351   0.370   4.769   7.713 -1.6502  1.0973 -1.1260
   78MOL   H39831352   0.800   4.794   7.616  0.7405 -1.6198  2.5166
   78MOL   H39931353   0.911   4.576   7.543 -0.0998  0.2006  1.1777
   78MOL   H40031354   0.933   4.191   7.511 -0.1744  0.1081  1.2103
   78MOL   H40131355   0.842   4.261   7.644 -3.4500  2.8757 -0.6421
   78MOL   H40231356   0.966   4.355   7.569 -0.5340  1.8303 -0.5142
   79MOL     C131357   4.371   0.391   7.867  0.4743  0.1984  0.5633
   79MOL     C231358   4.421   0.519   7.808  0.0654 -0.1514  0.2663
   79MOL     C331359   4.541   0.581   7.853  0.1850 -0.0030 -0.5759
   79MOL     C431360   4.589   0.695   7.784 -0.2712  0.1869 -0.5564
   79MOL     C531361   4.532   0.750   7.668  0.6379  0.9161  0.3540
   79MOL     O631362   4.584   0.863   7.612 -0.2600 -0.1922  0.4750
   79MOL     C731363   4.523   0.913   7.501  0.2085 -0.0209 -0.8267
   79MOL     C831364   4.416   0.684   7.614 -0.9110  0.2077  0.0479
   79MOL     C931365   4.366   0.570   7.683 -0.5278  0.3507 -0.1997
   79MOL    C1031366   4.227   0.396   7.915  0.7462 -0.1931 -0.1020
   79MOL    H1131367   4.433   0.375   7.955  1.0682  2.4741  0.6070
   79MOL    H1231368   4.590   0.549   7.944 -1.9472  1.0309  1.0050
   79MOL    H1331369   4.676   0.750   7.815 -0.6198 -0.4840  1.7150
   79MOL    H1431370   4.420   0.943   7.520 -0.5873 -2.5444 -0.9103
   79MOL    H1531371   4.571   1.007   7.474 -1.0657  1.5295  2.1131
   79MOL    H1631372   4.531   0.846   7.414 -0.6548  0.4022 -1.2426
   79MOL    H1731373   4.358   0.717   7.529 -0.2479 -1.8142 -1.2123
   79MOL    H1831374   4.265   0.537   7.661 -0.3858 -0.0239 -0.2917
   79MOL    H1931375   4.223   0.359   8.017  0.9055  0.4325  0.1396
   79MOL    H2031376   4.190   0.499   7.912 -1.9489 -1.1403 -0.3410
   79MOL    H2131377   4.397   0.301   7.811 -2.0308 -1.0969  1.4278
   79MOL    C2231378   4.135   0.325   7.821  0.1506 -0.6765 -0.1007
   79MOL    C2331379   4.173   0.178   7.786 -0.2557 -0.0706 -0.3345
   79MOL    C2431380   4.226   0.143   7.654  0.1015 -0.6104 -0.3522
   79MOL    C2531381   4.250   0.014   7.613 -0.0328 -0.5423  0.9690
   79MOL    C2631382   4.220   7.947   7.705  0.0588 -0.1169 -0.1261
   79MOL    O2731383   4.250   7.815   7.663 -0.6819  0.2765 -0.3239
   79MOL    C2831384   4.217   7.706   7.756 -0.0202 -0.5965  1.4103
   79MOL    C2931385   4.173   7.978   7.840  0.9448 -0.5299 -0.5042
   79MOL    C3031386   4.145   0.069   7.874  0.4775  0.2378  0.1304
   79MOL    C3131387   3.995   0.333   7.877 -0.0274  0.5914 -0.4441
   79MOL    H3231388   4.128   0.381   7.727 -2.2877 -0.8126 -0.0311
   79MOL    H3331389   4.259   0.227   7.594 -0.5470  0.0823  0.2554
   79MOL    H3431390   4.295   0.003   7.515  0.8995  2.0636  1.0621
   79MOL    H3531391   4.248   7.617   7.702 -1.3812 -1.5510  2.1614
   79MOL    H3631392   4.110   7.705   7.774  0.0167 -0.9337  1.6251
   79MOL    H3731393   4.269   7.713   7.852  2.7765 -0.6980 -0.0619
   79MOL    H3831394   4.157   7.903   7.916  1.4229 -0.4996 -0.3726
   79MOL    H3931395   4.102   0.085   7.972 -0.4493 -1.3837  0.0187
   79MOL    H4031396   3.942   0.247   7.835  2.4017 -1.8159  1.2292
   79MOL    H4131397   3.999   0.323   7.986  0.4271  1.6516 -0.3595
   79MOL    C4231398   3.898   0.448   7.827  0.7555  0.5119  0.7100
   79MOL    C4331399   3.933   0.587   7.863  0.7121  0.2529 -0.0947
   79MOL    C4431400   3.954   0.630   7.996  0.5457  0.1672 -0.4072
   79MOL    C4531401   3.957   0.764   8.024 -0.2326 -0.5247 -0.0033
   79MOL    C4631402   3.938   0.863   7.928 -1.0198  0.4845 -0.1334
   79MOL    O4731403   3.918   0.987   7.973 -0.1481  0.0381 -0.7082
   79MOL    C4831404   3.852   1.072   7.882  0.0347 -0.2158  0.3763
   79MOL    C4931405   3.929   0.826   7.790 -0.1137  0.4251  0.0935
   79MOL    C5031406   3.927   0.686   7.761  0.1271 -0.1262  0.5613
   79MOL    C5131407   3.747   0.422   7.846 -0.0380  0.0211  0.1517
   79MOL    H5231408   3.919   0.450   7.720  0.1926 -0.9524  0.5621
   79MOL    H5331409   3.969   0.567   0.043  3.2836  0.5641 -0.5505
   79MOL    H5431410   3.966   0.791   0.088 -1.4793 -0.2736  0.0391
   79MOL    H5531411   3.915   1.107   7.800  0.9518 -2.0192  0.2914
   79MOL    H5631412   3.748   1.048   7.859 -0.9171  3.0550  0.9999
   79MOL    H5731413   3.837   1.162   7.942 -0.1271 -1.5397  2.3685
   79MOL    H5831414   3.904   0.890   7.707  1.4977 -0.2248 -0.9250
   79MOL    H5931415   3.907   0.645   7.663 -1.7912  1.4260  0.2710
   79MOL    H6031416   3.743   0.429   7.955  4.3357  0.5196  0.3812
   79MOL    H6131417   3.718   0.324   7.808 -0.7129 -0.3528  1.5870
   79MOL    C6231418   3.648   0.531   7.782 -0.3875  0.4561  0.9554
   79MOL    C6331419   3.510   0.538   7.845  0.0466  0.6557  0.1308
   79MOL    C6431420   3.473   0.652   7.926  0.2985  0.5169  0.2504
   79MOL    C6531421   3.349   0.664   7.986  0.2676  0.5705 -0.4668
   79MOL    C6631422   3.259   0.554   7.971 -0.4803  0.0730 -0.0205
   79MOL    O6731423   3.150   0.573   0.018  0.5657  0.4050 -0.5145
   79MOL    C6831424   3.059   0.465   0.015  0.0065 -0.0140 -0.5529
   79MOL    C6931425   3.293   0.442   7.892 -0.0555 -0.1872 -0.1434
   79MOL    C7031426   3.417   0.439   7.830  0.5897  0.3493 -0.2353
   79MOL    C7131427   3.637   0.499   7.634  0.4941  0.0138  0.0615
   79MOL    H7231428   3.681   0.634   7.791 -1.1661  0.7331  0.6648
   79MOL    H7331429   3.539   0.738   7.934  3.0838 -1.4392 -0.7891
   79MOL    H7431430   3.324   0.752   0.005 -0.1553  0.5562 -0.6227
   79MOL    H7531431   2.992   0.457   7.970 -1.4460 -0.2291  0.5845
   79MOL    H7631432   2.986   0.481   0.094 -0.1709  1.1947 -0.9585
   79MOL    H7731433   3.104   0.370   0.044  2.8190  1.2923 -0.4934
   79MOL    H7831434   3.214   0.368   7.883  0.3786 -0.4034 -2.4780
   79MOL    H7931435   3.442   0.355   7.767  0.4298  0.4573 -0.4449
   79MOL    H8031436   3.736   0.500   7.587 -0.3632 -0.1403 -1.7748
   79MOL    H8131437   3.598   0.400   7.611  1.2326  0.0358 -1.3651
   79MOL    C8231438   3.545   0.603   7.555 -0.3646  0.6880  0.0461
   79MOL    C8331439   3.589   0.743   7.579  0.5959 -0.2182 -0.0689
   79MOL    C8431440   3.513   0.829   7.658  0.2665 -0.0263  0.1528
   79MOL    C8531441   3.533   0.969   7.664  0.5462  0.5208  0.4606
   79MOL    C8631442   3.646   1.026   7.599  0.4378 -0.5079 -0.4727
   79MOL    O8731443   3.650   1.159   7.592  0.3879 -0.3006 -0.1534
   79MOL    C8831444   3.754   1.225   7.510 -0.0631 -0.2922  0.0438
   79MOL    C8931445   3.731   0.934   7.533 -0.4146 -1.0576  0.3024
   79MOL    C9031446   3.711   0.795   7.524 -0.6713  0.6097 -0.1480
   79MOL    C9131447   3.540   0.573   7.402  0.7518  0.3821  0.4134
   79MOL    H9231448   3.445   0.581   7.592 -0.1846  0.2292  0.2575
   79MOL    H9331449   3.421   0.795   7.705 -0.4501  0.5917 -0.7765
   79MOL    H9431450   3.459   1.037   7.704  1.1796  0.6234  1.4735
   79MOL    H9531451   3.752   1.183   7.409  0.5046 -1.0153  0.3303
   79MOL    H9631452   3.850   1.224   7.561  0.4000 -1.0319 -0.8227
   79MOL    H9731453   3.726   1.328   7.485 -0.7704 -1.1575 -2.9787
   79MOL    H9831454   3.814   0.977   7.480  0.1388 -1.5196  0.7759
   79MOL    H9931455   3.784   0.734   7.474  1.6699 -0.2086  4.0121
   79MOL   H10031456   3.495   0.656   7.348  1.4667  0.8201  0.4810
   79MOL   H10131457   3.638   0.584   7.357 -0.4790 -0.9623 -2.7059
   79MOL   C10231458   3.471   0.443   7.352  0.3655 -0.4446 -0.9340
   79MOL   C10331459   3.336   0.415   7.416  0.1140 -0.3194  0.0419
   79MOL   C10431460   3.221   0.492   7.392 -0.7628  0.0125  1.0719
   79MOL   C10531461   3.091   0.464   7.442  0.3296  0.4639  0.2900
   79MOL   C10631462   3.082   0.361   7.539  0.6350  0.4685  0.3074
   79MOL   O10731463   2.972   0.333   7.617 -0.3130 -0.2947  0.1248
   79MOL   C10831464   2.894   0.444   7.646  0.1805 -0.2002  0.4314
   79MOL   C10931465   3.194   0.286   7.574 -0.8177 -0.2467 -0.0085
   79MOL   C11031466   3.321   0.315   7.513 -0.4218 -0.7635 -0.7459
   79MOL   C11131467   3.462   0.441   7.197 -0.2408  0.2625  0.4471
   79MOL   H11231468   3.527   0.355   7.382  0.9121 -0.0025 -0.6498
   79MOL   H11331469   3.245   0.563   7.314  0.3132 -1.2238  0.2635
   79MOL   H11431470   3.016   0.537   7.416  1.2266  0.7174 -1.6071
   79MOL   H11531471   2.962   0.528   7.662  1.7690 -1.2685 -0.6327
   79MOL   H11631472   2.822   0.453   7.565 -0.7945 -0.1761  1.2814
   79MOL   H11731473   2.840   0.439   7.741 -1.5933  0.3139 -0.5340
   79MOL   H11831474   3.197   0.206   7.646  0.6279  0.5534  0.8204
   79MOL   H11931475   3.408   0.254   7.533 -0.6715 -0.3019  1.9401
   79MOL   H12031476   3.376   0.495   7.157  0.4757  0.6431 -0.5868
   79MOL   H12131477   3.556   0.485   7.166  1.4612 -3.9313 -0.7384
   79MOL   C12231478   3.446   0.292   7.138  0.1974 -0.0999 -0.7516
   79MOL   C12331479   3.491   0.286   6.990 -0.2837  0.0325  0.1558
   79MOL   C12431480   3.418   0.355   6.892 -0.2833  0.2866 -0.1138
   79MOL   C12531481   3.460   0.347   6.760 -0.4174 -0.3603  0.5162
   79MOL   C12631482   3.566   0.265   6.721 -0.4926 -0.2509  0.0582
   79MOL   O12731483   3.601   0.273   6.589 -0.6075  0.4101 -0.2737
   79MOL   C12831484   3.696   0.173   6.542  0.3388 -0.4581 -0.2141
   79MOL   C12931485   3.637   0.191   6.823  0.6628  0.9870 -0.2305
   79MOL   C13031486   3.598   0.203   6.956 -0.1320  0.1858  0.1245
   79MOL   C13131487   3.300   0.235   7.156  0.3097  0.0800  0.5409
   79MOL   H13231488   3.509   0.226   7.198 -0.0644  0.7962  0.5353
   79MOL   H13331489   3.328   0.407   6.919 -0.0549  1.1446 -0.9834
   79MOL   H13431490   3.393   0.392   6.688 -1.2687 -0.3800  1.2828
   79MOL   H13531491   3.679   0.158   6.436  0.5966  0.9786 -0.4778
   79MOL   H13631492   3.797   0.213   6.556 -0.1483  0.8503 -0.3955
   79MOL   H13731493   3.691   0.075   6.588 -1.4703 -0.9155 -1.3500
   79MOL   H13831494   3.728   0.134   6.807 -0.6773 -1.2141 -0.2706
   79MOL   H13931495   3.654   0.152   7.034 -1.8581 -1.2191  0.4841
   79MOL   H14031496   3.237   0.318   7.124 -1.3087 -0.6295  1.8026
   79MOL   H14131497   3.274   0.234   7.262 -2.5427  0.2830 -0.1101
   79MOL   C14231498   3.266   0.099   7.090 -0.4209  0.2071  0.1882
   79MOL   C14331499   3.199   8.039   7.187  0.6790  0.7684  0.7760
   79MOL   C14431500   3.062   0.014   7.231  0.2916 -0.0225 -0.1515
   79MOL   C14531501   3.007   7.963   7.325 -0.2033  0.3520 -0.6038
   79MOL   C14631502   3.086   7.861   7.382 -1.1926 -1.1127  0.1569
   79MOL   O14731503   3.037   7.761   7.454 -0.5495  0.0485 -0.0269
   79MOL   C14831504   2.914   7.782   7.531 -0.4129  0.0571  0.9739
   79MOL   C14931505   3.220   7.849   7.344  0.4287 -0.2121 -0.0792
   79MOL   C15031506   3.277   7.935   7.247  0.7659 -0.9182  0.1856
   79MOL   C15131507   3.187   0.115   6.955  0.9753 -0.0417 -0.3116
   79MOL   H15231508   3.358   0.052   7.055 -0.8042  0.2310 -0.8751
   79MOL   H15331509   2.996   0.086   7.185  1.0383  1.4690  1.0367
   79MOL   H15431510   2.902   7.962   7.349 -0.0735  0.7705 -0.0126
   79MOL   H15531511   2.915   7.874   7.591  0.7594 -1.4089  3.2464
   79MOL   H15631512   2.828   7.779   7.464 -0.8608  2.2096  1.3961
   79MOL   H15731513   2.893   7.698   7.596 -1.7281 -1.4785 -1.3987
   79MOL   H15831514   3.287   7.788   7.402 -0.1444 -0.8152 -0.0571
   79MOL   H15931515   3.384   7.929   7.232  0.9062  1.0426  0.2572
   79MOL   H16031516   3.241   0.163   6.873  0.3376  2.3377  0.6354
   79MOL   H16131517   3.116   0.197   6.961 -0.8106 -1.5171 -0.8680
   79MOL   C16231518   3.117   8.025   6.899  0.0282  0.1828  0.2732
   79MOL   C16331519   3.213   7.903   6.874 -0.5336 -0.2010 -0.1404
   79MOL   C16431520   3.347   7.926   6.828 -0.8000 -0.3135 -0.4316
   79MOL   C16531521   3.432   7.820   6.813  0.0616  0.1178  0.0493
   79MOL   C16631522   3.400   7.691   6.858  0.0566 -1.0403 -1.0285
   79MOL   O16731523   3.488   7.590   6.843 -0.2246 -0.9254 -0.3047
   79MOL   C16831524   3.470   7.464   6.899 -0.2668 -0.0738 -0.5224
   79MOL   C16931525   3.273   7.673   6.919 -0.5026  0.1828 -0.5383
   79MOL   C17031526   3.180   7.775   6.921  1.0395  0.3920 -0.0623
   79MOL   C17131527   3.023   0.012   6.777 -0.1595 -0.2232  0.0309
   79MOL   H17231528   3.053   7.983   6.975 -0.2608 -0.9642 -0.5954
   79MOL   H17331529   3.388   8.025   6.816 -1.4982  0.2036  1.3475
   79MOL   H17431530   3.535   7.832   6.783  0.4671  0.5835  1.5640
   79MOL   H17531531   3.405   7.398   6.843  0.8228 -1.6110 -0.0219
   79MOL   H17631532   3.422   7.472   6.997 -2.1486 -0.5640 -1.3995
   79MOL   H17731533   3.567   7.417   6.917 -0.0051  0.6726  0.0667
   79MOL   H17831534   3.258   7.582   6.977 -0.6085 -0.2198 -1.1894
   79MOL   H17931535   3.085   7.755   6.969  1.2943  0.1175  0.3205
   79MOL   H18031536   3.006   7.961   6.721 -0.3866 -0.2591  0.1539
   79MOL   H18131537   3.071   0.086   6.713 -0.2725 -0.8426 -0.7721
   79MOL   C18231538   2.878   0.052   6.813 -0.1250  0.2829 -0.1388
   79MOL   C18331539   2.815   8.000   6.920 -0.4037 -0.3008  0.0786
   79MOL   C18431540   2.756   0.022   7.034  0.2823  0.6132  0.2754
   79MOL   C18531541   2.705   7.979   7.135  0.5443 -0.3662  0.3177
   79MOL   C18631542   2.702   7.839   7.123 -0.4591  0.5327  0.4580
   79MOL   O18731543   2.636   7.766   7.222 -0.0108 -0.2163  0.4166
   79MOL   C18831544   2.690   7.634   7.250  0.8507  0.1426 -0.3245
   79MOL   C18931545   2.768   7.782   7.013 -0.1000  1.0475  0.1535
   79MOL   C19031546   2.818   7.858   6.912  0.1572 -0.1923 -0.0461
   79MOL   C19131547   2.774   0.074   6.693  0.1150 -0.0336 -0.9018
   79MOL   H19231548   2.892   0.149   6.860  1.8192 -0.5580  1.0999
   79MOL   H19331549   2.760   0.130   7.040  1.5303  0.6014 -0.1669
   79MOL   H19431550   2.664   8.026   7.224  0.5945 -0.9478  0.6483
   79MOL   H19531551   2.641   7.567   7.179  0.4751 -0.1689  0.2185
   79MOL   H19631552   2.667   7.610   7.354 -1.0210  1.4056 -0.4262
   79MOL   H19731553   2.798   7.638   7.235  0.5036  1.3469 -2.6475
   79MOL   H19831554   2.775   7.677   6.991  2.5333  1.2776 -0.2996
   79MOL   H19931555   2.864   7.810   6.827  0.4233 -0.3336  0.1798
   79MOL   H20031556   2.777   8.017   6.645 -1.8979 -1.5358  1.8601
   79MOL   H20131557   2.680   0.087   6.746  1.0256 -2.0397  1.2676
   79MOL   C20231558   2.790   0.189   6.589  0.1384 -0.0508  0.5151
   79MOL   C20331559   2.802   0.319   6.666 -0.3004 -1.1568  0.1764
   79MOL   C20431560   2.923   0.383   6.689  0.3648 -0.2534  0.2583
   79MOL   C20531561   2.940   0.481   6.785 -0.8035 -0.2221 -0.8878
   79MOL   C20631562   2.831   0.516   6.866 -0.3765 -0.6548 -0.2690
   79MOL   O20731563   2.858   0.603   6.971 -0.4784  0.4050 -0.0438
   79MOL   C20831564   2.747   0.643   7.052  0.2651  0.7254  0.1932
   79MOL   C20931565   2.706   0.462   6.843  0.1979  0.3553  0.5303
   79MOL   C21031566   2.687   0.368   6.740 -0.0536  0.7045 -0.3763
   79MOL   C21131567   2.683   0.187   6.482  0.2435  0.1840 -0.1759
   79MOL   H21231568   2.882   0.166   6.535 -1.0241 -1.3283 -0.9813
   79MOL   H21331569   3.014   0.361   6.635  0.0878 -2.8130  0.7815
   79MOL   H21431570   3.033   0.534   6.785 -0.5549 -0.6396 -2.1425
   79MOL   H21531571   2.771   0.726   7.119 -2.2894  1.7174 -0.0464
   79MOL   H21631572   2.665   0.678   6.989 -0.8587  0.9857  1.7758
   79MOL   H21731573   2.720   0.552   7.106  1.2698 -1.0819 -2.2711
   79MOL   H21831574   2.624   0.501   6.900  0.3669  1.3843  0.0742
   79MOL   H21931575   2.594   0.320   6.712 -0.5474 -0.4445  2.9118
   79MOL   H22031576   2.582   0.210   6.518  1.0263  1.6260  1.1071
   79MOL   H22131577   2.653   0.085   6.455 -3.2226  0.7845  1.1391
   79MOL   C22231578   2.726   0.274   6.362  0.0724 -0.1751  0.4915
   79MOL   C22331579   2.791   0.191   6.254 -0.4878 -0.0368  0.3514
   79MOL   C22431580   2.732   0.074   6.200 -0.2935 -0.5001 -0.1177
   79MOL   C22531581   2.786   0.008   6.091 -0.0578 -0.2761  0.2307
   79MOL   C22631582   2.918   0.040   6.060  0.0860 -0.4203  0.3964
   79MOL   O22731583   2.985   8.021   5.958 -0.0367 -0.3420 -0.5825
   79MOL   C22831584   2.948   7.891   5.912  0.0990 -0.0226 -0.2746
   79MOL   C22931585   2.991   0.148   6.120  0.0788  0.1817  0.2351
   79MOL   C23031586   2.921   0.226   6.218  0.2207 -0.4518  0.3677
   79MOL   C23131587   2.614   0.353   6.285 -0.3424  0.8908 -0.2269
   79MOL   H23231588   2.795   0.352   6.394 -2.1727  2.0190  0.1744
   79MOL   H23331589   2.637   0.037   6.236 -1.1686  0.2157 -1.6460
   79MOL   H23431590   2.737   7.954   6.069  0.6995 -0.2199 -1.8124
   79MOL   H23531591   3.015   7.850   5.836  2.0398  1.7491  0.4314
   79MOL   H23631592   2.928   7.821   5.994  1.0382  1.3278  1.1347
   79MOL   H23731593   2.853   7.901   5.859 -0.0282 -0.2868 -0.1020
   79MOL   H23831594   3.094   0.165   6.091 -0.3745  2.1518 -0.3405
   79MOL   H23931595   2.965   0.311   6.269 -2.8073  0.2453  1.9472
   79MOL   H24031596   2.662   0.424   6.217  1.4465  1.0830  1.2005
   79MOL   H24131597   2.559   0.283   6.223  1.1422  0.0030 -0.5685
   79MOL   C24231598   2.518   0.432   6.376 -0.0250  0.4022  0.2127
   79MOL   C24331599   2.497   0.578   6.326  0.1786  0.6286  1.0872
   79MOL   C24431600   2.519   0.684   6.418  0.3202  0.0576  0.3044
   79MOL   C24531601   2.503   0.816   6.375 -0.3185  0.3916 -0.6563
   79MOL   C24631602   2.452   0.841   6.243 -0.2446  0.4959 -0.4007
   79MOL   O24731603   2.424   0.971   6.219 -0.0702  0.4201 -0.1876
   79MOL   C24831604   2.340   1.012   6.117 -0.1887 -0.2953 -0.2703
   79MOL   C24931605   2.440   0.742   6.152 -0.9881 -0.3184 -0.3564
   79MOL   C25031606   2.458   0.608   6.192  0.0124  0.7265 -0.1103
   79MOL   C25131607   2.379   0.354   6.369 -0.2421  0.2621  0.0699
   79MOL   H25231608   2.546   0.441   6.481 -2.2740  0.1376  0.8534
   79MOL   H25331609   2.563   0.660   6.513 -0.6838 -1.8858  0.2984
   79MOL   H25431610   2.516   0.889   6.453 -0.8086 -0.7324  0.4980
   79MOL   H25531611   2.397   0.994   6.025  1.1760  0.9397  0.2964
   79MOL   H25631612   2.243   0.965   6.106 -0.7977  1.1434 -1.2571
   79MOL   H25731613   2.336   1.120   6.131 -0.1462 -0.5898  2.1997
   79MOL   H25831614   2.404   0.764   6.053 -0.4788 -1.1008 -0.7182
   79MOL   H25931615   2.452   0.527   6.120 -2.0377 -1.0679  2.0018
   79MOL   H26031616   2.394   0.250   6.395  1.0707  0.6933  1.0856
   79MOL   H26131617   2.340   0.345   6.267 -0.7957  3.4047 -0.0475
   79MOL   C26231618   2.258   0.417   6.449 -0.3448  0.0641 -0.1337
   79MOL   C26331619   2.285   0.417   6.599  0.2387 -0.4078  1.2348
   79MOL   C26431620   2.285   0.546   6.667  0.0086  0.1210 -0.2864
   79MOL   C26531621   2.311   0.562   6.801  0.3887  0.6742 -0.1785
   79MOL   C26631622   2.323   0.444   6.880  0.1018 -1.1480 -0.5568
   79MOL   O26731623   2.347   0.439   7.014  0.3434 -0.1835 -0.2116
   79MOL   C26831624   2.356   0.564   7.079 -0.2004  0.1220 -0.0510
   79MOL   C26931625   2.322   0.322   6.815  1.2808  0.1051 -0.4537
   79MOL   C27031626   2.288   0.302   6.679 -0.3561  0.3276  0.5640
   79MOL   C27131627   2.127   0.339   6.416 -0.1802  0.3534  0.0993
   79MOL   H27231628   2.246   0.523   6.424  0.3198  0.7315  2.2407
   79MOL   H27331629   2.275   0.631   6.601 -2.7042 -0.1428 -0.2647
   79MOL   H27431630   2.304   0.660   6.844 -0.5968  0.7251 -0.4347
   79MOL   H27531631   2.250   0.586   7.087  0.3443  2.3786  1.2441
   79MOL   H27631632   2.421   0.637   7.030 -2.0469  1.3920 -0.6308
   79MOL   H27731633   2.392   0.540   7.179 -2.3862  1.5866  1.1074
   79MOL   H27831634   2.332   0.231   6.872  2.4239  0.7806  0.4607
   79MOL   H27931635   2.275   0.203   6.637  3.6561 -0.6665  1.4172
   79MOL   H28031636   2.148   0.238   6.383 -2.5024 -0.2166  0.2942
   79MOL   H28131637   2.064   0.338   6.505 -1.3734 -0.2885 -0.7467
   79MOL   C28231638   2.033   0.402   6.318  0.3471  0.1412  0.6811
   79MOL   C28331639   2.012   0.544   6.351  0.2611 -0.3289 -0.1557
   79MOL   C28431640   2.075   0.642   6.276 -0.5661 -0.6700 -0.2512
   79MOL   C28531641   2.063   0.782   6.306 -0.0320 -0.1016 -0.0654
   79MOL   C28631642   1.985   0.827   6.415 -0.1338 -1.0145  0.0668
   79MOL   O28731643   1.981   0.965   6.444 -0.5021  0.2254  0.2737
   79MOL   C28831644   1.915   0.995   6.560  0.3230  0.2124 -0.0380
   79MOL   C28931645   1.926   0.722   6.488  0.0824 -0.4547  0.5994
   79MOL   C29031646   1.938   0.585   6.460  0.1147 -0.2218 -0.1201
   79MOL   C29131647   1.898   0.309   6.322  0.3096  0.9745 -0.0562
   79MOL   H29231648   2.079   0.390   6.220 -0.1808  0.1926  0.4231
   79MOL   H29331649   2.140   0.612   6.195  0.2273  1.7071 -0.5456
   79MOL   H29431650   2.094   0.860   6.238 -0.2513 -0.8924 -1.0915
   79MOL   H29531651   1.942   1.096   6.589  0.9096  0.2898 -0.8270
   79MOL   H29631652   1.810   0.979   6.535  0.8863 -2.2377 -1.0364
   79MOL   H29731653   1.946   0.929   6.640  0.2380 -2.1383 -1.8725
   79MOL   H29831654   1.857   0.740   6.569 -1.3647 -0.4775 -0.5830
   79MOL   H29931655   1.890   0.504   6.512  1.6477 -1.3306 -0.3717
   79MOL   H30031656   1.938   0.209   6.303 -1.3625  0.6119 -1.8064
   79MOL   H30131657   1.842   0.308   6.416 -1.5527  0.0611 -1.1267
   79MOL   C30231658   1.794   0.321   6.207 -0.6200  0.1261 -0.4681
   79MOL   C30331659   1.714   0.191   6.198 -0.4475 -0.0113 -0.1988
   79MOL   C30431660   1.649   0.137   6.311 -0.6892  0.2704  0.0266
   79MOL   C30531661   1.566   0.019   6.291 -0.9661 -0.1249 -0.3912
   79MOL   C30631662   1.560   8.000   6.167  0.4457  0.2693 -0.3376
   79MOL   O30731663   1.494   7.883   6.157 -0.2396 -0.1808  0.2966
   79MOL   C30831664   1.526   7.790   6.050  0.0455 -0.1083 -0.1316
   79MOL   C30931665   1.628   0.016   6.054 -0.2199 -0.1729 -0.7921
   79MOL   C31031666   1.711   0.128   6.076 -0.1036  0.1394  0.4636
   79MOL   C31131667   1.688   0.436   6.208 -0.2937  0.0943  0.3618
   79MOL   H31231668   1.838   0.337   6.109 -0.0979  1.7767  0.0324
   79MOL   H31331669   1.654   0.184   6.408 -0.4073 -1.7310  1.0250
   79MOL   H31431670   1.526   7.996   6.369 -0.4613 -0.5412 -0.4653
   79MOL   H31531671   1.466   7.803   5.959  1.2436  2.1271 -0.6483
   79MOL   H31631672   1.502   7.690   6.087 -0.8577  0.4284  0.7534
   79MOL   H31731673   1.631   7.777   6.026  0.0864 -1.5744  0.7719
   79MOL   H31831674   1.607   8.023   5.954 -0.0893 -0.3251 -0.7703
   79MOL   H31931675   1.778   0.169   6.003  0.9101 -0.6409  0.9357
   79MOL   H32031676   1.722   0.510   6.280  0.8306  0.4093 -0.4868
   79MOL   H32131677   1.607   0.399   6.272 -0.0608  0.9646  1.1754
   79MOL   C32231678   1.642   0.483   6.070 -0.2029  0.2891  0.6027
   79MOL   C32331679   1.754   0.554   5.992  0.5596 -0.6385 -0.3316
   79MOL   C32431680   1.801   0.680   6.039  0.8473 -0.0211  0.3205
   79MOL   C32531681   1.917   0.741   5.982 -0.3339 -0.4497 -0.4932
   79MOL   C32631682   1.993   0.667   5.880  0.2218 -0.0699 -0.2739
   79MOL   O32731683   2.117   0.700   5.833  0.1105 -0.4312 -0.2409
   79MOL   C32831684   2.176   0.816   5.887  0.2314  1.1689 -0.1838
   79MOL   C32931685   1.936   0.554   5.822  0.3445 -0.2715 -0.2154
   79MOL   C33031686   1.819   0.495   5.880 -0.5986  0.4552  0.5705
   79MOL   C33131687   1.526   0.579   6.084 -0.2347 -0.1847  0.3450
   79MOL   H33231688   1.610   0.395   6.014  1.4143 -0.3469  0.6621
   79MOL   H33331689   1.762   0.739   6.121 -0.3933 -0.1878 -0.1475
   79MOL   H33431690   1.952   0.838   6.014  0.2517  0.0778 -2.6884
   79MOL   H33531691   2.275   0.838   5.846 -0.4057  0.8017 -1.9525
   79MOL   H33631692   2.202   0.800   5.991  0.2318 -1.2311 -0.5344
   79MOL   H33731693   2.109   0.900   5.868 -1.0626 -0.1735 -1.5992
   79MOL   H33831694   1.992   0.499   5.747  0.7286  1.2420 -1.0483
   79MOL   H33931695   1.787   0.400   5.839  2.0075  0.6395 -2.0002
   79MOL   H34031696   1.448   0.516   6.127 -2.8690  1.6638 -1.5779
   79MOL   H34131697   1.553   0.648   6.163 -3.0635 -0.0399  1.2064
   79MOL   C34231698   1.459   0.651   5.969  0.3051 -0.8393  0.1296
   79MOL   C34331699   1.389   0.769   6.024  0.2302 -0.0845  0.0117
   79MOL   C34431700   1.422   0.898   5.981 -0.1539 -0.6952  0.6554
   79MOL   C34531701   1.356   1.011   6.031 -0.3194 -1.4275 -0.6188
   79MOL   C34631702   1.250   1.000   6.123 -0.1301 -0.4869 -0.8653
   79MOL   O34731703   1.182   1.107   6.175 -0.3923 -0.1776  0.2873
   79MOL   C34831704   1.249   1.230   6.174 -0.4287  0.2713  0.3222
   79MOL   C34931705   1.216   0.870   6.165 -0.0425 -0.2005  0.1668
   79MOL   C35031706   1.286   0.754   6.115 -0.0144 -0.2160 -0.4032
   79MOL   C35131707   1.368   0.563   5.881 -0.3473 -0.2852 -0.9016
   79MOL   H35231708   1.533   0.691   5.899 -1.2086 -2.5626 -2.5157
   79MOL   H35331709   1.496   0.902   5.902  0.7341  3.0360  1.5800
   79MOL   H35431710   1.389   1.101   5.980 -1.6510 -2.0850 -2.7074
   79MOL   H35531711   1.265   1.262   6.071  2.0872 -0.5510  0.4075
   79MOL   H35631712   1.177   1.296   6.221  0.8903  0.9416  1.4295
   79MOL   H35731713   1.342   1.222   6.231 -0.7210  0.2406  0.8017
   79MOL   H35831714   1.134   0.863   6.235  0.4119 -1.3669  0.5879
   79MOL   H35931715   1.254   0.657   6.150  0.0952 -0.0522  0.1469
   79MOL   H36031716   1.421   0.471   5.858  2.0909  0.6482  0.7475
   79MOL   H36131717   1.281   0.535   5.940 -0.3871 -1.3355 -1.4542
   79MOL   C36231718   1.323   0.634   5.752  0.1612 -0.1465  0.2520
   79MOL   C36331719   1.172   0.647   5.745  0.2400  0.3182 -0.3263
   79MOL   C36431720   1.092   0.543   5.718 -0.2790  0.4169  0.3279
   79MOL   C36531721   0.950   0.551   5.718  1.0738  0.3269  0.2799
   79MOL   C36631722   0.886   0.667   5.755 -0.1681 -0.0689 -1.0383
   79MOL   O36731723   0.747   0.677   5.775 -0.5573  0.4907 -0.7130
   79MOL   C36831724   0.664   0.599   5.691 -0.3411 -0.0819  0.1356
   79MOL   C36931725   0.969   0.776   5.778  0.5470  0.3893  0.0998
   79MOL   C37031726   1.111   0.768   5.778  0.0464 -0.0024 -0.5052
   79MOL   C37131727   1.390   0.596   5.624 -0.5302 -0.1547  0.3267
   79MOL   H37231728   1.360   0.736   5.759 -0.6711  0.1258  0.6259
   79MOL   H37331729   1.137   0.448   5.694 -0.1069  0.3216  1.0367
   79MOL   H37431730   0.891   0.466   5.688  0.0500  0.1702  2.6446
   79MOL   H37531731   0.643   0.499   5.730  1.5943 -0.9990 -1.1315
   79MOL   H37631732   0.569   0.652   5.696 -0.8543 -0.3367 -4.7890
   79MOL   H37731733   0.700   0.579   5.590 -0.5152  0.1547  0.0267
   79MOL   H37831734   0.922   0.872   5.790 -0.6857 -0.3546  1.2434
   79MOL   H37931735   1.173   0.853   5.800 -2.2617  1.0110  2.5548
   79MOL   H38031736   1.497   0.608   5.636 -0.4477 -0.8130  0.2603
   79MOL   H38131737   1.373   0.491   5.601 -0.1875 -0.1457  0.0295
   79MOL   C38231738   1.333   0.674   5.500  0.0998  0.0239 -0.5683
   79MOL   C38331739   1.371   0.601   5.373 -0.6334 -0.6544  0.0823
   79MOL   C38431740   1.504   0.574   5.338 -0.1746  0.3688  0.0203
   79MOL   C38531741   1.535   0.505   5.221  0.2319  0.0348  0.1786
   79MOL   C38631742   1.445   0.493   5.114  0.6281 -0.0500  0.0040
   79MOL   O38731743   1.468   0.444   4.995 -0.3140  0.4507  0.3610
   79MOL   C38831744   1.593   0.387   4.969  0.2274  0.1928  0.0082
   79MOL   C38931745   1.304   0.521   5.144 -0.2578 -0.2515 -0.1909
   79MOL   C39031746   1.269   0.574   5.271  0.3219 -0.3133 -0.0395
   79MOL   C39131747   1.376   0.820   5.503  0.3996 -0.1993  0.2930
   79MOL   H39231748   1.225   0.670   5.489  0.1921  0.7015 -1.7572
   79MOL   H39331749   1.579   0.607   5.408  0.7471  1.0005 -1.2304
   79MOL   H39431750   1.635   0.474   5.196 -0.2459 -0.6032 -0.9832
   79MOL   H39531751   1.618   0.318   5.050  4.6149  0.8153 -0.7267
   79MOL   H39631752   1.679   0.451   4.950  0.9477 -0.7322  0.1086
   79MOL   H39731753   1.573   0.328   4.880 -2.1082  0.3465  0.4045
   79MOL   H39831754   1.219   0.503   5.079 -2.3023  0.3970  2.2382
   79MOL   H39931755   1.165   0.587   5.296  0.6545  1.5868  0.3869
   79MOL   H40031756   1.349   0.882   5.417  1.5409 -0.8019 -0.5170
   79MOL   H40131757   1.484   0.818   5.520  1.0159 -1.2618 -3.3506
   79MOL   H40231758   1.330   0.874   5.586 -1.8315  0.2935 -1.2025
   80MOL     C131759   3.143   2.824   4.755 -0.0864  0.0828 -0.1050
   80MOL     C231760   3.248   2.755   4.676 -0.7047 -0.5062 -0.4039
   80MOL     C331761   3.341   2.828   4.600  0.5350  0.3472 -0.2251
   80MOL     C431762   3.453   2.774   4.537 -0.5544  0.0572  0.8307
   80MOL     C531763   3.468   2.632   4.542  0.2428 -0.1857  0.0386
   80MOL     O631764   3.573   2.564   4.487 -0.2960  0.1986 -0.7116
   80MOL     C731765   3.665   2.626   4.398 -0.4880 -0.5931  0.2348
   80MOL     C831766   3.374   2.552   4.613 -0.8355 -0.1304  0.8986
   80MOL     C931767   3.260   2.612   4.679 -1.4291  0.9518  0.3890
   80MOL    C1031768   3.203   2.935   4.854  0.5011 -0.2745 -0.9975
   80MOL    H1131769   3.084   2.746   4.802 -0.9431  0.8859  0.1697
   80MOL    H1231770   3.314   2.932   4.591  2.3009  0.9243  0.8146
   80MOL    H1331771   3.513   2.840   4.477  0.4150 -0.1397  1.5711
   80MOL    H1431772   3.620   2.641   4.300 -0.3168 -0.8194  0.1210
   80MOL    H1531773   3.704   2.723   4.426  0.4320 -1.2976  1.4632
   80MOL    H1631774   3.749   2.558   4.384 -0.0026 -0.5674  2.7729
   80MOL    H1731775   3.389   2.445   4.616  1.9866  0.1495 -1.2348
   80MOL    H1831776   3.201   2.556   4.750  1.7673 -0.0516  2.3519
   80MOL    H1931777   3.255   2.860   4.913 -2.3040 -3.4262 -2.3259
   80MOL    H2031778   3.280   2.986   4.797  0.8739  0.9321  0.5573
   80MOL    H2131779   3.078   2.867   4.679  0.7164  1.2151 -0.1729
   80MOL    C2231780   3.113   3.035   4.921 -0.2043 -0.1567 -0.0439
   80MOL    C2331781   2.992   2.975   4.988 -0.2474 -0.1090  0.3556
   80MOL    C2431782   2.863   3.030   4.964 -0.2311 -0.5270 -0.0382
   80MOL    C2531783   2.757   2.994   5.050 -0.7042 -0.6074  0.5350
   80MOL    C2631784   2.764   2.884   5.137  0.5113  0.0763  0.7912
   80MOL    O2731785   2.665   2.838   5.224 -0.1756 -0.9300  0.0813
   80MOL    C2831786   2.536   2.902   5.240  0.0586 -0.1652  0.5650
   80MOL    C2931787   2.890   2.823   5.148  0.2324 -0.4574  0.5094
   80MOL    C3031788   3.003   2.866   5.077  0.1081  0.5344  0.1636
   80MOL    C3131789   3.205   3.108   5.020  0.6665  0.5258  0.0403
   80MOL    H3231790   3.080   3.101   4.840  1.2510  0.4146 -0.1809
   80MOL    H3331791   2.850   3.116   4.901 -1.7833  0.7684  1.9726
   80MOL    H3431792   2.659   3.040   5.041 -0.3939  0.0137  0.2606
   80MOL    H3531793   2.477   2.893   5.149  0.1854  0.8408  0.3739
   80MOL    H3631794   2.549   3.008   5.264  2.5376  0.0167 -1.3415
   80MOL    H3731795   2.486   2.846   5.319 -0.2991 -1.4702 -0.5852
   80MOL    H3831796   2.900   2.737   5.213  0.9075 -1.0318 -0.3485
   80MOL    H3931797   3.096   2.811   5.085 -0.2183  0.1765  1.8567
   80MOL    H4031798   3.217   3.028   5.093 -1.6667 -2.7626 -2.9971
   80MOL    H4131799   3.311   3.114   4.994  0.3065 -0.5523 -1.6752
   80MOL    C4231800   3.162   3.238   5.085 -0.4961  0.6307 -0.0314
   80MOL    C4331801   3.153   3.347   4.983 -0.5153  0.2396 -0.1879
   80MOL    C4431802   3.062   3.446   5.010  0.1800  0.8370 -0.1066
   80MOL    C4531803   3.029   3.546   4.920  0.5402  0.4163  0.1318
   80MOL    C4631804   3.106   3.560   4.805  0.0352  0.3144  0.3143
   80MOL    O4731805   3.066   3.659   4.720  0.0846  0.1014  0.2365
   80MOL    C4831806   3.054   3.623   4.584  0.3470 -0.3124  0.0227
   80MOL    C4931807   3.209   3.467   4.776  0.4990  0.5438 -0.2802
   80MOL    C5031808   3.235   3.360   4.867 -0.5780 -0.1609  0.2694
   80MOL    C5131809   3.261   3.280   5.193 -0.0955 -0.2797  0.6011
   80MOL    H5231810   3.067   3.221   5.135 -0.7447  0.0966 -0.6720
   80MOL    H5331811   3.004   3.443   5.102  1.6173 -1.5224  0.7837
   80MOL    H5431812   2.962   3.627   4.946  0.6804  0.6586 -0.2582
   80MOL    H5531813   3.145   3.625   4.525 -0.6262 -2.0945 -1.5901
   80MOL    H5631814   3.032   3.516   4.577  1.1988 -0.6452  2.1848
   80MOL    H5731815   2.979   3.684   4.533  0.5197 -0.8423 -0.8822
   80MOL    H5831816   3.267   3.485   4.686  0.9168 -0.6948 -0.2694
   80MOL    H5931817   3.305   3.281   4.845  0.8227  1.3929 -0.9873
   80MOL    H6031818   3.290   3.382   5.165 -2.1132  0.4046  0.9741
   80MOL    H6131819   3.356   3.225   5.191  0.5586  0.8089  1.0776
   80MOL    C6231820   3.200   3.285   5.338 -0.2159 -0.3352  0.2019
   80MOL    C6331821   3.305   3.345   5.435 -0.3405 -0.2915  0.1179
   80MOL    C6431822   3.273   3.454   5.525  0.8313 -0.1652  0.7316
   80MOL    C6531823   3.365   3.512   5.609  0.2030 -0.2419  0.0157
   80MOL    C6631824   3.496   3.460   5.613  0.4772 -0.4388 -0.4920
   80MOL    O6731825   3.591   3.516   5.694 -0.4363  0.1474  0.7242
   80MOL    C6831826   3.566   3.628   5.772  0.2579  0.7374  0.2886
   80MOL    C6931827   3.530   3.347   5.538 -0.0439  0.3929  0.7535
   80MOL    C7031828   3.435   3.288   5.444 -0.3330  0.0633 -0.6116
   80MOL    C7131829   3.149   3.156   5.388  0.7746  0.1926  0.2908
   80MOL    H7231830   3.114   3.352   5.348 -0.3108 -0.1946 -1.3804
   80MOL    H7331831   3.169   3.484   5.534  0.7936 -0.5610  1.6601
   80MOL    H7431832   3.333   3.590   5.676 -0.3200  0.0472 -0.5695
   80MOL    H7531833   3.653   3.647   5.835  0.9090  0.7428 -0.6092
   80MOL    H7631834   3.484   3.597   5.837 -2.1862  1.2226 -2.4759
   80MOL    H7731835   3.538   3.722   5.724  2.0564  1.5318  0.7664
   80MOL    H7831836   3.633   3.315   5.533  0.4312  1.9941  0.1757
   80MOL    H7931837   3.454   3.203   5.380 -1.3092  0.4107 -1.3771
   80MOL    H8031838   3.103   3.099   5.307  0.2657 -0.4407  1.0185
   80MOL    H8131839   3.236   3.098   5.419 -0.0971 -1.9257 -1.0959
   80MOL    C8231840   3.056   3.161   5.514  0.0838 -0.0156 -0.1609
   80MOL    C8331841   2.923   3.227   5.484  1.0395 -0.3562 -0.6388
   80MOL    C8431842   2.866   3.314   5.573 -0.9303 -0.1621 -0.4819
   80MOL    C8531843   2.734   3.364   5.550  0.5427  1.1132 -1.4477
   80MOL    C8631844   2.657   3.331   5.436  0.2296 -0.4961  0.8306
   80MOL    O8731845   2.526   3.368   5.396  0.4082 -0.3167  0.1738
   80MOL    C8831846   2.456   3.446   5.486 -0.0321 -0.3556  0.4748
   80MOL    C8931847   2.721   3.235   5.350  0.5970 -0.4357 -1.2351
   80MOL    C9031848   2.855   3.188   5.370  0.8038 -0.4333 -0.1030
   80MOL    C9131849   3.040   3.023   5.577  0.3513 -0.0453  0.2485
   80MOL    H9231850   3.110   3.218   5.590  0.3081 -1.6765  0.9310
   80MOL    H9331851   2.926   3.340   5.659  0.3462 -0.9747 -1.1184
   80MOL    H9431852   2.691   3.425   5.629  0.6098  0.3085 -0.7832
   80MOL    H9531853   2.459   3.405   5.587  0.6144  0.0935  0.6410
   80MOL    H9631854   2.351   3.452   5.458  0.7106  1.5407 -2.0977
   80MOL    H9731855   2.493   3.548   5.496 -1.0506  0.1132 -0.4581
   80MOL    H9831856   2.674   3.188   5.265 -0.3471 -0.0875 -0.9108
   80MOL    H9931857   2.895   3.119   5.298  1.4928  1.4605 -1.5816
   80MOL   H10031858   2.951   3.029   5.639  0.5514 -1.0622  0.6429
   80MOL   H10131859   3.004   2.956   5.499  3.0565  0.4432 -1.4796
   80MOL   C10231860   3.152   2.965   5.669  0.3670 -0.1936  0.2346
   80MOL   C10331861   3.200   3.067   5.776 -0.0844  0.6801  1.2276
   80MOL   C10431862   3.322   3.131   5.747  0.2027  0.5154  0.1467
   80MOL   C10531863   3.373   3.233   5.840 -0.1570  0.3669 -0.1542
   80MOL   C10631864   3.305   3.264   5.958 -0.2348  0.3550  0.2787
   80MOL   O10731865   3.345   3.365   6.041  0.5417  0.3782  0.0713
   80MOL   C10831866   3.243   3.431   6.120 -0.0633 -0.2280 -0.3107
   80MOL   C10931867   3.180   3.185   5.978  0.1954 -0.3171 -0.3856
   80MOL   C11031868   3.128   3.097   5.884  0.6630 -0.7303 -0.1024
   80MOL   C11131869   3.121   2.829   5.733  0.0597  0.8033  0.5974
   80MOL   H11231870   3.231   2.945   5.597 -1.6142  1.2437 -2.4356
   80MOL   H11331871   3.372   3.104   5.656 -0.1615 -1.8663  0.6227
   80MOL   H11431872   3.462   3.285   5.810  0.3040 -0.4535 -0.2469
   80MOL   H11531873   3.280   3.522   6.167 -0.2585  0.5706 -1.6634
   80MOL   H11631874   3.158   3.458   6.057  0.8806  2.5553 -0.4306
   80MOL   H11731875   3.219   3.363   6.201 -0.7770 -1.0511 -1.1996
   80MOL   H11831876   3.121   3.201   6.067  0.7137 -0.0575 -0.0799
   80MOL   H11931877   3.034   3.049   5.901  1.2763 -1.6916  0.6178
   80MOL   H12031878   3.023   2.836   5.780  0.1481  1.0324  0.7484
   80MOL   H12131879   3.118   2.754   5.655 -2.6915  0.2617  1.1687
   80MOL   C12231880   3.215   2.769   5.837  0.1206 -0.1123  0.5587
   80MOL   C12331881   3.364   2.756   5.803 -0.0199 -0.0211 -0.2084
   80MOL   C12431882   3.404   2.693   5.681 -0.1633  0.2085  0.4041
   80MOL   C12531883   3.539   2.691   5.646  0.1861  0.5042  0.2377
   80MOL   C12631884   3.639   2.738   5.731  0.6606 -0.4848  0.6264
   80MOL   O12731885   3.773   2.712   5.704 -0.2469 -0.1771 -0.7098
   80MOL   C12831886   3.807   2.627   5.596  0.2439  0.2356  0.5958
   80MOL   C12931887   3.602   2.800   5.854 -0.0218 -0.4964 -0.1004
   80MOL   C13031888   3.463   2.815   5.889 -0.2094  0.4613 -0.0415
   80MOL   C13131889   3.160   2.631   5.888 -0.1825  0.4198  0.7326
   80MOL   H13231890   3.211   2.833   5.925  1.6372 -0.5745  0.9912
   80MOL   H13331891   3.334   2.655   5.609  0.1290  2.0409 -0.8727
   80MOL   H13431892   3.570   2.645   5.553 -1.4362  2.4086 -1.3039
   80MOL   H13531893   3.916   2.622   5.594  0.2021 -0.4972 -0.9087
   80MOL   H13631894   3.756   2.532   5.615  0.0589  0.1647 -0.2299
   80MOL   H13731895   3.778   2.673   5.502  1.2496 -0.2979  0.0207
   80MOL   H13831896   3.681   2.837   5.918 -0.9094  0.8314  0.2526
   80MOL   H13931897   3.435   2.857   5.984  4.1479  0.9477  1.1522
   80MOL   H14031898   3.240   2.579   5.940  0.8776  0.1935 -1.0867
   80MOL   H14131899   3.151   2.578   5.793  1.5163  0.0199  0.7867
   80MOL   C14231900   3.035   2.625   5.981  0.1643 -0.6005 -0.3066
   80MOL   C14331901   2.968   2.488   5.992  0.7968 -0.7186 -0.4573
   80MOL   C14431902   2.843   2.459   5.919 -0.7724 -0.2234  0.0875
   80MOL   C14531903   2.786   2.336   5.923  0.0227 -0.0432 -0.3969
   80MOL   C14631904   2.857   2.232   5.987  1.2039  0.3824 -0.1936
   80MOL   O14731905   2.795   2.104   5.988 -0.1608 -0.4120  0.0199
   80MOL   C14831906   2.883   1.995   6.002 -0.5716 -0.9633  0.3867
   80MOL   C14931907   2.973   2.262   6.062  0.5966  0.7628 -0.4100
   80MOL   C15031908   3.027   2.391   6.075 -0.8698 -0.0776  0.3771
   80MOL   C15131909   3.058   2.695   6.119  0.3165  0.0578 -0.0617
   80MOL   H15231910   2.963   2.687   5.927 -0.6752 -1.9047 -0.7164
   80MOL   H15331911   2.801   2.522   5.843 -0.6183  0.7546  0.8096
   80MOL   H15431912   2.699   2.300   5.869  0.7280  0.5944 -1.9865
   80MOL   H15531913   2.909   1.980   6.107 -2.2800 -1.5043  0.7373
   80MOL   H15631914   2.851   1.901   5.956 -0.1906 -1.1628  0.5237
   80MOL   H15731915   2.980   2.008   5.953 -0.3498 -1.6069  0.6470
   80MOL   H15831916   3.028   2.184   6.112 -1.0032 -0.6851 -0.8514
   80MOL   H15931917   3.119   2.405   6.130  0.1698 -2.6825 -0.6330
   80MOL   H16031918   3.100   2.794   6.104 -1.7480  0.5781 -2.7978
   80MOL   H16131919   3.112   2.621   6.179  1.2000  1.8538  1.3858
   80MOL   C16231920   2.923   2.734   6.186 -0.5724 -0.9534 -0.0182
   80MOL   C16331921   2.830   2.818   6.090 -0.5380  0.5455 -0.4928
   80MOL   C16431922   2.718   2.758   6.030  0.5205 -0.5575 -0.3793
   80MOL   C16531923   2.627   2.827   5.951  0.2239 -0.0387 -1.0600
   80MOL   C16631924   2.650   2.965   5.941 -0.0834  0.2094  0.6659
   80MOL   O16731925   2.559   3.023   5.856 -0.6014 -0.1957 -0.5774
   80MOL   C16831926   2.562   3.159   5.825 -0.0060 -0.6929 -0.0599
   80MOL   C16931927   2.758   3.035   6.005 -0.0068 -0.1565  0.2583
   80MOL   C17031928   2.850   2.957   6.076 -0.3691 -1.2112  0.0209
   80MOL   C17131929   2.933   2.794   6.332 -0.9316  0.4511 -0.0561
   80MOL   H17231930   2.870   2.643   6.214  1.8329 -2.2301  0.4837
   80MOL   H17331931   2.703   2.651   6.028  0.5285 -0.5413 -2.1366
   80MOL   H17431932   2.549   2.777   5.896 -0.8066  0.7275 -0.3219
   80MOL   H17531933   2.489   3.180   5.747  0.2045 -4.7207 -1.4433
   80MOL   H17631934   2.663   3.181   5.790 -0.4732 -0.9196 -1.5479
   80MOL   H17731935   2.547   3.231   5.906 -1.3441  0.8716 -1.6644
   80MOL   H17831936   2.777   3.141   5.999 -0.7143 -0.1380 -2.2162
   80MOL   H17931937   2.938   2.999   6.123  0.0550 -1.4064 -0.5881
   80MOL   H18031938   2.833   2.815   6.371  0.1042 -0.6919  3.3588
   80MOL   H18131939   2.980   2.892   6.325  1.3441 -0.5367  0.9437
   80MOL   C18231940   3.008   2.708   6.442  0.0411 -0.6163 -0.3005
   80MOL   C18331941   2.924   2.586   6.479  0.2704  0.1802  0.4089
   80MOL   C18431942   2.827   2.597   6.576  0.1280 -0.3545 -0.5345
   80MOL   C18531943   2.753   2.485   6.616 -0.2807 -0.0653  0.7561
   80MOL   C18631944   2.775   2.359   6.554 -0.4413  0.7882 -1.3297
   80MOL   O18731945   2.721   2.244   6.585 -0.0473  0.2282 -0.6368
   80MOL   C18831946   2.609   2.250   6.683 -0.4607  0.5254  0.3090
   80MOL   C18931947   2.863   2.350   6.443 -0.2179 -1.2841  0.1175
   80MOL   C19031948   2.942   2.466   6.413  0.5003  0.6553  0.0677
   80MOL   C19131949   3.051   2.796   6.565  0.3742  0.3376 -0.3638
   80MOL   H19231950   3.099   2.667   6.399 -0.0768 -2.0066  0.7278
   80MOL   H19331951   2.808   2.695   6.617 -1.1197 -0.7654 -0.1000
   80MOL   H19431952   2.682   2.498   6.696 -1.6321  0.5047 -0.5089
   80MOL   H19531953   2.577   2.150   6.712  1.3982  0.6781  3.0609
   80MOL   H19631954   2.525   2.308   6.643 -0.4440 -0.6254 -1.4380
   80MOL   H19731955   2.637   2.280   6.784 -1.8603 -0.2266  0.9324
   80MOL   H19831956   2.859   2.256   6.392  0.1856 -1.1953 -0.0835
   80MOL   H19931957   3.020   2.458   6.339 -0.0980 -1.2317 -0.4129
   80MOL   H20031958   2.965   2.843   6.612  1.9138  1.8857  0.9702
   80MOL   H20131959   3.099   2.742   6.647  1.8312 -1.2223 -2.1974
   80MOL   C20231960   3.159   2.907   6.543  0.2472  0.5350 -0.1445
   80MOL   C20331961   3.292   2.858   6.485 -0.5887 -0.1505  0.5894
   80MOL   C20431962   3.368   2.761   6.553  0.2404  0.0685 -0.6534
   80MOL   C20531963   3.487   2.702   6.503  0.1595  0.3352 -0.0225
   80MOL   C20631964   3.538   2.751   6.379 -0.3352  0.5306  0.8224
   80MOL   O20731965   3.656   2.696   6.324  0.1751  0.0226 -0.1078
   80MOL   C20831966   3.735   2.785   6.237 -0.6708 -0.2289 -0.6005
   80MOL   C20931967   3.472   2.857   6.315 -0.0478 -0.2984  0.2448
   80MOL   C21031968   3.353   2.913   6.372 -0.0485  0.0044 -0.2364
   80MOL   C21131969   3.193   2.992   6.664  0.0926 -0.3044  0.8351
   80MOL   H21231970   3.114   2.975   6.471 -1.6265 -1.3004 -0.7255
   80MOL   H21331971   3.335   2.730   6.652  0.0227  0.0880 -0.7185
   80MOL   H21431972   3.545   2.627   6.556 -1.0431  0.2778  1.2438
   80MOL   H21531973   3.686   2.826   6.149 -0.4871 -0.5302 -0.8438
   80MOL   H21631974   3.774   2.871   6.291 -0.6202  0.7025 -2.0979
   80MOL   H21731975   3.820   2.726   6.202 -0.0065  1.0235 -1.1220
   80MOL   H21831976   3.506   2.891   6.218 -0.1048 -1.0831 -0.0585
   80MOL   H21931977   3.294   2.985   6.318 -0.1544  1.3273  1.5763
   80MOL   H22031978   3.287   3.043   6.643 -0.0618  0.0464  0.9912
   80MOL   H22131979   3.212   2.935   6.754 -0.3370 -2.0069 -0.1365
   80MOL   C22231980   3.091   3.101   6.710 -0.2773  0.6779 -0.1794
   80MOL   C22331981   3.069   3.220   6.605 -0.6211  0.7614 -0.2280
   80MOL   C22431982   2.944   3.252   6.546 -0.2349  0.2896 -0.7213
   80MOL   C22531983   2.928   3.358   6.459 -0.1525 -0.4605  0.3282
   80MOL   C22631984   3.036   3.439   6.422 -0.6488  0.0382 -0.3045
   80MOL   O22731985   3.031   3.531   6.318 -0.1200 -0.2746 -0.6625
   80MOL   C22831986   2.903   3.561   6.268 -0.1345  0.2382  0.8562
   80MOL   C22931987   3.158   3.412   6.480 -0.2129  0.3673 -0.3967
   80MOL   C23031988   3.178   3.300   6.570  0.7289 -0.6951  0.6382
   80MOL   C23131989   2.966   3.068   6.774  0.1061  0.1166 -0.0059
   80MOL   H23231990   3.129   3.164   6.791  0.3516  1.4333 -1.0424
   80MOL   H23331991   2.854   3.193   6.558 -0.2980  0.7264  1.1399
   80MOL   H23431992   2.834   3.374   6.408  0.3096 -3.4045 -1.5511
   80MOL   H23531993   2.841   3.608   6.344 -0.1622 -2.5798  2.6569
   80MOL   H23631994   2.906   3.638   6.191 -0.6993 -0.8939 -0.3267
   80MOL   H23731995   2.862   3.474   6.216  0.7338 -0.9397  2.1055
   80MOL   H23831996   3.244   3.469   6.447  1.2620 -2.6401 -1.9340
   80MOL   H23931997   3.272   3.280   6.618  2.1573  2.3621 -0.7587
   80MOL   H24031998   2.917   3.161   6.804  2.3366  1.5911 -0.7625
   80MOL   H24131999   2.903   3.025   6.697  1.3451  1.9427 -2.1280
   80MOL   C24232000   2.979   2.984   6.898  0.4519  0.1160  0.2205
   80MOL   C24332001   3.061   3.038   7.008 -0.1440 -0.3969 -0.8582
   80MOL   C24432002   3.185   2.981   7.043 -0.5161 -0.1044 -0.0922
   80MOL   C24532003   3.268   3.037   7.144 -0.6292  0.0315 -0.6891
   80MOL   C24632004   3.228   3.155   7.215 -0.0611  0.5113 -0.0434
   80MOL   O24732005   3.310   3.195   7.319  0.4756  0.4147  0.2522
   80MOL   C24832006   3.253   3.304   7.399  0.4362  0.0025  0.0900
   80MOL   C24932007   3.106   3.214   7.177 -0.0614 -0.3113 -0.2991
   80MOL   C25032008   3.022   3.149   7.081  0.6665 -0.5559  0.6142
   80MOL   C25132009   2.847   2.935   6.959  0.1222  0.6608  0.2283
   80MOL   H25232010   3.034   2.901   6.855 -0.4641  0.2142 -1.2002
   80MOL   H25332011   3.235   2.897   6.996  0.3509  1.4488 -1.9993
   80MOL   H25432012   3.363   2.990   7.165 -0.6515  0.3052  0.0499
   80MOL   H25532013   3.322   3.321   7.481  1.2157 -1.0161 -0.3493
   80MOL   H25632014   3.239   3.399   7.348  0.2223 -0.3615 -0.5418
   80MOL   H25732015   3.155   3.273   7.435  0.5874 -0.0791  0.4329
   80MOL   H25832016   3.072   3.306   7.221  1.3804 -0.0261  0.2522
   80MOL   H25932017   2.924   3.195   7.069  1.1282  0.5715  1.1128
   80MOL   H26032018   2.790   2.906   6.871 -1.8926  2.2267  0.9993
   80MOL   H26132019   2.788   3.019   6.995 -2.4231 -0.3705 -1.4230
   80MOL   C26232020   2.860   2.823   7.066  1.0372 -0.2560 -0.3468
   80MOL   C26332021   2.930   2.688   7.022 -0.2407  0.1428 -0.5658
   80MOL   C26432022   3.052   2.652   7.081 -0.5330 -0.3237 -0.4041
   80MOL   C26532023   3.119   2.534   7.045  0.5549 -0.0189  0.3958
   80MOL   C26632024   3.068   2.446   6.950  0.2760 -0.2735 -0.1507
   80MOL   O26732025   3.139   2.340   6.902  0.2403  0.0117  0.0084
   80MOL   C26832026   3.124   2.310   6.768 -0.4162  0.2549 -0.3744
   80MOL   C26932027   2.939   2.476   6.906  0.4501 -0.1995  0.7287
   80MOL   C27032028   2.868   2.592   6.936 -0.9194 -0.1181 -0.0631
   80MOL   C27132029   2.727   2.789   7.144 -0.3925  0.1059  0.1988
   80MOL   H27232030   2.922   2.861   7.147  2.0004 -1.4743 -0.4938
   80MOL   H27332031   3.093   2.727   7.146 -3.0443  1.7724 -1.1799
   80MOL   H27432032   3.216   2.515   7.089  0.4181 -0.7429  0.3889
   80MOL   H27532033   3.175   2.219   6.738  0.3246  0.5309  0.0323
   80MOL   H27632034   3.159   2.388   6.700  0.4811 -0.4407 -0.7067
   80MOL   H27732035   3.022   2.285   6.742 -0.6447 -2.2285  2.5951
   80MOL   H27832036   2.886   2.404   6.844  0.0682 -0.8410  1.7852
   80MOL   H27932037   2.772   2.611   6.891 -0.5106  1.0760 -0.4719
   80MOL   H28032038   2.653   2.727   7.094  1.0167  0.6480 -2.6335
   80MOL   H28132039   2.778   2.733   7.222 -0.4920  0.9420  0.8856
   80MOL   C28232040   2.644   2.907   7.209 -0.3517 -0.2490 -0.0549
   80MOL   C28332041   2.726   2.998   7.298 -0.5470  0.0387  0.2017
   80MOL   C28432042   2.785   2.940   7.410  0.0608 -0.0625  0.1919
   80MOL   C28532043   2.862   3.008   7.508  0.4134  0.2337 -0.0035
   80MOL   C28632044   2.878   3.149   7.494 -0.3024 -0.6709 -0.8799
   80MOL   O28732045   2.912   3.235   7.597  0.3337 -0.2590  0.1622
   80MOL   C28832046   2.937   3.180   7.720  0.8674  0.2893  0.3693
   80MOL   C28932047   2.825   3.209   7.374 -0.9075  0.6062 -0.3769
   80MOL   C29032048   2.758   3.137   7.275 -0.2036  0.2446  0.8127
   80MOL   C29132049   2.513   2.858   7.273 -1.0909 -0.5726 -0.5806
   80MOL   H29232050   2.604   2.974   7.133 -1.0366 -0.5550  0.0309
   80MOL   H29332051   2.768   2.836   7.436  0.0166  0.0849  0.7616
   80MOL   H29432052   2.874   2.950   7.599  0.2897 -0.1222 -0.2143
   80MOL   H29532053   2.928   3.264   7.789  1.0331  1.7646 -1.3836
   80MOL   H29632054   2.857   3.113   7.751  0.7178  0.6078  0.6851
   80MOL   H29732055   3.034   3.132   7.731  0.1731 -0.8452  1.7172
   80MOL   H29832056   2.837   3.316   7.363  1.1459  0.3148 -1.4319
   80MOL   H29932057   2.711   3.181   7.188  0.7403 -1.2613 -0.4855
   80MOL   H30032058   2.474   2.783   7.205 -2.1699 -0.1588 -0.4182
   80MOL   H30132059   2.541   2.809   7.366  0.9667  0.3144 -0.7006
   80MOL   C30232060   2.415   2.966   7.309 -0.6242 -1.4305 -0.1335
   80MOL   C30332061   2.364   3.042   7.187 -0.3400  0.3371 -0.0096
   80MOL   C30432062   2.298   2.975   7.079 -0.3198 -0.0581  0.4619
   80MOL   C30532063   2.258   3.047   6.969  0.1226  0.3583 -0.5750
   80MOL   C30632064   2.262   3.187   6.964 -0.1460  0.4051 -0.6348
   80MOL   O30732065   2.211   3.261   6.863 -0.6754  0.2383 -0.0999
   80MOL   C30832066   2.196   3.187   6.740 -0.5989  0.5392  0.3395
   80MOL   C30932067   2.333   3.254   7.068 -0.2707 -1.2280 -0.5049
   80MOL   C31032068   2.391   3.179   7.177  0.1635  1.3064  0.2019
   80MOL   C31132069   2.295   2.907   7.394  0.4229  0.6389 -0.0965
   80MOL   H31232070   2.472   3.030   7.377 -2.0334  0.3373 -0.5919
   80MOL   H31332071   2.272   2.870   7.085 -0.8627  0.0781  0.5002
   80MOL   H31432072   2.222   2.989   6.884 -0.0919  0.4066 -0.5155
   80MOL   H31532073   2.285   3.135   6.705 -1.0181  0.2335 -0.2871
   80MOL   H31632074   2.171   3.261   6.663  1.5392  1.3082  0.3469
   80MOL   H31732075   2.116   3.114   6.730 -0.3644  0.4390 -0.8904
   80MOL   H31832076   2.358   3.359   7.061  1.2648 -1.6015 -1.0254
   80MOL   H31932077   2.457   3.219   7.252  0.0877 -0.8630  1.4766
   80MOL   H32032078   2.340   2.834   7.462 -1.1874 -1.2321 -0.9959
   80MOL   H32132079   2.227   2.850   7.331  1.1488  0.7907 -1.0262
   80MOL   C32232080   2.218   3.018   7.470  0.6230  0.3214 -0.3748
   80MOL   C32332081   2.160   2.966   7.597  0.2240  0.2438 -0.4377
   80MOL   C32432082   2.070   2.862   7.603 -0.0060  0.3608  0.6335
   80MOL   C32532083   2.028   2.807   7.727 -0.4648  0.0546  0.4877
   80MOL   C32632084   2.054   2.875   7.842 -0.5054  0.4657 -0.1242
   80MOL   O32732085   1.982   2.837   7.954  0.0922  0.1101 -0.0924
   80MOL   C32832086   2.012   2.895   0.041 -0.0377 -0.0045  0.4815
   80MOL   C32932087   2.153   2.980   7.839 -0.1199  0.0973 -0.2127
   80MOL   C33032088   2.195   3.026   7.717 -0.5568 -0.0567  0.3297
   80MOL   C33132089   2.103   3.083   7.377  0.0654 -0.1450  0.4978
   80MOL   H33232090   2.283   3.104   7.489 -1.0728  1.4206  0.6024
   80MOL   H33332091   2.026   2.819   7.514 -1.5704 -0.4424  1.7644
   80MOL   H33432092   1.976   2.713   7.728 -0.1874 -0.0882  2.4473
   80MOL   H33532093   1.939   2.842   0.101 -0.5622  1.7399  1.4142
   80MOL   H33632094   1.991   3.001   0.055  0.4747  0.2408 -0.5203
   80MOL   H33732095   2.113   2.868   0.071  1.0397  0.1811 -2.7859
   80MOL   H33832096   2.179   3.028   7.932 -1.1390  2.1240 -0.9609
   80MOL   H33932097   2.266   3.107   7.707 -1.9994  1.4939  2.3679
   80MOL   H34032098   2.105   3.049   7.273  0.8800  1.2616  0.0585
   80MOL   H34132099   2.003   3.049   7.404 -1.3772  2.3207 -1.4722
   80MOL   C34232100   2.106   3.241   7.370 -0.5601 -0.0937  0.4381
   80MOL   C34332101   2.115   3.308   7.511 -0.4646  0.1616 -0.1775
   80MOL   C34432102   2.205   3.413   7.539  0.0281 -0.3529  0.1494
   80MOL   C34532103   2.212   3.476   7.665 -0.2994  0.3756  0.2534
   80MOL   C34632104   2.127   3.430   7.770  0.5089 -0.3395  0.2974
   80MOL   O34732105   2.136   3.483   7.897 -0.1917 -0.4800 -0.2008
   80MOL   C34832106   2.229   3.589   7.914  0.0912  1.0879  0.0012
   80MOL   C34932107   2.040   3.327   7.742 -0.0470  0.1375  0.2189
   80MOL   C35032108   2.029   3.271   7.615  0.5269  0.5280  0.3488
   80MOL   C35132109   1.987   3.297   7.286  0.5084  0.0851 -0.4894
   80MOL   H35232110   2.195   3.247   7.307 -0.1286 -1.2184  0.9342
   80MOL   H35332111   2.265   3.441   7.453  0.8003 -1.4443  0.3126
   80MOL   H35432112   2.276   3.563   7.661  2.3543 -1.3640  2.6723
   80MOL   H35532113   2.331   3.560   7.889 -0.5706 -2.4583  1.0651
   80MOL   H35632114   2.201   3.675   7.854  1.0990 -0.6194 -3.0079
   80MOL   H35732115   2.218   3.601   8.022  0.3139 -2.5275  0.4932
   80MOL   H35832116   1.981   3.282   7.821 -1.9590  1.4382 -0.4276
   80MOL   H35932117   1.962   3.188   7.592  1.0501 -0.1781  1.3293
   80MOL   H36032118   2.016   3.263   7.187 -0.4107  0.7528 -0.9997
   80MOL   H36132119   1.895   3.247   7.318  1.2638  0.0601  1.7472
   80MOL   C36232120   1.981   3.455   7.290 -0.4377  0.1701 -0.0903
   80MOL   C36332121   1.873   3.497   7.388  0.1814  0.2084  0.2070
   80MOL   C36432122   1.735   3.460   7.371 -0.7883 -0.2023  0.1869
   80MOL   C36532123   1.633   3.513   7.456 -0.1319  0.3866  0.3860
   80MOL   C36632124   1.668   3.610   7.549 -0.4433 -0.4683 -0.2958
   80MOL   O36732125   1.558   3.669   7.608 -0.0019  0.0018  0.2695
   80MOL   C36832126   1.582   3.783   7.686  0.1401 -0.0241 -0.5968
   80MOL   C36932127   1.805   3.648   7.573  0.5816 -0.4131  0.2047
   80MOL   C37032128   1.904   3.584   7.492  0.0410  0.1569  1.0062
   80MOL   C37132129   1.967   3.512   7.148 -0.1895 -0.0958 -0.7694
   80MOL   H37232130   2.079   3.485   7.328 -1.4573  2.1662  1.0515
   80MOL   H37332131   1.705   3.393   7.291  0.5108 -1.4931  0.7572
   80MOL   H37432132   1.532   3.476   7.449 -0.0849  0.2036  0.6615
   80MOL   H37532133   1.621   3.855   7.613  1.2400 -0.0945 -0.0870
   80MOL   H37632134   1.483   3.822   7.712 -1.2204 -3.8956  0.3855
   80MOL   H37732135   1.653   3.780   7.768 -0.4342  3.0565  0.0660
   80MOL   H37832136   1.849   3.712   7.648  1.6095  0.8657 -1.4502
   80MOL   H37932137   2.009   3.606   7.499 -0.4008  2.8282 -0.0732
   80MOL   H38032138   1.891   3.450   7.102  0.0727 -1.3067  0.4031
   80MOL   H38132139   1.934   3.616   7.148  0.8198  0.2314  0.0764
   80MOL   C38232140   2.099   3.508   7.067  0.3943 -0.2205 -0.4407
   80MOL   C38332141   2.192   3.615   7.109 -0.0608 -0.1120 -0.7980
   80MOL   C38432142   2.296   3.587   7.198 -0.3097 -0.0553  0.1307
   80MOL   C38532143   2.384   3.688   7.243 -0.2690  0.9169 -0.3459
   80MOL   C38632144   2.379   3.814   7.193 -1.1008 -0.3351 -0.5382
   80MOL   O38732145   2.463   3.915   7.234 -0.1554 -0.2922  0.1188
   80MOL   C38832146   2.530   3.911   7.355  1.4255  0.2023 -0.3510
   80MOL   C38932147   2.271   3.846   7.102 -0.1721  0.0029  0.1809
   80MOL   C39032148   2.178   3.751   7.066  0.1241 -0.2355  0.8097
   80MOL   C39132149   2.070   3.520   6.920 -0.0211 -0.4914 -0.3036
   80MOL   H39232150   2.135   3.405   7.071  1.1621  0.0586  0.0126
   80MOL   H39332151   2.309   3.489   7.241  0.5070  1.0673  2.5495
   80MOL   H39432152   2.463   3.650   7.306 -0.3874 -1.2017 -1.4156
   80MOL   H39532153   2.613   3.841   7.340  1.3570  0.1383 -0.4323
   80MOL   H39632154   2.460   3.900   7.438  1.5042  0.8897 -0.1848
   80MOL   H39732155   2.587   4.002   7.377  1.1914  0.6211 -1.4629
   80MOL   H39832156   2.256   3.949   7.075 -0.3477 -0.4291 -1.4494
   80MOL   H39932157   2.096   3.781   7.003  0.9940 -1.8644 -1.1506
   80MOL   H40032158   2.166   3.516   6.868 -0.1923 -1.9622 -0.5338
   80MOL   H40132159   2.014   3.601   6.874  2.2323  0.3421 -1.6912
   80MOL   H40232160   2.009   3.433   6.898 -0.1419 -0.6627  0.6673
   81MOL     C132161   1.604   4.729   4.453 -0.4351  0.2058 -0.0036
   81MOL     C232162   1.623   4.825   4.336 -0.6713  0.6545 -0.3534
   81MOL     C332163   1.530   4.826   4.231  0.0518 -0.0214  0.7312
   81MOL     C432164   1.552   4.910   4.119  0.2822 -0.5004 -0.3721
   81MOL     C532165   1.673   4.976   4.100  0.3982  0.2705 -0.5712
   81MOL     O632166   1.680   5.048   3.986 -0.4789 -0.0454  0.5528
   81MOL     C732167   1.801   5.111   3.962 -0.5274  0.3955  0.1791
   81MOL     C832168   1.768   4.968   4.206  0.5223 -0.7327  0.0130
   81MOL     C932169   1.744   4.892   4.321  0.1625 -0.1621  0.3534
   81MOL    C1032170   1.690   4.603   4.448  0.6328 -0.4125  0.3040
   81MOL    H1132171   1.500   4.699   4.461 -0.4840  0.2146 -0.5746
   81MOL    H1232172   1.442   4.764   4.227  0.7423 -0.9375 -0.3795
   81MOL    H1332173   1.477   4.926   4.042  1.8084  0.4804 -1.6688
   81MOL    H1432174   1.811   5.193   4.033 -2.9020  0.6790  0.2347
   81MOL    H1532175   1.887   5.044   3.954 -0.4593  0.5749 -0.5815
   81MOL    H1632176   1.791   5.155   3.863  1.8379 -2.0533 -1.2135
   81MOL    H1732177   1.864   5.018   4.204  0.0339  0.1874 -0.3158
   81MOL    H1832178   1.821   4.892   4.396  1.6731 -2.3698 -1.1113
   81MOL    H1932179   1.660   4.537   4.367  0.9342 -1.6467  1.1978
   81MOL    H2032180   1.788   4.642   4.421 -0.1120 -0.8710 -3.2900
   81MOL    H2132181   1.629   4.792   4.539 -0.4108 -0.7058  0.6680
   81MOL    C2232182   1.700   4.532   4.579  0.2393 -0.6824  0.0454
   81MOL    C2332183   1.563   4.479   4.617  0.1439 -0.1017 -0.1761
   81MOL    C2432184   1.483   4.552   4.710 -0.0234 -0.5753  0.2629
   81MOL    C2532185   1.349   4.532   4.732 -0.2561 -0.0649  0.8654
   81MOL    C2632186   1.289   4.417   4.666 -0.2516 -0.2866  0.2163
   81MOL    O2732187   1.158   4.371   4.690 -0.2142  0.5704 -0.2698
   81MOL    C2832188   1.066   4.459   4.762 -0.2472  0.1808  0.2938
   81MOL    C2932189   1.362   4.340   4.576 -0.2579  0.1023  0.2279
   81MOL    C3032190   1.500   4.369   4.547 -0.8459 -0.0852  0.3560
   81MOL    C3132191   1.804   4.420   4.574  0.5660 -0.7479  0.0877
   81MOL    H3232192   1.731   4.604   4.655  0.1581 -1.6241  0.9952
   81MOL    H3332193   1.534   4.631   4.765  2.2207 -1.2632 -0.7527
   81MOL    H3432194   1.291   4.586   4.804 -0.8901  0.2973  0.0929
   81MOL    H3532195   1.066   4.431   4.868 -1.5098 -0.1942  0.1963
   81MOL    H3632196   0.967   4.449   4.720 -0.9859 -1.3033  2.2802
   81MOL    H3732197   1.075   4.566   4.747  0.6794  0.0795  0.0584
   81MOL    H3832198   1.308   4.260   4.527  0.2753 -0.8294  1.1331
   81MOL    H3932199   1.556   4.318   4.470 -0.9363 -0.3782  0.4859
   81MOL    H4032200   1.791   4.346   4.653 -0.3732 -1.4985 -0.7430
   81MOL    H4132201   1.788   4.353   4.489  1.4187  1.8837 -2.2252
   81MOL    C4232202   1.953   4.455   4.570 -0.1192 -0.2012  0.8774
   81MOL    C4332203   2.044   4.331   4.552 -0.5144 -0.4920 -0.6817
   81MOL    C4432204   2.114   4.308   4.430 -0.1340  0.3986  0.4889
   81MOL    C4532205   2.204   4.196   4.420  0.4046 -0.2632 -0.6851
   81MOL    C4632206   2.222   4.110   4.530 -0.1915 -0.4868  0.3990
   81MOL    O4732207   2.304   4.006   4.500  0.4323 -0.0393  0.2353
   81MOL    C4832208   2.293   3.893   4.579 -0.0794 -0.0446 -0.6435
   81MOL    C4932209   2.151   4.129   4.649  0.4006 -0.4419 -0.3192
   81MOL    C5032210   2.062   4.238   4.660 -0.8621 -0.3023 -0.0710
   81MOL    C5132211   1.997   4.540   4.685  0.2385 -0.1346  0.7507
   81MOL    H5232212   1.970   4.516   4.481 -1.5435  1.3544  1.6465
   81MOL    H5332213   2.092   4.375   4.348 -0.8783 -1.6459 -1.0413
   81MOL    H5432214   2.264   4.181   4.331 -1.2856 -3.0314 -1.4341
   81MOL    H5532215   2.318   3.799   4.530  1.4968  1.0214 -1.8920
   81MOL    H5632216   2.337   3.899   4.679 -0.4009 -2.2304 -0.3348
   81MOL    H5732217   2.185   3.879   4.592  0.2945  0.6684  4.3592
   81MOL    H5832218   2.171   4.066   4.735  1.5949 -1.3460 -1.2439
   81MOL    H5932219   2.004   4.246   4.750 -0.6543  0.4421 -0.0023
   81MOL    H6032220   1.974   4.488   4.778  0.7192  2.9203  2.6442
   81MOL    H6132221   1.938   4.629   4.702  0.0003 -0.4052  1.3424
   81MOL    C6232222   2.145   4.584   4.690  0.4316 -0.1529  0.0784
   81MOL    C6332223   2.168   4.648   4.830  0.4372 -0.6153  0.2658
   81MOL    C6432224   2.143   4.786   4.852  0.1389 -0.0192  0.0746
   81MOL    C6532225   2.158   4.828   4.984 -0.5000  0.8747 -0.2504
   81MOL    C6632226   2.195   4.746   5.088 -0.1666  0.1028 -0.7683
   81MOL    O6732227   2.217   4.793   5.220  0.1794  0.2527 -0.2525
   81MOL    C6832228   2.169   4.923   5.259 -0.7899 -0.9512  0.5937
   81MOL    C6932229   2.224   4.611   5.065 -0.0465  0.1009 -0.1753
   81MOL    C7032230   2.204   4.559   4.933 -0.4559 -0.6115 -0.0770
   81MOL    C7132231   2.196   4.672   4.568  0.1899  1.0086 -0.2958
   81MOL    H7232232   2.199   4.490   4.694  1.1699  0.2275 -0.8816
   81MOL    H7332233   2.112   4.854   4.773 -1.9696 -0.9984  0.0355
   81MOL    H7432234   2.125   4.930   4.992 -2.6045  0.3868 -2.1242
   81MOL    H7532235   2.233   5.009   5.238  0.3093 -2.4791 -2.6521
   81MOL    H7632236   2.154   4.919   5.366  0.5504  2.9382  1.0152
   81MOL    H7732237   2.073   4.951   5.215  0.1885  1.6934  0.0113
   81MOL    H7832238   2.252   4.547   5.148 -0.7916 -0.6136 -0.4615
   81MOL    H7932239   2.204   4.451   4.926 -0.9676 -0.7774  2.1088
   81MOL    H8032240   2.170   4.639   4.468 -0.4688  0.8456 -0.0809
   81MOL    H8132241   2.142   4.767   4.576 -1.2009  0.1829  0.2718
   81MOL    C8232242   2.341   4.700   4.582  0.3839  0.6188 -0.4353
   81MOL    C8332243   2.432   4.579   4.581 -0.3408 -0.1883 -0.6652
   81MOL    C8432244   2.483   4.520   4.703 -0.4230  0.7156 -0.5646
   81MOL    C8532245   2.559   4.400   4.701  0.0270 -0.8533 -0.9272
   81MOL    C8632246   2.581   4.336   4.574  0.3152 -0.9669 -0.3459
   81MOL    O8732247   2.655   4.219   4.567  0.5927 -1.0963  0.1002
   81MOL    C8832248   2.708   4.162   4.689  0.2820 -0.1734  0.3136
   81MOL    C8932249   2.522   4.390   4.459  0.3672  0.2352  0.0092
   81MOL    C9032250   2.449   4.511   4.462 -0.1954 -0.5486 -0.3991
   81MOL    C9132251   2.373   4.818   4.485 -0.0108  0.7025 -0.2718
   81MOL    H9232252   2.348   4.737   4.685 -0.6174  2.8086 -1.1192
   81MOL    H9332253   2.459   4.554   4.803  0.5419 -0.9164  0.2338
   81MOL    H9432254   2.589   4.356   4.795  0.3399  0.1971 -0.5282
   81MOL    H9532255   2.642   4.118   4.764  0.3109  2.8137  2.1921
   81MOL    H9632256   2.784   4.228   4.731  0.6724  0.4214 -1.2843
   81MOL    H9732257   2.760   4.074   4.652 -3.0849 -1.6099 -1.1267
   81MOL    H9832258   2.540   4.337   4.366  0.2734 -0.1641  0.2160
   81MOL    H9932259   2.389   4.529   4.373 -1.0757  2.1435  0.7094
   81MOL   H10032260   2.409   4.774   4.392 -0.2677 -0.9667  0.3999
   81MOL   H10132261   2.284   4.866   4.444 -0.6350 -1.2464 -1.2726
   81MOL   C10232262   2.477   4.913   4.549  0.1133 -0.5885  0.4294
   81MOL   C10332263   2.556   4.975   4.435 -1.5264 -0.8012  0.1968
   81MOL   C10432264   2.698   4.964   4.429 -0.1026  0.7729 -0.1057
   81MOL   C10532265   2.761   5.027   4.327 -0.2893  0.0363  0.2281
   81MOL   C10632266   2.697   5.100   4.227  0.3032 -0.1216 -0.0539
   81MOL   O10732267   2.775   5.143   4.128 -0.1550 -0.5631 -0.3493
   81MOL   C10832268   2.712   5.243   4.041 -0.2090 -0.0366 -0.0595
   81MOL   C10932269   2.558   5.107   4.226  0.0550  0.2844  0.0259
   81MOL   C11032270   2.494   5.043   4.334 -0.0914 -0.0542 -0.0791
   81MOL   C11132271   2.409   5.029   4.627  0.3800 -0.4042  0.0040
   81MOL   H11232272   2.543   4.847   4.604  0.6284 -1.2986 -1.0292
   81MOL   H11332273   2.746   4.912   4.511 -0.6333  0.5482  0.0708
   81MOL   H11432274   2.869   5.021   4.318 -0.2154  1.6418 -0.0495
   81MOL   H11532275   2.663   5.321   4.099 -2.6076 -0.9012 -0.8453
   81MOL   H11632276   2.782   5.296   3.975 -0.3048  0.9558  0.6260
   81MOL   H11732277   2.642   5.193   3.974 -2.1578  1.9623  0.4029
   81MOL   H11832278   2.511   5.175   4.157 -2.1079 -1.2181 -0.0643
   81MOL   H11932279   2.386   5.042   4.323 -0.0027  0.9208 -1.0933
   81MOL   H12032280   2.355   5.100   4.565 -2.3920 -2.4795 -0.0203
   81MOL   H12132281   2.343   4.983   4.700 -1.6193  2.2702 -0.0399
   81MOL   C12232282   2.509   5.114   4.707 -0.4850 -0.1409 -0.7122
   81MOL   C12332283   2.567   5.039   4.827  0.3861 -0.6467 -1.1605
   81MOL   C12432284   2.480   4.987   4.930  0.1056 -0.6229  0.1888
   81MOL   C12532285   2.526   4.917   5.041 -0.2672  0.2096 -1.2998
   81MOL   C12632286   2.665   4.904   5.053 -0.0220 -0.3287 -0.7708
   81MOL   O12732287   2.711   4.833   5.161 -0.2072 -0.4412  0.4183
   81MOL   C12832288   2.838   4.860   5.213  0.6179 -0.5791  0.3054
   81MOL   C12932289   2.754   4.954   4.958  0.3662  0.1797 -0.3293
   81MOL   C13032290   2.704   5.017   4.841 -0.0370 -0.0031  0.1346
   81MOL   C13132291   2.456   5.257   4.746 -0.8550  0.3782 -0.7944
   81MOL   H13232292   2.596   5.127   4.643  0.4004 -0.0829  0.5029
   81MOL   H13332293   2.374   5.005   4.915  0.1222 -0.5176  0.2009
   81MOL   H13432294   2.455   4.885   5.116  0.1605  0.7429 -0.6538
   81MOL   H13532295   2.860   4.966   5.198  1.2075 -0.7671 -0.2034
   81MOL   H13632296   2.848   4.830   5.317 -0.9497  1.7251  1.1613
   81MOL   H13732297   2.919   4.812   5.158  2.5313  1.2805  1.3905
   81MOL   H13832298   2.860   4.937   4.965  0.2434 -0.4764  0.0139
   81MOL   H13932299   2.775   5.041   4.763 -1.3074 -0.0777 -1.0728
   81MOL   H14032300   2.538   5.299   4.804 -1.6682  1.4421 -0.3903
   81MOL   H14132301   2.363   5.259   4.802  0.5863 -2.4701  1.7826
   81MOL   C14232302   2.449   5.358   4.624 -0.7283  0.3280 -0.8699
   81MOL   C14332303   2.317   5.363   4.552  0.4172 -1.2280 -0.3820
   81MOL   C14432304   2.307   5.357   4.415  0.1874  0.0034  0.2531
   81MOL   C14532305   2.183   5.362   4.351 -0.5137  0.4644 -0.1161
   81MOL   C14632306   2.066   5.395   4.420  0.1800  0.2551 -0.5081
   81MOL   O14732307   1.936   5.410   4.365 -0.5747 -0.4031 -0.2914
   81MOL   C14832308   1.924   5.384   4.228 -0.0573 -0.5944 -0.1567
   81MOL   C14932309   2.075   5.412   4.555 -0.3590  0.6104  0.0314
   81MOL   C15032310   2.197   5.398   4.624  0.1753  0.1869  0.1333
   81MOL   C15132311   2.480   5.504   4.660  0.0971  0.5945 -0.2083
   81MOL   H15232312   2.528   5.335   4.553 -2.3689 -1.1460 -2.2620
   81MOL   H15332313   2.386   5.343   4.342 -0.6261  1.9526 -1.0401
   81MOL   H15432314   2.173   5.338   4.246  1.5385 -1.5762  0.1131
   81MOL   H15532315   1.988   5.451   4.171  1.4892  0.5288  2.8216
   81MOL   H15632316   1.955   5.280   4.217  1.0621 -0.2725 -0.1310
   81MOL   H15732317   1.822   5.395   4.191  0.0637 -0.1655 -0.3674
   81MOL   H15832318   1.988   5.426   4.616 -0.6764 -0.7935 -0.0795
   81MOL   H15932319   2.199   5.425   4.728 -0.6310  1.1784 -0.0990
   81MOL   H16032320   2.583   5.507   4.697 -0.3242 -0.5516  1.0822
   81MOL   H16132321   2.413   5.537   4.739 -0.1643  0.3409 -0.3242
   81MOL   C16232322   2.467   5.620   4.558 -0.1983 -0.1505  0.3848
   81MOL   C16332323   2.555   5.603   4.435 -1.0696  0.2249  0.4881
   81MOL   C16432324   2.693   5.577   4.444 -0.1279 -0.1698  0.1016
   81MOL   C16532325   2.765   5.594   4.327 -0.4353 -0.3501 -0.4517
   81MOL   C16632326   2.700   5.607   4.199  0.1460 -0.3253 -0.1314
   81MOL   O16732327   2.765   5.612   4.076  0.3432 -0.2907  0.0394
   81MOL   C16832328   2.907   5.600   4.073 -0.2100 -0.4575 -0.0344
   81MOL   C16932329   2.562   5.625   4.194 -0.3857 -0.0375  0.1274
   81MOL   C17032330   2.486   5.618   4.311 -0.4356 -0.5788  0.6528
   81MOL   C17132331   2.511   5.751   4.630 -0.1001  0.0292  1.0345
   81MOL   H17232332   2.360   5.615   4.535 -0.2937  1.2415  0.4589
   81MOL   H17332333   2.735   5.566   4.543  1.4163  1.5713 -0.3410
   81MOL   H17432334   2.871   5.579   4.343 -0.1528 -0.4171 -2.2783
   81MOL   H17532335   2.930   5.494   4.068 -0.7019 -0.6011  0.6644
   81MOL   H17632336   2.950   5.649   4.161 -2.1441 -0.3673  0.8812
   81MOL   H17732337   2.949   5.658   3.991  0.8186  0.2117  0.9374
   81MOL   H17832338   2.513   5.646   4.100  0.6437 -2.1921 -0.9366
   81MOL   H17932339   2.379   5.630   4.307 -0.2194  0.7515 -2.7522
   81MOL   H18032340   2.618   5.735   4.638 -0.2346 -1.5705 -0.1792
   81MOL   H18132341   2.468   5.750   4.730 -2.0745  1.0888  0.2348
   81MOL   C18232342   2.479   5.889   4.567  0.0611  0.5595  0.8309
   81MOL   C18332343   2.582   5.994   4.613  0.2216  0.5431 -0.0486
   81MOL   C18432344   2.696   6.023   4.541 -0.3087  0.4120  0.2924
   81MOL   C18532345   2.763   6.143   4.557 -0.2484  0.1624  0.5698
   81MOL   C18632346   2.724   6.229   4.663  0.2003  0.4554  0.3608
   81MOL   O18732347   2.768   6.359   4.669 -0.1057 -0.4143  0.0749
   81MOL   C18832348   2.730   6.454   4.768 -0.0810  0.5839  0.1038
   81MOL   C18932349   2.618   6.189   4.740 -0.5089  0.1104  0.0415
   81MOL   C19032350   2.545   6.077   4.718  0.4182  0.4708 -0.1504
   81MOL   C19132351   2.333   5.936   4.568  0.3210 -0.2967 -0.4701
   81MOL   H19232352   2.497   5.875   4.460  1.4797  0.0572  1.1119
   81MOL   H19332353   2.714   5.966   4.451  1.2914  1.2300  0.0860
   81MOL   H19432354   2.836   6.180   4.487  0.7355 -1.0505  0.9199
   81MOL   H19532355   2.776   6.552   4.754  0.1131  0.6477  1.1288
   81MOL   H19632356   2.771   6.417   4.862  1.5581 -0.1410 -0.8917
   81MOL   H19732357   2.621   6.460   4.775 -0.0401  1.3181  0.1423
   81MOL   H19832358   2.592   6.251   4.825 -1.3459 -1.4354  0.9412
   81MOL   H19932359   2.466   6.057   4.788 -0.8620  0.5172 -1.5657
   81MOL   H20032360   2.278   5.864   4.507  0.3257 -0.4203 -0.3276
   81MOL   H20132361   2.285   5.946   4.665  0.7941 -4.6346  0.2869
   81MOL   C20232362   2.311   6.068   4.495  0.6003 -0.2475 -0.2915
   81MOL   C20332363   2.150   6.084   4.488 -0.1024  0.3102 -0.1298
   81MOL   C20432364   2.080   6.143   4.593 -0.0110  0.2539  0.1733
   81MOL   C20532365   1.937   6.151   4.593 -0.4469 -0.5179 -0.4500
   81MOL   C20632366   1.869   6.097   4.480 -1.2213 -0.1863  0.3691
   81MOL   O20732367   1.732   6.091   4.462  0.1356 -0.3176 -0.6778
   81MOL   C20832368   1.651   6.180   4.535  0.1522 -0.2654 -0.4861
   81MOL   C20932369   1.947   6.031   4.376  0.0751  0.1269 -0.1744
   81MOL   C21032370   2.083   6.016   4.386 -0.0266  0.4251  0.0603
   81MOL   C21132371   2.374   6.083   4.360 -0.2109 -0.1005 -0.1350
   81MOL   H21232372   2.345   6.149   4.559  2.1936 -1.2304  0.1207
   81MOL   H21332373   2.138   6.189   4.672  0.2206 -0.5440  0.4766
   81MOL   H21432374   1.886   6.199   4.675  1.7534  2.0478 -0.4909
   81MOL   H21532375   1.696   6.277   4.555  1.0010 -0.6749 -0.4035
   81MOL   H21632376   1.567   6.198   4.467 -0.7044  2.9431  1.3187
   81MOL   H21732377   1.604   6.141   4.626  1.2975  2.0778  1.1547
   81MOL   H21832378   1.889   5.978   4.302  0.5833 -0.7181  0.0262
   81MOL   H21932379   2.121   5.956   4.304 -0.6497 -0.2536  0.2636
   81MOL   H22032380   2.353   5.990   4.307  0.4045 -0.3328  0.0319
   81MOL   H22132381   2.482   6.088   4.370 -0.3246 -0.1789  1.2835
   81MOL   C22232382   2.327   6.190   4.263  0.4065  0.2520  0.4680
   81MOL   C22332383   2.311   6.321   4.342  0.2900 -0.5745 -0.5722
   81MOL   C22432384   2.193   6.396   4.341 -0.2276 -0.0655  0.5504
   81MOL   C22532385   2.191   6.515   4.414 -0.4504 -0.2617 -0.3373
   81MOL   C22632386   2.295   6.563   4.493 -0.1754  0.6395 -0.0442
   81MOL   O22732387   2.276   6.689   4.551 -0.2407 -0.5133 -0.3848
   81MOL   C22832388   2.364   6.724   4.650  0.1731 -0.5707 -0.4894
   81MOL   C22932389   2.410   6.487   4.501  0.0536 -0.1201  0.6430
   81MOL   C23032390   2.420   6.369   4.426  0.3779  0.5122 -0.6607
   81MOL   C23132391   2.406   6.201   4.129  0.2260  0.8113 -0.3652
   81MOL   H23232392   2.222   6.175   4.238  0.9228 -2.1802 -0.3080
   81MOL   H23332393   2.104   6.358   4.293  1.3392 -3.4703  0.1635
   81MOL   H23432394   2.094   6.559   4.431  0.2280  0.3577  2.1350
   81MOL   H23532395   2.465   6.748   4.616  0.0580  0.3875 -0.1608
   81MOL   H23632396   2.328   6.818   4.692  2.5256 -1.3865  3.5689
   81MOL   H23732397   2.375   6.653   4.731 -1.0967 -1.5621 -1.1714
   81MOL   H23832398   2.495   6.522   4.557 -0.2861  2.5120 -0.3916
   81MOL   H23932399   2.509   6.311   4.442 -0.2882  0.1624  2.0105
   81MOL   H24032400   2.506   6.240   4.153  0.8875  1.1493 -3.4142
   81MOL   H24132401   2.422   6.107   4.078 -2.0785  1.0046 -1.4954
   81MOL   C24232402   2.344   6.285   4.021 -0.0431 -0.2298 -0.7138
   81MOL   C24332403   2.450   6.360   3.934 -0.4879 -0.4974  0.5619
   81MOL   C24432404   2.553   6.295   3.867  0.0849 -0.5180 -0.0769
   81MOL   C24532405   2.651   6.373   3.797  0.0704  0.1539  0.0493
   81MOL   C24632406   2.642   6.512   3.786  0.4236 -0.2459  0.3261
   81MOL   O24732407   2.725   6.571   3.696 -0.0188  0.0950  1.1866
   81MOL   C24832408   2.673   6.686   3.626  0.1506  0.2518 -0.0317
   81MOL   C24932409   2.531   6.575   3.852  0.0623  0.0743 -0.0232
   81MOL   C25032410   2.437   6.498   3.924  0.1685 -0.5965  0.4258
   81MOL   C25132411   2.245   6.211   3.924 -0.5888 -0.0099 -0.6263
   81MOL   H25232412   2.282   6.363   4.066  0.0410 -0.8233  0.4558
   81MOL   H25332413   2.572   6.190   3.884 -0.9245 -0.6180  0.4194
   81MOL   H25432414   2.740   6.325   3.758 -0.1778 -0.5533  0.3412
   81MOL   H25532415   2.592   6.644   3.566 -0.2312 -1.6794  1.7525
   81MOL   H25632416   2.647   6.774   3.686  1.9207 -0.1640  1.4126
   81MOL   H25732417   2.740   6.724   3.549 -1.7729 -1.6959 -2.7611
   81MOL   H25832418   2.511   6.681   3.848 -0.6580 -0.0719 -0.4096
   81MOL   H25932419   2.354   6.549   3.970  0.2637 -0.1371  0.0919
   81MOL   H26032420   2.184   6.139   3.978  0.5805 -0.8101 -0.3633
   81MOL   H26132421   2.309   6.153   3.858  0.9846  0.1730  0.7117
   81MOL   C26232422   2.139   6.297   3.847  0.0578 -0.3614 -0.1559
   81MOL   C26332423   2.052   6.377   3.937 -0.1707 -0.1915  0.1649
   81MOL   C26432424   1.968   6.302   4.024  0.0873  0.2106 -0.3498
   81MOL   C26532425   1.890   6.363   4.125 -0.7652  0.8757  0.4865
   81MOL   C26632426   1.893   6.499   4.136 -0.5183 -0.5978  0.0826
   81MOL   O26732427   1.807   6.560   4.224  0.5457 -0.0941  0.3341
   81MOL   C26832428   1.788   6.502   4.354  0.2662 -1.3087  0.3191
   81MOL   C26932429   1.956   6.577   4.038 -0.7796  0.7961  0.3814
   81MOL   C27032430   2.044   6.517   3.940  0.2051 -1.0044 -0.1625
   81MOL   C27132431   2.057   6.207   3.748 -0.1088 -0.5257  0.4043
   81MOL   H27232432   2.204   6.359   3.786 -0.4740 -1.6579 -2.1119
   81MOL   H27332433   1.969   6.194   4.034  2.6926  0.0614 -1.9500
   81MOL   H27432434   1.825   6.307   4.191 -1.6533 -1.6615 -2.4445
   81MOL   H27532435   1.750   6.566   4.434 -0.0458 -0.1819 -0.7160
   81MOL   H27632436   1.879   6.465   4.400  0.2743 -1.3717  0.2517
   81MOL   H27732437   1.730   6.409   4.349 -1.5592 -0.1493 -0.7320
   81MOL   H27832438   1.942   6.684   4.032 -4.3391  0.3910  0.7043
   81MOL   H27932439   2.088   6.569   3.856  0.1424 -1.1400 -0.2786
   81MOL   H28032440   1.981   6.162   3.812 -0.0892  0.0776  0.8641
   81MOL   H28132441   2.006   6.272   3.677  1.8708 -1.0125 -1.4872
   81MOL   C28232442   2.131   6.101   3.665 -0.0529  0.3419 -0.2221
   81MOL   C28332443   2.088   6.096   3.520  0.3127 -0.3997 -0.0101
   81MOL   C28432444   1.954   6.062   3.487  0.5675  0.5738  0.1343
   81MOL   C28532445   1.920   6.050   3.349  0.2029 -1.4614 -0.1583
   81MOL   C28632446   2.008   6.088   3.241 -0.1250  0.0972 -0.2025
   81MOL   O28732447   1.978   6.091   3.103  0.2546 -0.0978 -0.3951
   81MOL   C28832448   2.087   6.093   3.003  0.3979 -0.6911  0.1965
   81MOL   C28932449   2.149   6.112   3.281  0.7779  0.1797 -0.3963
   81MOL   C29032450   2.180   6.120   3.416 -0.0880  0.6055 -0.4157
   81MOL   C29132451   2.134   5.960   3.724  0.1830 -0.0466 -0.3270
   81MOL   H29232452   2.234   6.136   3.665  0.3071 -0.7003 -0.0364
   81MOL   H29332453   1.878   6.043   3.561  0.6858 -0.4203 -0.0042
   81MOL   H29432454   1.825   6.008   3.319  0.2775 -1.3493 -0.5574
   81MOL   H29532455   2.153   6.179   3.017 -0.0652 -0.6235  2.0188
   81MOL   H29632456   2.143   5.999   3.003 -0.0771 -0.9789 -0.3686
   81MOL   H29732457   2.040   6.103   2.905 -1.0286  1.1487  1.0536
   81MOL   H29832458   2.228   6.124   3.208  0.6117  1.7918 -0.3346
   81MOL   H29932459   2.281   6.138   3.450  0.1283  1.1738 -1.3183
   81MOL   H30032460   2.137   5.960   3.833 -2.2581 -0.0933 -0.2307
   81MOL   H30132461   2.040   5.912   3.699 -1.3470  1.5843  2.0455
   81MOL   C30232462   2.249   5.868   3.665 -0.5019 -0.0839  0.2208
   81MOL   C30332463   2.388   5.896   3.720 -0.2877  0.7221  0.5789
   81MOL   C30432464   2.498   5.914   3.631 -0.3417  0.0049 -0.0183
   81MOL   C30532465   2.631   5.924   3.680 -0.6985 -0.3746  1.1389
   81MOL   C30632466   2.659   5.902   3.815  0.4143  0.1808 -0.6299
   81MOL   O30732467   2.794   5.898   3.841  0.1051 -0.0882 -0.3580
   81MOL   C30832468   2.828   5.956   3.966  0.5812 -0.2974 -0.1480
   81MOL   C30932469   2.552   5.886   3.907  0.7948  0.0992  0.5672
   81MOL   C31032470   2.415   5.883   3.861 -0.7324  0.5448  0.7758
   81MOL   C31132471   2.217   5.715   3.661 -0.0390  0.3581 -0.2817
   81MOL   H31232472   2.250   5.882   3.557  0.4170  1.2484  0.3795
   81MOL   H31332473   2.487   5.923   3.524  0.4074  3.0587  0.1132
   81MOL   H31432474   2.718   5.937   3.619 -1.0827 -0.5075  0.5562
   81MOL   H31532475   2.935   5.971   3.981  0.4537  1.9502 -1.2050
   81MOL   H31632476   2.780   5.897   4.045 -0.8137 -0.8128 -1.3662
   81MOL   H31732477   2.787   6.056   3.986  2.1914  0.8718 -2.4867
   81MOL   H31832478   2.564   5.876   4.014 -1.3386  0.3704  0.8507
   81MOL   H31932479   2.333   5.864   3.928 -2.1204 -0.8805 -1.2732
   81MOL   H32032480   2.112   5.691   3.642 -0.0014  0.3767 -0.5146
   81MOL   H32132481   2.229   5.675   3.762  0.5892  3.8968  1.1467
   81MOL   C32232482   2.305   5.625   3.567  0.1644  0.9831 -0.1806
   81MOL   C32332483   2.258   5.644   3.419  0.5100  0.4683  0.0116
   81MOL   C32432484   2.320   5.739   3.335  0.5300 -0.0832  0.1177
   81MOL   C32532485   2.263   5.778   3.209 -0.0293  0.6522  0.3049
   81MOL   C32632486   2.137   5.726   3.174 -0.6134 -0.2217  0.0670
   81MOL   O32732487   2.087   5.764   3.052 -0.3121 -0.3361  0.0883
   81MOL   C32832488   1.947   5.795   3.056  0.7123  0.1537  0.0123
   81MOL   C32932489   2.082   5.626   3.254  0.9904  0.0845  0.2886
   81MOL   C33032490   2.132   5.588   3.382 -0.9242 -0.5747  0.7975
   81MOL   C33132491   2.300   5.475   3.602 -0.1582 -0.5747 -0.9117
   81MOL   H33232492   2.408   5.655   3.584 -0.5905  1.9571  2.9263
   81MOL   H33332493   2.417   5.778   3.363  0.6503 -1.2286  1.3424
   81MOL   H33432494   2.318   5.844   3.143 -2.6896  0.5497 -2.1209
   81MOL   H33532495   1.878   5.712   3.049  1.0094 -0.1555  0.6419
   81MOL   H33632496   1.938   5.847   2.961  1.2339  1.6726  0.7607
   81MOL   H33732497   1.925   5.862   3.140  0.7116  0.4373 -0.2155
   81MOL   H33832498   1.986   5.581   3.235  0.9904  0.4068 -0.5208
   81MOL   H33932499   2.078   5.519   3.445 -1.3678 -0.5617  0.4333
   81MOL   H34032500   2.197   5.451   3.628  0.4955 -3.5689 -0.9273
   81MOL   H34132501   2.319   5.410   3.516 -1.9764 -0.7512 -1.1844
   81MOL   C34232502   2.388   5.426   3.715 -0.2258 -0.8920  0.1758
   81MOL   C34332503   2.540   5.428   3.690 -0.4393  0.0274 -0.6007
   81MOL   C34432504   2.595   5.343   3.592  0.2005  0.0105 -0.3801
   81MOL   C34532505   2.737   5.347   3.575  0.2892  0.9560 -0.4917
   81MOL   C34632506   2.819   5.442   3.648 -0.1042  0.9661 -0.5088
   81MOL   O34732507   2.952   5.467   3.629 -0.3732 -0.3990  0.4504
   81MOL   C34832508   3.030   5.456   3.746 -0.4530 -0.2516  0.3478
   81MOL   C34932509   2.754   5.537   3.721 -0.3581  0.5188  0.0477
   81MOL   C35032510   2.625   5.529   3.748  0.8259 -0.2576  0.0931
   81MOL   C35132511   2.349   5.289   3.771 -0.2979  0.9449  0.2213
   81MOL   H35232512   2.368   5.496   3.797 -0.6277 -0.4515 -0.2965
   81MOL   H35332513   2.539   5.262   3.549  0.1090 -0.6774  1.0257
   81MOL   H35432514   2.788   5.276   3.511  4.2601 -0.6308  4.1317
   81MOL   H35532515   3.128   5.504   3.746 -0.0564 -1.0227 -1.2543
   81MOL   H35632516   2.971   5.486   3.832 -2.2873  1.7158 -1.5705
   81MOL   H35732517   3.059   5.351   3.756  2.4227  0.4208 -0.4027
   81MOL   H35832518   2.812   5.622   3.753 -0.5929  1.1998 -1.2924
   81MOL   H35932519   2.570   5.599   3.808 -0.8682 -1.1549 -0.3750
   81MOL   H36032520   2.368   5.216   3.692  0.2917 -0.2710  1.4727
   81MOL   H36132521   2.425   5.249   3.838  0.1660  2.0184  0.3439
   81MOL   C36232522   2.215   5.272   3.850  0.3775 -0.1881 -0.4722
   81MOL   C36332523   2.159   5.401   3.913  0.8595 -1.0521  0.4181
   81MOL   C36432524   2.241   5.474   3.997  0.2746 -0.6131 -0.1341
   81MOL   C36532525   2.196   5.601   4.043  0.1820 -0.3695 -1.1595
   81MOL   C36632526   2.077   5.653   3.998  0.1143  0.1224  0.3718
   81MOL   O36732527   2.044   5.776   4.050  0.7639 -0.4486 -0.4769
   81MOL   C36832528   1.910   5.820   4.022 -0.4023  0.0944  0.4627
   81MOL   C36932529   1.990   5.580   3.913 -1.1099 -0.2506 -0.4945
   81MOL   C37032530   2.035   5.452   3.872 -0.3456  0.2844  0.7554
   81MOL   C37132531   2.233   5.165   3.965 -0.2657  0.3734  0.3491
   81MOL   H37232532   2.140   5.240   3.778  1.1429 -0.7125 -1.0493
   81MOL   H37332533   2.339   5.437   4.022  0.7654  0.8743  0.1267
   81MOL   H37432534   2.261   5.657   4.108 -0.3873 -0.5611 -0.4198
   81MOL   H37532535   1.891   5.907   4.084  0.9053 -0.2873  1.4161
   81MOL   H37632536   1.900   5.843   3.916 -0.3060  1.0494  0.6558
   81MOL   H37732537   1.838   5.745   4.054 -1.2309  0.0216 -1.5214
   81MOL   H37832538   1.910   5.620   3.852 -1.7203 -1.0354 -0.2264
   81MOL   H37932539   1.978   5.399   3.797  0.4790  0.8923 -0.3196
   81MOL   H38032540   2.315   5.196   4.030  0.4409  2.0300 -1.2940
   81MOL   H38132541   2.138   5.161   4.018 -0.0424 -2.8188  0.6312
   81MOL   C38232542   2.255   5.017   3.914  0.1757  0.0334 -0.3324
   81MOL   C38332543   2.190   4.914   4.006 -0.5787 -0.2969 -0.1614
   81MOL   C38432544   2.172   4.929   4.145  0.0286  0.7099 -0.3777
   81MOL   C38532545   2.092   4.841   4.218  0.3704 -0.9274  0.4898
   81MOL   C38632546   2.038   4.730   4.156 -0.0682  0.0844  0.7601
   81MOL   O38732547   1.970   4.645   4.243 -0.4970 -0.3143  0.4929
   81MOL   C38832548   1.919   4.533   4.174  0.3833 -0.2713 -0.1068
   81MOL   C38932549   2.064   4.706   4.015 -0.0612  0.3430 -0.0121
   81MOL   C39032550   2.137   4.799   3.951 -0.3615 -0.0462  0.2369
   81MOL   C39132551   2.400   4.969   3.881  0.3562  0.5788  0.1833
   81MOL   H39232552   2.206   5.005   3.818 -1.3656  1.9987  0.1787
   81MOL   H39332553   2.209   5.017   4.194  0.1439  0.8278 -0.6788
   81MOL   H39432554   2.063   4.867   4.319 -0.5493 -0.7751  0.1938
   81MOL   H39532555   2.010   4.484   4.138  0.2579  1.0089 -2.2312
   81MOL   H39632556   1.849   4.559   4.095 -1.9467 -0.5494  1.8241
   81MOL   H39732557   1.870   4.476   4.252  0.5694  0.4163  0.5089
   81MOL   H39832558   2.023   4.621   3.963  0.2767  0.7477 -0.9586
   81MOL   H39932559   2.149   4.780   3.845  2.3937 -0.7145  0.6118
   81MOL   H40032560   2.461   4.977   3.971  1.2248  0.6860 -0.4189
   81MOL   H40132561   2.447   5.027   3.802  0.9428 -2.3235 -1.6612
   81MOL   H40232562   2.401   4.865   3.849 -0.4715  0.5893  0.1071
   82MOL     C132563   1.491   2.981   2.636  0.3539 -0.7743 -0.3160
   82MOL     C232564   1.589   2.864   2.648  0.9334  0.2250 -0.3589
   82MOL     C332565   1.600   2.761   2.549 -0.4465 -0.0937 -0.0961
   82MOL     C432566   1.686   2.650   2.573 -0.6885  0.2493 -0.4568
   82MOL     C532567   1.750   2.639   2.698  0.6873  0.0684 -0.0880
   82MOL     O632568   1.836   2.544   2.726  0.2921 -0.0571  0.0014
   82MOL     C732569   1.838   2.424   2.664 -0.5177 -0.4466  0.2196
   82MOL     C832570   1.733   2.740   2.800 -0.4871  0.1618 -0.8471
   82MOL     C932571   1.659   2.859   2.769  0.0139  0.2335 -0.4493
   82MOL    C1032572   1.526   3.084   2.528 -0.2567 -0.2382 -0.3417
   82MOL    H1132573   1.496   3.032   2.733  0.7166 -1.4659  0.0330
   82MOL    H1232574   1.552   2.772   2.453  1.9777  3.1298 -1.0336
   82MOL    H1332575   1.695   2.574   2.498 -0.6716 -0.6321  0.4271
   82MOL    H1432576   1.757   2.367   2.709 -0.5080 -1.8808 -1.5229
   82MOL    H1532577   1.825   2.427   2.556 -3.4118  2.0548  0.5664
   82MOL    H1632578   1.934   2.376   2.686 -1.1657 -1.0629  1.7226
   82MOL    H1732579   1.777   2.726   2.897  2.5975 -0.9350 -2.3451
   82MOL    H1832580   1.649   2.930   2.849  2.0786 -1.0296  0.9873
   82MOL    H1932581   1.567   3.024   2.446  0.4986  0.6744 -0.6346
   82MOL    H2032582   1.430   3.130   2.506 -1.7172 -2.6375  0.8519
   82MOL    H2132583   1.393   2.943   2.609 -1.1132  3.3047 -1.0806
   82MOL    C2232584   1.632   3.188   2.569  0.3707 -0.2847 -0.1564
   82MOL    C2332585   1.712   3.237   2.447 -0.9325 -0.0718 -0.0813
   82MOL    C2432586   1.823   3.176   2.395 -0.7642 -0.1492 -0.0193
   82MOL    C2532587   1.909   3.236   2.297  0.1880 -1.7130 -0.3551
   82MOL    C2632588   1.861   3.355   2.235  0.5489 -0.0546  0.0722
   82MOL    O2732589   1.928   3.417   2.135 -0.0477 -0.0886 -0.4318
   82MOL    C2832590   2.069   3.420   2.141 -0.0209 -0.1902 -0.2629
   82MOL    C2932591   1.735   3.405   2.269  0.6957  0.3805  0.4326
   82MOL    C3032592   1.664   3.349   2.376 -0.8717 -0.9445  0.0827
   82MOL    C3132593   1.576   3.299   2.661  0.1176 -0.5991 -0.8705
   82MOL    H3232594   1.703   3.137   2.633  0.6038  0.9446  0.5850
   82MOL    H3332595   1.863   3.085   2.438 -2.8406 -1.2365 -0.3417
   82MOL    H3432596   2.003   3.192   2.269  1.2069 -0.1912  0.6179
   82MOL    H3532597   2.097   3.459   2.239  0.5965  0.4638 -0.6953
   82MOL    H3632598   2.109   3.487   2.065 -0.0715 -1.0698 -1.0802
   82MOL    H3732599   2.114   3.321   2.139 -1.4082 -0.9123  2.0499
   82MOL    H3832600   1.709   3.495   2.215  1.4525  0.4280  0.1528
   82MOL    H3932601   1.576   3.403   2.408 -0.8104 -1.4789  1.1756
   82MOL    H4032602   1.551   3.395   2.615 -0.6625 -0.0632  0.6434
   82MOL    H4132603   1.477   3.276   2.702  1.0285 -2.9567  0.0661
   82MOL    C4232604   1.671   3.344   2.779 -0.3314  0.1498 -0.0136
   82MOL    C4332605   1.685   3.243   2.889  0.1747  0.6590 -0.3374
   82MOL    C4432606   1.575   3.193   2.961  0.4767 -0.1742  0.4056
   82MOL    C4532607   1.591   3.094   3.058 -1.1362 -0.0055  0.1782
   82MOL    C4632608   1.724   3.044   3.081 -0.6516 -0.3549  0.2306
   82MOL    O4732609   1.737   2.950   3.176  0.2150  0.5998 -0.4409
   82MOL    C4832610   1.864   2.930   3.233 -0.3351 -0.3874 -0.6979
   82MOL    C4932611   1.829   3.076   2.994 -0.2336  0.3538 -0.4221
   82MOL    C5032612   1.807   3.178   2.903  0.0721  0.1233  0.4009
   82MOL    C5132613   1.637   3.481   2.834  0.2547  0.2323 -0.0527
   82MOL    H5232614   1.767   3.352   2.727  0.0593  0.1056  0.7035
   82MOL    H5332615   1.484   3.235   2.919 -0.5920 -0.1714  2.6430
   82MOL    H5432616   1.517   3.058   3.128 -0.9921  1.1272  0.9250
   82MOL    H5532617   1.885   3.013   3.301  0.3224 -0.2840 -1.0246
   82MOL    H5632618   1.843   2.844   3.297  0.0694 -0.4887 -0.7002
   82MOL    H5732619   1.949   2.900   3.173  1.2105 -0.0175  1.2685
   82MOL    H5832620   1.925   3.029   3.007 -0.7708 -0.2753  1.4904
   82MOL    H5932621   1.892   3.200   2.840  0.7371 -2.4539  0.3246
   82MOL    H6032622   1.531   3.476   2.859  0.3725 -2.1648  0.1169
   82MOL    H6132623   1.651   3.542   2.745  0.6100  1.4387  0.8232
   82MOL    C6232624   1.721   3.525   2.957  0.5264 -0.0682 -0.1318
   82MOL    C6332625   1.638   3.550   3.080 -0.0729  0.0897  0.0622
   82MOL    C6432626   1.663   3.475   3.196  0.1368  0.0437  0.0407
   82MOL    C6532627   1.573   3.498   3.307  0.1575  0.3282 -0.4803
   82MOL    C6632628   1.483   3.604   3.305 -0.3540  0.4015 -0.3822
   82MOL    O6732629   1.415   3.627   3.426 -0.0001 -0.0468  0.3881
   82MOL    C6832630   1.277   3.657   3.416 -0.1699  0.2691 -0.4383
   82MOL    C6932631   1.475   3.695   3.195 -0.3312 -0.4295  0.0326
   82MOL    C7032632   1.545   3.655   3.078  0.5906 -0.2099 -0.0719
   82MOL    C7132633   1.802   3.644   2.908  0.3546  0.1439  0.2908
   82MOL    H7232634   1.803   3.454   2.972  2.3596  1.1417 -3.6664
   82MOL    H7332635   1.721   3.383   3.191 -0.2750 -0.2862  1.2555
   82MOL    H7432636   1.576   3.441   3.398 -1.8004  1.2894  0.2078
   82MOL    H7532637   1.242   3.643   3.518  0.1958  2.8529  0.0668
   82MOL    H7632638   1.217   3.598   3.346 -0.3151  0.1634 -0.2255
   82MOL    H7732639   1.252   3.758   3.386  0.7833  1.5111  2.7644
   82MOL    H7832640   1.413   3.783   3.192  1.2367  0.6755 -1.0138
   82MOL    H7932641   1.533   3.723   2.994 -0.1509  1.5184  1.3809
   82MOL    H8032642   1.844   3.628   2.809 -1.0734 -1.8422 -0.0297
   82MOL    H8132643   1.739   3.732   2.895  0.6427  0.3950  0.5814
   82MOL    C8232644   1.918   3.690   2.998 -0.6627 -0.5696 -1.0007
   82MOL    C8332645   2.023   3.578   3.013 -0.0918  0.3969 -0.1582
   82MOL    C8432646   2.091   3.531   2.900 -0.3163 -0.3622 -0.2526
   82MOL    C8532647   2.183   3.428   2.904 -0.6152  0.1266 -0.2940
   82MOL    C8632648   2.212   3.372   3.030  0.0282  0.8494  0.5741
   82MOL    O8732649   2.287   3.259   3.053 -0.8105 -0.6815  0.0658
   82MOL    C8832650   2.291   3.166   2.946 -0.4341  0.3964  0.0089
   82MOL    C8932651   2.144   3.418   3.145  0.0862  0.6329 -0.0367
   82MOL    C9032652   2.043   3.516   3.139 -0.3193  0.6840  0.3812
   82MOL    C9132653   1.977   3.826   2.944  0.0775 -0.8135 -0.5168
   82MOL    H9232654   1.876   3.702   3.098  0.7063 -0.1501 -0.4667
   82MOL    H9332655   2.083   3.582   2.805 -0.0093 -0.1270 -0.1512
   82MOL    H9432656   2.239   3.405   2.814  0.6605 -2.2333  1.0531
   82MOL    H9532657   2.341   3.200   2.855  0.6237  1.4265  0.9502
   82MOL    H9632658   2.189   3.139   2.918  0.0346 -1.2966 -0.0859
   82MOL    H9732659   2.336   3.073   2.979  2.1208  1.7391  0.4115
   82MOL    H9832660   2.158   3.367   3.239 -2.6044 -0.1524 -0.0242
   82MOL    H9932661   1.992   3.545   3.230 -0.8451  0.1374  0.2619
   82MOL   H10032662   2.025   3.806   2.848 -0.5861 -0.8046 -0.8539
   82MOL   H10132663   1.889   3.881   2.910  0.9730  0.9152 -0.1137
   82MOL   C10232664   2.065   3.900   3.042  0.5172 -0.5744 -0.7973
   82MOL   C10332665   2.134   4.022   2.971 -0.1620  0.2433  0.4488
   82MOL   C10432666   2.283   4.036   2.956 -0.0118 -0.2090 -0.6167
   82MOL   C10532667   2.342   4.150   2.892  0.3956  0.2218  0.0812
   82MOL   C10632668   2.259   4.244   2.826 -0.0993  0.3316 -0.3552
   82MOL   O10732669   2.315   4.353   2.768 -0.2728 -0.3307  0.4628
   82MOL   C10832670   2.241   4.464   2.723  0.1324  0.7900  0.1260
   82MOL   C10932671   2.119   4.229   2.840 -0.7310 -0.5214 -0.1253
   82MOL   C11032672   2.057   4.121   2.907  0.8755 -1.1310  0.1152
   82MOL   C11132673   1.985   3.947   3.165  0.4844  0.1505 -0.6308
   82MOL   H11232674   2.140   3.830   3.080  0.5274 -0.4301 -0.5513
   82MOL   H11332675   2.343   3.966   3.012 -0.8752 -0.7263 -0.3246
   82MOL   H11432676   2.450   4.159   2.890  0.4833 -0.9429 -1.1630
   82MOL   H11532677   2.178   4.493   2.807  0.3718 -3.0316  1.7775
   82MOL   H11632678   2.317   4.541   2.712  2.4130 -1.4908 -0.7140
   82MOL   H11732679   2.175   4.449   2.638 -0.6246 -1.2318  1.0349
   82MOL   H11832680   2.048   4.300   2.798  0.7356  0.8586 -0.3011
   82MOL   H11932681   1.952   4.099   2.897  0.8960 -0.6655 -1.2176
   82MOL   H12032682   1.981   4.056   3.168 -0.0796  0.0916  2.8925
   82MOL   H12132683   1.879   3.938   3.144  0.2383  2.1972 -0.3329
   82MOL   C12232684   1.999   3.874   3.304 -0.2173 -0.3559  0.3603
   82MOL   C12332685   1.868   3.888   3.387  0.6838 -0.2257 -1.4348
   82MOL   C12432686   1.841   4.016   3.441  0.7415 -1.3218  0.0445
   82MOL   C12532687   1.724   4.027   3.514 -0.4598  0.7805 -0.0055
   82MOL   C12632688   1.644   3.923   3.551  0.1515  0.6725  0.7315
   82MOL   O12732689   1.539   3.951   3.635 -0.3579 -0.1047 -0.2441
   82MOL   C12832690   1.489   3.849   3.720 -0.0011  0.7250  0.3776
   82MOL   C12932691   1.677   3.791   3.505  0.2385 -0.7211 -0.7591
   82MOL   C13032692   1.788   3.774   3.415  0.3899  0.4975  0.0065
   82MOL   C13132693   2.126   3.920   3.378 -0.5009  0.0957 -0.3456
   82MOL   H13232694   2.011   3.767   3.288 -2.0483 -0.3200 -1.5538
   82MOL   H13332695   1.888   4.109   3.413 -0.9383 -0.2241  0.7825
   82MOL   H13432696   1.698   4.124   3.554 -0.2449  1.1229 -0.6820
   82MOL   H13532697   1.435   3.880   3.809 -0.4542  0.8551  0.0561
   82MOL   H13632698   1.443   3.761   3.676  1.6721 -0.1869  0.3995
   82MOL   H13732699   1.578   3.803   3.764  0.9226  1.5444 -0.6185
   82MOL   H13832700   1.620   3.704   3.534 -0.3262  0.1155  0.6758
   82MOL   H13932701   1.801   3.672   3.384 -0.9160 -0.3928  2.2491
   82MOL   H14032702   2.118   4.029   3.383  0.1076  0.2583 -2.4391
   82MOL   H14132703   2.212   3.887   3.319  0.6571  0.6313  0.9964
   82MOL   C14232704   2.137   3.879   3.528  0.2383  0.9884  0.6552
   82MOL   C14332705   2.161   3.729   3.538 -0.7726  0.8065 -0.3001
   82MOL   C14432706   2.270   3.667   3.472 -0.0806  0.1353 -0.0005
   82MOL   C14532707   2.271   3.528   3.472  0.1416 -0.0921 -0.4824
   82MOL   C14632708   2.168   3.454   3.539 -0.4094  0.1893 -0.0206
   82MOL   O14732709   2.183   3.321   3.529 -0.4434 -0.0521 -0.0091
   82MOL   C14832710   2.100   3.239   3.601  0.5800  0.0983  0.5685
   82MOL   C14932711   2.065   3.519   3.602 -1.3664 -0.5818  0.5647
   82MOL   C15032712   2.065   3.657   3.605  0.5824  0.0518 -0.1023
   82MOL   C15132713   2.248   3.954   3.611  0.6813 -0.1865 -0.2048
   82MOL   H15232714   2.042   3.897   3.579  0.2440 -0.1775  1.0819
   82MOL   H15332715   2.343   3.725   3.417  0.8919 -0.1426  0.9859
   82MOL   H15432716   2.351   3.483   3.416 -0.6481 -0.3915 -1.3647
   82MOL   H15532717   2.004   3.249   3.550  1.3679 -2.9050 -1.7076
   82MOL   H15632718   2.133   3.136   3.584  0.3163  0.0661  0.2445
   82MOL   H15732719   2.103   3.261   3.707 -1.3490  1.6511  0.3311
   82MOL   H15832720   1.992   3.462   3.657 -1.8836  0.8230  1.3511
   82MOL   H15932721   1.980   3.707   3.651  0.8913 -0.0695  0.6133
   82MOL   H16032722   2.339   3.926   3.559 -0.3316  0.4574 -2.4010
   82MOL   H16132723   2.258   3.905   3.708  2.0479  2.1108  0.8436
   82MOL   C16232724   2.230   4.103   3.623 -0.4079 -0.3504  0.0497
   82MOL   C16332725   2.361   4.165   3.675  0.4771  0.3124  0.1010
   82MOL   C16432726   2.430   4.111   3.787  0.4859  0.4383  0.0774
   82MOL   C16532727   2.548   4.176   3.837  0.6700  0.2876 -0.1524
   82MOL   C16632728   2.591   4.292   3.777 -0.1487 -0.2765  0.7439
   82MOL   O16732729   2.704   4.365   3.809 -0.2952 -0.4033 -0.1295
   82MOL   C16832730   2.782   4.319   3.914 -0.5245 -0.2390 -0.4881
   82MOL   C16932731   2.524   4.343   3.666  0.0692  0.3490 -0.7515
   82MOL   C17032732   2.401   4.286   3.627  0.2476  0.0566  0.5986
   82MOL   C17132733   2.097   4.143   3.700 -0.2123  0.6699  0.7696
   82MOL   H17232734   2.211   4.139   3.522  0.4829 -0.7914 -0.2762
   82MOL   H17332735   2.395   4.028   3.845  1.5930 -0.7425 -0.9121
   82MOL   H17432736   2.598   4.134   3.923 -2.7919 -0.8264  1.3859
   82MOL   H17532737   2.876   4.371   3.931 -1.4577  0.6663  2.0893
   82MOL   H17632738   2.807   4.213   3.899 -2.4730 -0.9214  0.9066
   82MOL   H17732739   2.716   4.314   4.000  1.0236  0.6263  0.7758
   82MOL   H17832740   2.549   4.436   3.616  0.9705  1.9461  2.5239
   82MOL   H17932741   2.348   4.333   3.546 -1.5191 -0.1824  1.5934
   82MOL   H18032742   2.092   4.093   3.797 -0.3353 -0.1272  0.3557
   82MOL   H18132743   2.008   4.101   3.656  0.5887 -0.1547 -0.0791
   82MOL   C18232744   2.075   4.294   3.706 -0.2328 -0.6539  0.0766
   82MOL   C18332745   2.162   4.363   3.822 -0.3020 -0.1782 -0.5104
   82MOL   C18432746   2.235   4.482   3.788  0.0880 -0.5688 -0.5149
   82MOL   C18532747   2.324   4.543   3.885  0.1659  0.2481  0.2713
   82MOL   C18632748   2.343   4.487   4.011 -0.2738  0.0450  0.8988
   82MOL   O18732749   2.422   4.541   4.115  0.1596  0.5082 -0.4135
   82MOL   C18832750   2.491   4.663   4.101  0.8713  0.4333  0.1917
   82MOL   C18932751   2.273   4.368   4.040  0.2600  0.3921  0.9876
   82MOL   C19032752   2.178   4.308   3.952 -0.0974 -0.0218 -0.4227
   82MOL   C19132753   1.924   4.335   3.713 -0.5482 -0.1049  0.2701
   82MOL   H19232754   2.111   4.339   3.614 -2.7980  2.2843  0.4093
   82MOL   H19332755   2.245   4.519   3.687 -0.5511 -0.9497 -0.7229
   82MOL   H19432756   2.380   4.630   3.852 -0.1326  0.6773  0.8845
   82MOL   H19532757   2.424   4.749   4.107  1.4962  1.1246 -2.3117
   82MOL   H19632758   2.531   4.677   4.001 -0.2097  3.5358  0.1512
   82MOL   H19732759   2.572   4.670   4.173 -1.1069  0.6596  2.4922
   82MOL   H19832760   2.281   4.335   4.143 -2.9213 -0.0459  1.1412
   82MOL   H19932761   2.131   4.215   3.981 -2.0562  1.2055  0.4214
   82MOL   H20032762   1.864   4.266   3.654 -2.3290  1.9364 -0.3620
   82MOL   H20132763   1.889   4.325   3.815  2.2747 -2.7902  1.0582
   82MOL   C20232764   1.896   4.469   3.650 -0.7676  0.2687  0.3958
   82MOL   C20332765   1.777   4.535   3.713 -0.0246 -0.3701  0.4339
   82MOL   C20432766   1.650   4.472   3.703 -0.4146  0.1138  0.9864
   82MOL   C20532767   1.532   4.539   3.740 -0.6583  0.8284 -0.7397
   82MOL   C20632768   1.538   4.671   3.792 -0.0268  0.0258 -0.5843
   82MOL   O20732769   1.435   4.750   3.820 -0.1160 -0.1857 -0.0444
   82MOL   C20832770   1.312   4.681   3.820  0.3962 -0.6602 -0.0821
   82MOL   C20932771   1.665   4.740   3.796  0.2194 -0.0247 -0.1045
   82MOL   C21032772   1.781   4.670   3.759  0.2664  0.4867  0.3965
   82MOL   C21132773   1.891   4.470   3.498  0.4615 -0.2162 -0.3211
   82MOL   H21232774   1.985   4.524   3.681 -1.3657  1.3410  0.2671
   82MOL   H21332775   1.653   4.376   3.653  1.3242  1.2089 -1.1124
   82MOL   H21432776   1.437   4.490   3.720 -0.8353  1.7763 -2.2428
   82MOL   H21532777   1.315   4.594   3.886 -1.1901  0.9578  2.2175
   82MOL   H21632778   1.234   4.749   3.854  0.1759 -0.6158 -0.6744
   82MOL   H21732779   1.285   4.662   3.716  1.1691 -0.4039 -0.3307
   82MOL   H21832780   1.674   4.841   3.833  1.8653 -1.3619  3.3865
   82MOL   H21932781   1.878   4.716   3.747  0.3981  0.5237  1.5319
   82MOL   H22032782   1.802   4.414   3.471 -0.1570  1.1221 -1.0993
   82MOL   H22132783   1.972   4.408   3.459  0.8043 -0.8983  1.3932
   82MOL   C22232784   1.891   4.608   3.423 -0.1192 -0.9518 -0.4483
   82MOL   C22332785   2.001   4.709   3.462  0.7957 -0.0527  0.0760
   82MOL   C22432786   1.982   4.851   3.460 -0.8504  0.1170 -0.3745
   82MOL   C22532787   2.086   4.932   3.504 -0.0898  0.1163  0.9821
   82MOL   C22632788   2.216   4.881   3.531 -0.1532 -0.1127  0.7275
   82MOL   O22732789   2.323   4.967   3.562  0.3100  0.0920  0.1753
   82MOL   C22832790   2.462   4.923   3.550  0.1743 -0.6548  0.5230
   82MOL   C22932791   2.230   4.740   3.522  0.1878 -0.1437  0.1249
   82MOL   C23032792   2.122   4.657   3.498  1.2008  0.1018  0.7563
   82MOL   C23132793   1.888   4.569   3.274  1.0211  0.2422  0.0570
   82MOL   H23232794   1.795   4.653   3.446 -0.6892 -1.7503 -1.2423
   82MOL   H23332795   1.888   4.891   3.424 -1.5637 -0.6945  0.5480
   82MOL   H23432796   2.068   5.039   3.504 -2.8250 -0.3004  1.3343
   82MOL   H23532797   2.491   4.900   3.447  2.1950  0.3167  0.8539
   82MOL   H23632798   2.506   5.015   3.588  0.9045 -1.2355  1.0887
   82MOL   H23732799   2.490   4.842   3.617  4.0594 -0.9281 -1.2954
   82MOL   H23832800   2.320   4.685   3.545  0.0029 -0.1537  0.8382
   82MOL   H23932801   2.139   4.551   3.484  0.1660 -0.2621  2.1240
   82MOL   H24032802   1.985   4.530   3.243 -0.1111 -2.7660  0.1025
   82MOL   H24132803   1.824   4.483   3.257  1.3200  0.4094 -1.9582
   82MOL   C24232804   1.851   4.676   3.172  0.3616  0.6399  0.2521
   82MOL   C24332805   1.872   4.638   3.025 -0.4589 -0.2572  0.2558
   82MOL   C24432806   1.792   4.536   2.976  0.0095  0.2184 -0.5577
   82MOL   C24532807   1.795   4.497   2.843 -0.4004  0.2448 -0.5325
   82MOL   C24632808   1.886   4.559   2.762  0.8918 -0.6343  0.7543
   82MOL   O24732809   1.904   4.500   2.640 -0.5812  0.4408  0.0928
   82MOL   C24832810   1.919   4.576   2.515 -0.0818  0.5099 -0.1143
   82MOL   C24932811   1.961   4.669   2.805  0.0858  0.3429 -0.1130
   82MOL   C25032812   1.951   4.712   2.938  0.2088 -0.4551 -0.4372
   82MOL   C25132813   1.708   4.730   3.189 -0.5971  0.0832  0.7629
   82MOL   H25232814   1.924   4.756   3.184 -0.3134  1.6497 -1.9297
   82MOL   H25332815   1.728   4.484   3.046 -0.2680  0.9348 -0.2741
   82MOL   H25432816   1.745   4.406   2.814  1.7889 -1.3463  0.5011
   82MOL   H25532817   1.843   4.654   2.507 -1.7104 -1.0327  0.0439
   82MOL   H25632818   2.016   4.626   2.512 -0.0726  0.5395  0.4842
   82MOL   H25732819   1.910   4.513   2.427 -0.1256 -1.4964  1.2747
   82MOL   H25832820   2.032   4.717   2.739 -2.2624  1.0222 -2.2363
   82MOL   H25932821   2.003   4.802   2.969  0.8334 -1.5444  1.7626
   82MOL   H26032822   1.702   4.782   3.285  0.7805 -0.1251  0.9843
   82MOL   H26132823   1.638   4.647   3.198 -0.9213  0.2352 -0.3340
   82MOL   C26232824   1.654   4.822   3.074  0.5919 -0.5435  0.1638
   82MOL   C26332825   1.736   4.954   3.076 -0.1915  0.5063  0.4855
   82MOL   C26432826   1.771   5.013   2.956  0.1567 -0.0577 -0.6900
   82MOL   C26532827   1.858   5.126   2.959  0.1048 -0.1324 -0.5530
   82MOL   C26632828   1.890   5.192   3.073  0.4165  0.3268  0.2191
   82MOL   O26732829   1.966   5.306   3.077  0.6390  0.1190  0.1026
   82MOL   C26832830   1.999   5.385   2.962 -0.1780  0.3240 -0.0767
   82MOL   C26932831   1.848   5.133   3.192 -0.0658  0.4997 -0.2928
   82MOL   C27032832   1.777   5.013   3.191 -0.1425  0.6081  0.3068
   82MOL   C27132833   1.502   4.853   3.073  0.8751  0.5992 -0.4902
   82MOL   H27232834   1.670   4.771   2.979  0.3080  0.7995 -0.6067
   82MOL   H27332835   1.733   4.966   2.866  0.5578 -1.1699 -0.2901
   82MOL   H27432836   1.881   5.172   2.864  2.6543 -1.2148 -0.4998
   82MOL   H27532837   1.908   5.406   2.906 -0.3611  2.4951  0.9817
   82MOL   H27632838   2.055   5.321   2.894 -2.3492 -1.0873 -0.5670
   82MOL   H27732839   2.067   5.466   2.989  0.3106 -0.6379  1.6773
   82MOL   H27832840   1.873   5.180   3.286 -2.8749  0.4907  0.5093
   82MOL   H27932841   1.740   4.967   3.281  0.1697  0.4184  0.3388
   82MOL   H28032842   1.465   4.884   3.171 -0.4404 -3.3998  0.3621
   82MOL   H28132843   1.480   4.936   3.006 -0.0706  0.0450 -0.8875
   82MOL   C28232844   1.419   4.724   3.031 -0.3678  0.2329 -0.1844
   82MOL   C28332845   1.444   4.679   2.890  0.1088  0.4803 -0.7310
   82MOL   C28432846   1.468   4.544   2.869 -0.3481  0.6073 -0.2352
   82MOL   C28532847   1.489   4.496   2.741  0.0618  0.0455  0.1355
   82MOL   C28632848   1.496   4.576   2.625  0.6662  0.9359  0.6451
   82MOL   O28732849   1.521   4.522   2.503 -0.5144 -0.5522 -0.2432
   82MOL   C28832850   1.556   4.601   2.396 -0.6572  0.2659  0.0138
   82MOL   C28932851   1.476   4.709   2.646  0.5946 -0.3561 -0.0654
   82MOL   C29032852   1.445   4.764   2.774  0.0970  0.0015  0.2554
   82MOL   C29132853   1.264   4.755   3.050 -0.4720 -0.0529  0.2504
   82MOL   H29232854   1.446   4.645   3.101 -0.9976 -1.4220 -1.8003
   82MOL   H29332855   1.487   4.476   2.951 -0.9971 -0.1332 -0.6934
   82MOL   H29432856   1.513   4.391   2.728 -1.0238  0.2118 -3.5404
   82MOL   H29532857   1.636   4.668   2.429  1.4802 -2.6087  0.8621
   82MOL   H29632858   1.609   4.548   2.317  1.4017  0.9486  0.8879
   82MOL   H29732859   1.473   4.667   2.373 -1.2780  0.6140  3.0944
   82MOL   H29832860   1.471   4.779   2.564  0.9902 -0.5919 -0.2892
   82MOL   H29932861   1.435   4.871   2.787  1.9921  0.3072 -0.5910
   82MOL   H30032862   1.249   4.811   3.142  2.3990  1.0698  0.0909
   82MOL   H30132863   1.223   4.822   2.975  2.3224  1.7938  0.3113
   82MOL   C30232864   1.166   4.629   3.048 -0.5501  0.2679 -0.4117
   82MOL   C30332865   1.204   4.519   3.144  0.1598 -0.8993 -0.3112
   82MOL   C30432866   1.208   4.383   3.096  0.1374 -0.5852 -0.8198
   82MOL   C30532867   1.233   4.279   3.187 -0.5995 -0.1296  0.5139
   82MOL   C30632868   1.252   4.304   3.321 -0.1152 -0.1400 -0.3223
   82MOL   O30732869   1.276   4.211   3.420 -0.3742 -0.4615  0.1714
   82MOL   C30832870   1.285   4.076   3.389 -0.5493  0.4956  0.3186
   82MOL   C30932871   1.259   4.437   3.368  0.8135 -0.1074 -0.3003
   82MOL   C31032872   1.229   4.540   3.281 -0.7355 -0.0857 -0.5119
   82MOL   C31132873   1.017   4.671   3.036 -0.7600  0.1950  0.0741
   82MOL   H31232874   1.200   4.579   2.958 -0.5076 -1.0536  0.3297
   82MOL   H31332875   1.174   4.361   2.996  0.3070  1.1512 -1.2775
   82MOL   H31432876   1.228   4.179   3.148  1.4999 -1.0051  2.3473
   82MOL   H31532877   1.369   4.041   3.329 -0.4962 -2.1496  1.8616
   82MOL   H31632878   1.195   4.057   3.332 -1.3781  0.3396  1.6426
   82MOL   H31732879   1.294   4.007   3.473 -1.0267  0.6996  0.5368
   82MOL   H31832880   1.277   4.467   3.470 -1.3525  0.4850 -0.0501
   82MOL   H31932881   1.224   4.640   3.322 -0.5700 -1.7146  3.7268
   82MOL   H32032882   1.013   4.730   2.945  0.7498  2.9285  1.6946
   82MOL   H32132883   0.991   4.745   3.113  1.5998  0.3016  0.8282
   82MOL   C32232884   0.918   4.550   3.034  0.8862  0.0559  0.0786
   82MOL   C32332885   0.789   4.583   2.952 -0.0537 -0.5830  0.5599
   82MOL   C32432886   0.761   4.517   2.836 -0.3947  0.0522  0.6311
   82MOL   C32532887   0.633   4.525   2.779  0.8743 -0.5805  0.6434
   82MOL   C32632888   0.533   4.613   2.832 -0.0388 -0.9315 -0.5631
   82MOL   O32732889   0.407   4.635   2.770 -0.0903 -0.1106 -0.4643
   82MOL   C32832890   0.364   4.530   2.685 -0.3463  0.0244 -0.9903
   82MOL   C32932891   0.569   4.687   2.945  0.4690 -0.3003 -0.0486
   82MOL   C33032892   0.697   4.673   3.001  0.6103 -0.2421 -0.2804
   82MOL   C33132893   0.891   4.499   3.180  0.8689 -0.0855 -0.3674
   82MOL   H33232894   0.964   4.467   2.980 -0.8228 -0.5225 -0.4953
   82MOL   H33332895   0.838   4.463   2.782 -1.4985 -0.2127 -0.7193
   82MOL   H33432896   0.618   4.463   2.692  0.0279  0.2820  0.1608
   82MOL   H33532897   0.356   4.435   2.737  0.0371  1.1175  1.1173
   82MOL   H33632898   0.421   4.531   2.592 -2.1844 -0.9577 -2.1537
   82MOL   H33732899   0.270   4.565   2.641 -0.1583 -0.7871 -2.0690
   82MOL   H33832900   0.497   4.757   2.985 -0.5929 -2.3723  1.7523
   82MOL   H33932901   0.715   4.734   3.088 -0.2878  0.0057 -0.2680
   82MOL   H34032902   0.979   4.471   3.237 -0.2493  0.0521  1.4638
   82MOL   H34132903   0.843   4.579   3.236 -0.1042  0.6549 -2.1954
   82MOL   C34232904   0.785   4.385   3.195  0.3866 -0.2532  0.2999
   82MOL   C34332905   0.730   4.370   3.339 -0.5675 -0.6566  0.1727
   82MOL   C34432906   0.826   4.342   3.439  0.1712 -0.0516  0.2365
   82MOL   C34532907   0.791   4.300   3.567 -0.4875  0.0044  0.7584
   82MOL   C34632908   0.655   4.285   3.592  0.1450 -0.4099 -0.7305
   82MOL   O34732909   0.612   4.233   3.716  0.3071 -0.2926 -0.0823
   82MOL   C34832910   0.709   4.212   3.815  0.2344  0.0043 -0.7547
   82MOL   C34932911   0.551   4.317   3.499 -0.4497  0.9791  0.0897
   82MOL   C35032912   0.593   4.359   3.368 -0.9760  0.2981  0.4757
   82MOL   C35132913   0.841   4.247   3.136 -0.4665 -0.0290 -0.1242
   82MOL   H35232914   0.699   4.404   3.132  1.3731  0.2231 -0.9152
   82MOL   H35332915   0.933   4.346   3.420 -0.0783 -1.4002 -1.6437
   82MOL   H35432916   0.861   4.264   3.641  0.5785  1.0281  0.2495
   82MOL   H35532917   0.658   4.177   3.905 -0.0839  2.1428 -0.0648
   82MOL   H35632918   0.787   4.140   3.789  0.3796  0.3657 -1.3272
   82MOL   H35732919   0.742   4.309   3.852  0.4161 -0.3576  0.0481
   82MOL   H35832920   0.448   4.285   3.511  0.8226 -2.7980  2.0879
   82MOL   H35932921   0.522   4.384   3.290  1.1348 -0.7994 -1.8712
   82MOL   H36032922   0.865   4.266   3.031  1.3030 -1.0067  0.0842
   82MOL   H36132923   0.939   4.239   3.185 -0.0075  1.2809 -0.7788
   82MOL   C36232924   0.762   4.123   3.168  0.2223 -0.1609  0.2101
   82MOL   C36332925   0.846   3.995   3.168 -0.0378 -0.1646 -0.2262
   82MOL   C36432926   0.962   3.977   3.087  0.2725  0.1033  0.4162
   82MOL   C36532927   1.029   3.851   3.079 -0.6908  0.3824  0.8574
   82MOL   C36632928   0.992   3.748   3.162  0.0821  0.1222  0.3649
   82MOL   O36732929   1.042   3.621   3.136  0.3453  0.0837  0.6450
   82MOL   C36832930   0.947   3.527   3.102  0.1895 -0.1753  0.1362
   82MOL   C36932931   0.891   3.773   3.256 -0.2081  0.2685 -0.0571
   82MOL   C37032932   0.813   3.894   3.254  0.8228  0.5280  0.1433
   82MOL   C37132933   0.645   4.097   3.068  0.5595  0.1309 -0.0066
   82MOL   H37232934   0.731   4.125   3.273 -0.8531 -1.2676 -0.0773
   82MOL   H37332935   1.004   4.047   3.016  0.5204  0.6687  1.1081
   82MOL   H37432936   1.102   3.828   3.003 -1.6866 -0.7455  0.2384
   82MOL   H37532937   0.938   3.446   3.175 -3.9096  1.1986  1.3147
   82MOL   H37632938   0.845   3.564   3.094 -0.1485 -0.7050  1.8022
   82MOL   H37732939   0.967   3.478   3.007 -0.6125  0.8251 -0.5568
   82MOL   H37832940   0.866   3.691   3.322 -0.0427  0.5798  0.3961
   82MOL   H37932941   0.731   3.909   3.323 -0.1155  0.1679 -0.8853
   82MOL   H38032942   0.607   4.194   3.037 -0.5960 -0.6433 -1.0870
   82MOL   H38132943   0.689   4.051   2.980 -0.2984  1.1344 -0.9677
   82MOL   C38232944   0.523   4.010   3.125 -0.0106  0.1783  0.2806
   82MOL   C38332945   0.405   4.009   3.022 -0.7722 -0.6629  0.0295
   82MOL   C38432946   0.327   4.125   3.012  0.0924  0.5405  1.0077
   82MOL   C38532947   0.224   4.143   2.918  0.8023  0.0966 -0.5139
   82MOL   C38632948   0.195   4.036   2.834 -0.6996  1.2707 -0.3731
   82MOL   O38732949   0.094   4.050   2.738  0.6296 -0.4176 -0.0971
   82MOL   C38832950   8.034   3.952   2.723 -0.3295 -0.1312  0.4157
   82MOL   C38932951   0.273   3.918   2.848  0.3292  0.1943 -0.7952
   82MOL   C39032952   0.381   3.904   2.931  0.0811  0.1013 -0.3981
   82MOL   C39132953   0.473   4.046   3.264 -0.0320  0.4189  0.5422
   82MOL   H39232954   0.565   3.911   3.143 -0.7150  0.1845  2.0568
   82MOL   H39332955   0.351   4.209   3.075  1.4001  1.9959 -1.3381
   82MOL   H39432956   0.169   4.236   2.921  2.6312  1.1722  1.2266
   82MOL   H39532957   7.955   3.992   2.660 -0.5907  0.8510  1.3417
   82MOL   H39632958   7.988   3.914   2.814  1.2517 -1.2351  0.7829
   82MOL   H39732959   0.013   3.861   2.667  2.5021  0.9680 -0.5252
   82MOL   H39832960   0.247   3.828   2.795  0.5000 -0.9407  1.0212
   82MOL   H39932961   0.449   3.820   2.930  0.0236  0.0563 -1.0491
   82MOL   H40032962   0.544   4.028   3.345  2.3104  3.0669 -0.8289
   82MOL   H40132963   0.390   3.976   3.279 -0.5908  0.9276 -0.1470
   82MOL   H40232964   0.442   4.149   3.279  1.5751  0.9189  0.4737
   83MOL     C132965   2.493   7.134   2.869 -0.1200  0.2260 -0.5510
   83MOL     C232966   2.540   7.042   2.978  0.0003 -0.2350  0.1002
   83MOL     C332967   2.490   6.915   2.987 -0.2678  0.5897 -0.0086
   83MOL     C432968   2.535   6.826   3.087  0.2733 -0.2201  0.5769
   83MOL     C532969   2.646   6.854   3.170  0.2077  0.2379 -0.0008
   83MOL     O632970   2.698   6.767   3.263  0.2357  0.2301 -0.0189
   83MOL     C732971   2.650   6.628   3.272 -0.2214  0.6233  0.1212
   83MOL     C832972   2.692   6.985   3.162  0.0336  0.3655 -0.3596
   83MOL     C932973   2.639   7.082   3.068  0.5579  0.6605 -0.5881
   83MOL    C1032974   2.351   7.182   2.893 -0.2003 -0.0843 -0.1337
   83MOL    H1132975   2.489   7.071   2.781 -0.3413  0.4365 -0.6912
   83MOL    H1232976   2.409   6.880   2.924 -1.7257  0.9859  1.5960
   83MOL    H1332977   2.479   6.734   3.094 -1.2107  0.6745  0.5107
   83MOL    H1432978   2.726   6.565   3.320 -0.7493 -0.5855 -0.6168
   83MOL    H1532979   2.563   6.624   3.338  1.3665  0.0254  2.2699
   83MOL    H1632980   2.622   6.578   3.180 -2.3807  2.6175 -0.3290
   83MOL    H1732981   2.775   7.020   3.220 -0.9422  0.1656  1.1863
   83MOL    H1832982   2.684   7.178   3.051  1.7447  0.7941  3.1017
   83MOL    H1932983   2.300   7.088   2.912 -0.9535  0.8571  2.6309
   83MOL    H2032984   2.349   7.224   2.994  1.6302 -0.4102  0.0463
   83MOL    H2132985   2.562   7.218   2.856  1.0873 -0.3785  1.6380
   83MOL    C2232986   2.258   7.245   2.784 -0.0345  0.2166 -0.3900
   83MOL    C2332987   2.290   7.212   2.636 -0.8082  0.2692 -0.1062
   83MOL    C2432988   2.292   7.078   2.585  0.6834  0.1365  0.7542
   83MOL    C2532989   2.330   7.055   2.452 -0.0047 -0.4099  0.5946
   83MOL    C2632990   2.367   7.160   2.364  0.3333  0.1786  0.6117
   83MOL    O2732991   2.412   7.148   2.235 -0.7780  0.5394  0.4877
   83MOL    C2832992   2.421   7.013   2.191  0.4391  0.1964  0.6417
   83MOL    C2932993   2.361   7.292   2.416  0.3589 -0.2931  0.8880
   83MOL    C3032994   2.326   7.318   2.554  0.0101  0.4063 -0.1751
   83MOL    C3132995   2.106   7.231   2.811  0.8211  0.4553  0.0709
   83MOL    H3232996   2.264   7.353   2.791  1.4386  0.1179  0.0689
   83MOL    H3332997   2.260   6.985   2.631  1.5630 -0.3258  0.4466
   83MOL    H3432998   2.325   6.952   2.419  3.3276 -0.1691 -0.7791
   83MOL    H3532999   2.426   7.013   2.082  1.0697 -0.3689  0.6688
   83MOL    H3633000   2.330   6.955   2.210 -0.2709  1.2505  0.5151
   83MOL    H3733001   2.511   6.962   2.225  0.9429  0.9364  0.4100
   83MOL    H3833002   2.402   7.379   2.367 -1.2555  0.5986  1.0754
   83MOL    H3933003   2.333   7.414   2.602 -0.9187  0.1295  0.5343
   83MOL    H4033004   2.057   7.258   2.717  2.0919 -0.1724 -0.7801
   83MOL    H4133005   2.084   7.124   2.817 -0.1347  0.6736  0.5214
   83MOL    C4233006   2.045   7.317   2.924 -0.5365  0.5511  0.5621
   83MOL    C4333007   1.914   7.256   2.976  0.4815  0.0678 -0.0361
   83MOL    C4433008   1.895   7.242   3.115 -0.0296  0.0686 -0.1038
   83MOL    C4533009   1.775   7.189   3.159  0.0639 -0.2233  0.1909
   83MOL    C4633010   1.667   7.161   3.074 -0.0960 -0.3483  0.3256
   83MOL    O4733011   1.556   7.127   3.143  0.2044 -0.5978  0.1082
   83MOL    C4833012   1.435   7.106   3.069 -0.0783 -0.6857 -0.5292
   83MOL    C4933013   1.688   7.168   2.934  0.0107 -0.0216  0.5295
   83MOL    C5033014   1.806   7.224   2.888  0.3907  0.0021 -0.2409
   83MOL    C5133015   2.004   7.462   2.858  0.1027 -0.3401 -0.0390
   83MOL    H5233016   2.125   7.323   2.997 -1.3100  1.1149  1.3709
   83MOL    H5333017   1.980   7.252   3.181  2.8584 -1.5313 -3.3902
   83MOL    H5433018   1.761   7.177   3.265 -0.8973  1.8774  0.3155
   83MOL    H5533019   1.452   7.041   2.983 -0.6349  0.5710 -1.5901
   83MOL    H5633020   1.356   7.062   3.130 -0.1903 -0.1981 -0.3206
   83MOL    H5733021   1.398   7.204   3.041 -0.9739 -0.9846 -0.4029
   83MOL    H5833022   1.614   7.133   2.864  1.9786 -2.6386 -0.3389
   83MOL    H5933023   1.825   7.233   2.782  0.3093 -0.9266 -0.3352
   83MOL    H6033024   1.935   7.473   2.775 -0.6251 -0.2193  0.5773
   83MOL    H6133025   2.099   7.497   2.817  1.0196 -4.8432 -2.1037
   83MOL    C6233026   1.960   7.566   2.963  0.5433 -0.5844 -0.2521
   83MOL    C6333027   1.801   7.576   2.959 -0.1743 -0.4137  0.0773
   83MOL    C6433028   1.721   7.514   3.061 -1.0363 -0.6711 -0.6434
   83MOL    C6533029   1.584   7.528   3.064 -0.7021 -0.4434 -0.2690
   83MOL    C6633030   1.520   7.601   2.967  0.3841 -0.1297  0.0939
   83MOL    O6733031   1.380   7.625   2.979 -0.1023  0.4708 -0.0480
   83MOL    C6833032   1.328   7.741   2.915 -0.0367  0.0719 -0.2634
   83MOL    C6933033   1.591   7.656   2.862 -0.2681 -0.6101  0.0889
   83MOL    C7033034   1.733   7.641   2.851  0.3486 -0.3689 -0.3828
   83MOL    C7133035   2.016   7.707   2.935  0.0996  0.2736  0.0233
   83MOL    H7233036   1.993   7.530   3.061 -0.1778  1.1166  0.6264
   83MOL    H7333037   1.777   7.461   3.136  0.6450  2.0635  0.1210
   83MOL    H7433038   1.523   7.485   3.141 -3.1442 -0.0455 -1.8963
   83MOL    H7533039   1.364   7.841   2.939 -2.7572  0.7144  1.4184
   83MOL    H7633040   1.220   7.748   2.930  0.0113  0.3330 -0.0393
   83MOL    H7733041   1.329   7.714   2.810  1.9255  2.0126 -0.7787
   83MOL    H7833042   1.538   7.716   2.790  1.7093  1.8414  0.6196
   83MOL    H7933043   1.783   7.681   2.764 -0.0782  0.5884 -0.1972
   83MOL    H8033044   2.032   7.705   2.827  1.1322 -2.5215  0.1864
   83MOL    H8133045   1.940   7.781   2.962 -1.4002 -1.0124 -0.5436
   83MOL    C8233046   2.145   7.750   3.002  0.0583 -0.8098 -0.7385
   83MOL    C8333047   2.262   7.657   2.983  0.0170 -0.4812 -0.1032
   83MOL    C8433048   2.318   7.594   3.095 -0.6902  0.1348  0.4268
   83MOL    C8533049   2.431   7.514   3.085  0.9037  0.1010 -0.4282
   83MOL    C8633050   2.504   7.504   2.964  0.5670  0.8103 -0.6381
   83MOL    O8733051   2.631   7.452   2.966  0.5704  0.3696  0.1624
   83MOL    C8833052   2.719   7.511   2.866 -0.3666 -0.1493  0.3605
   83MOL    C8933053   2.445   7.571   2.854  0.0146  0.3939  0.5749
   83MOL    C9033054   2.321   7.636   2.857 -0.5157  0.3701 -0.2576
   83MOL    C9133055   2.179   7.899   2.967  0.5568  0.6105  0.2497
   83MOL    H9233056   2.117   7.751   3.108  3.4458  1.6482  0.2126
   83MOL    H9333057   2.276   7.618   3.192 -0.1320  2.1145  0.1978
   83MOL    H9433058   2.478   7.473   3.173  1.9990  1.1173 -0.5302
   83MOL    H9533059   2.736   7.617   2.883 -2.6398  0.4016 -0.5629
   83MOL    H9633060   2.704   7.481   2.763 -0.6030 -0.9033  0.6090
   83MOL    H9733061   2.822   7.477   2.869 -1.1514 -3.0171 -1.9781
   83MOL    H9833062   2.485   7.551   2.756  0.6745 -0.4724  1.0100
   83MOL    H9933063   2.286   7.683   2.767 -0.5924 -1.3488 -1.1438
   83MOL   H10033064   2.258   7.900   2.891  0.5562  1.5269  0.2490
   83MOL   H10133065   2.096   7.940   2.910 -0.2439 -1.9192 -0.4426
   83MOL   C10233066   2.217   7.996   3.079  1.2481  0.0474 -0.1282
   83MOL   C10333067   2.285   0.087   3.030  0.0180  0.1244  0.0937
   83MOL   C10433068   2.395   0.143   3.104 -0.4343 -0.1422 -0.9066
   83MOL   C10533069   2.446   0.268   3.067 -0.2790  0.5235 -0.2099
   83MOL   C10633070   2.387   0.338   2.958  0.1649  0.1964  0.5902
   83MOL   O10733071   2.436   0.467   2.935  0.1261 -0.6306 -0.5155
   83MOL   C10833072   2.354   0.564   2.872  0.0832 -0.5586  0.0997
   83MOL   C10933073   2.276   0.285   2.885  0.3809 -0.6050  0.1869
   83MOL   C11033074   2.223   0.163   2.927 -0.6172 -0.1945 -0.3028
   83MOL   C11133075   2.093   8.028   3.167 -0.1988 -0.5838  0.1486
   83MOL   H11233076   2.287   7.930   3.131  1.0016 -0.5598 -0.5545
   83MOL   H11333077   2.427   0.093   3.195  3.0130  4.4705  0.6083
   83MOL   H11433078   2.528   0.303   3.128 -0.4853 -0.1776  0.4856
   83MOL   H11533079   2.260   0.560   2.927 -1.2378  1.8228 -1.9036
   83MOL   H11633080   2.395   0.665   2.869 -0.7129 -0.2929 -2.8111
   83MOL   H11733081   2.323   0.538   2.771  2.3312  0.7037 -0.9560
   83MOL   H11833082   2.232   0.339   2.803  0.2306 -1.7106 -0.4730
   83MOL   H11933083   2.134   0.120   2.884  0.0380 -0.9044 -0.9680
   83MOL   H12033084   2.022   0.048   3.109 -0.6549  0.9106  2.2098
   83MOL   H12133085   2.038   7.938   3.195  1.2231 -1.6076 -0.3150
   83MOL   C12233086   2.145   0.057   3.294 -0.6244  0.6356  0.0618
   83MOL   C12333087   2.232   7.995   3.378  0.0719  0.6585 -0.2788
   83MOL   C12433088   2.174   7.872   3.410  0.2589  0.0724 -0.1308
   83MOL   C12533089   2.257   7.779   3.483 -0.3592  0.1323 -0.3786
   83MOL   C12633090   2.390   7.801   3.520  0.7721  0.2147 -0.5868
   83MOL   O12733091   2.452   7.697   3.595  0.3845 -0.1453  0.4985
   83MOL   C12833092   2.579   7.734   3.649  0.2662  0.3788 -0.2993
   83MOL   C12933093   2.444   7.938   3.494  0.3814  0.1808  0.0504
   83MOL   C13033094   2.358   8.031   3.431  0.7070  0.2501 -0.2878
   83MOL   C13133095   2.024   0.107   3.382  0.5125  0.8044 -0.6530
   83MOL   H13233096   2.216   0.138   3.277 -0.2975  0.5372  0.9310
   83MOL   H13333097   2.073   7.847   3.382  1.0443 -1.8378 -1.2950
   83MOL   H13433098   2.216   7.684   3.514 -0.8406  0.4304 -0.0990
   83MOL   H13533099   2.619   7.642   3.690 -1.3311  0.3049  1.1411
   83MOL   H13633100   2.645   7.752   3.565  1.3681 -0.2383  0.4280
   83MOL   H13733101   2.581   7.816   3.721  1.1621 -0.3213  0.4831
   83MOL   H13833102   2.535   7.975   3.539  0.5612  2.0684 -1.8247
   83MOL   H13933103   2.393   0.091   3.409 -0.6734  0.6343 -0.7631
   83MOL   H14033104   2.058   0.140   3.480 -0.3702  0.0188 -0.0671
   83MOL   H14133105   1.963   0.021   3.407 -0.9181  2.2103  0.8072
   83MOL   C14233106   1.948   0.227   3.319  0.1921  0.7219  0.0722
   83MOL   C14333107   1.830   0.267   3.407  0.2186 -0.3694 -0.6355
   83MOL   C14433108   1.698   0.253   3.368 -0.0940 -0.0658  0.5486
   83MOL   C14533109   1.593   0.303   3.444 -0.3082  0.0609  0.4022
   83MOL   C14633110   1.615   0.364   3.573  0.7109 -0.5113 -0.1726
   83MOL   O14733111   1.526   0.437   3.654 -0.0416 -0.1212 -0.3415
   83MOL   C14833112   1.393   0.463   3.608  0.1490  0.0177 -0.1422
   83MOL   C14933113   1.746   0.372   3.618  0.3354 -0.4594  0.5860
   83MOL   C15033114   1.849   0.321   3.538 -0.6059 -0.5416  0.6585
   83MOL   C15133115   2.047   0.346   3.279 -0.3827 -0.1892  0.8087
   83MOL   H15233116   1.903   0.196   3.225 -0.0974 -2.3745  1.1962
   83MOL   H15333117   1.672   0.202   3.276  1.4359  1.0431 -0.5276
   83MOL   H15433118   1.490   0.285   3.417 -0.2465 -0.4384  0.5031
   83MOL   H15533119   1.412   0.514   3.514  0.9620  1.0300  0.5517
   83MOL   H15633120   1.335   0.372   3.591 -0.4704  0.8417 -2.5967
   83MOL   H15733121   1.336   0.524   3.678  0.9317 -0.1799  0.6788
   83MOL   H15833122   1.767   0.422   3.711  0.4223  2.0559 -0.7418
   83MOL   H15933123   1.951   0.341   3.569 -0.3167 -1.5626  0.4055
   83MOL   H16033124   2.114   0.322   3.196  0.1586  2.4829  0.4448
   83MOL   H16133125   2.109   0.361   3.367  0.4742 -1.6500  0.4797
   83MOL   C16233126   1.977   0.478   3.235  0.0545  0.2261 -0.6730
   83MOL   C16333127   1.887   0.456   3.114 -0.1046  0.9979  0.0035
   83MOL   C16433128   1.948   0.411   2.995  0.1263 -0.0720 -0.5901
   83MOL   C16533129   1.872   0.379   2.881  0.1009 -0.4553  0.6892
   83MOL   C16633130   1.727   0.385   2.892 -0.2234 -0.1105 -1.0065
   83MOL   O16733131   1.637   0.356   2.790 -0.5118 -0.0995  0.1062
   83MOL   C16833132   1.691   0.293   2.676  0.1468  0.4674 -0.2096
   83MOL   C16933133   1.675   0.430   3.017  0.4739 -0.4183  0.0783
   83MOL   C17033134   1.750   0.481   3.120  0.4894 -0.0030  0.1031
   83MOL   C17133135   2.088   0.586   3.209 -0.1470 -0.1444 -0.8538
   83MOL   H17233136   1.916   0.504   3.321  0.0863 -0.6225 -0.3929
   83MOL   H17333137   2.055   0.400   2.987  0.3994  1.8515 -0.0161
   83MOL   H17433138   1.914   0.354   2.784  0.8083  1.7073  0.4051
   83MOL   H17533139   1.622   0.294   2.592 -1.4488  0.4836  1.0618
   83MOL   H17633140   1.722   0.189   2.685 -0.3769  0.3540  0.3952
   83MOL   H17733141   1.769   0.346   2.621 -0.0650  1.1349  0.1272
   83MOL   H17833142   1.568   0.433   3.037  0.0530  2.2754 -2.2486
   83MOL   H17933143   1.700   0.521   3.207  1.5770  1.5034  0.0578
   83MOL   H18033144   2.169   0.539   3.153  1.5452 -1.0187  2.1954
   83MOL   H18133145   2.137   0.605   3.305 -0.4001  2.0977 -1.1268
   83MOL   C18233146   2.040   0.720   3.138 -0.5798  0.1299  0.5929
   83MOL   C18333147   2.163   0.801   3.086 -0.2912  0.3673 -0.3556
   83MOL   C18433148   2.166   0.856   2.953 -0.2204  0.7562 -0.4487
   83MOL   C18533149   2.286   0.917   2.914 -0.9645  0.2670  0.5270
   83MOL   C18633150   2.396   0.946   3.000 -0.1713  0.5615  0.1449
   83MOL   O18733151   2.509   1.003   2.958 -0.2825 -0.6167 -0.3799
   83MOL   C18833152   2.622   1.045   3.046  0.0666  0.1291  0.0480
   83MOL   C18933153   2.389   0.897   3.134 -0.1707  0.2118 -0.1123
   83MOL   C19033154   2.272   0.819   3.173 -0.5068  0.4223 -0.1690
   83MOL   C19133155   1.952   0.811   3.231  0.3403  0.2504  0.1969
   83MOL   H19233156   1.983   0.700   3.047 -0.4810 -0.1518  0.5927
   83MOL   H19333157   2.080   0.840   2.891 -0.9165 -3.3724  1.3920
   83MOL   H19433158   2.281   0.954   2.812 -0.3325 -0.5408  0.1949
   83MOL   H19533159   2.576   1.096   3.131  2.2753  2.4820 -0.1152
   83MOL   H19633160   2.676   1.127   2.998 -2.3690  2.0505  0.4764
   83MOL   H19733161   2.690   0.968   3.082  0.2346  0.0631 -0.4114
   83MOL   H19833162   2.462   0.916   3.211 -2.0152  0.1348  1.6877
   83MOL   H19933163   2.269   0.787   3.276  0.8989 -0.6162 -0.4274
   83MOL   H20033164   1.948   0.766   3.330  0.8806 -1.7882 -0.6596
   83MOL   H20133165   2.001   0.904   3.257 -1.7244  1.7832 -1.2831
   83MOL   C20233166   1.816   0.850   3.166 -0.1807  0.8747  0.1446
   83MOL   C20333167   1.841   0.953   3.054  0.2697 -0.1336  0.5327
   83MOL   C20433168   1.809   0.928   2.921 -0.2015 -0.2051 -0.7627
   83MOL   C20533169   1.827   1.026   2.823  0.0749 -0.4541  0.3291
   83MOL   C20633170   1.877   1.156   2.857 -0.4627 -0.5268 -0.2398
   83MOL   O20733171   1.904   1.251   2.763 -0.1229  0.4352 -0.0013
   83MOL   C20833172   1.988   1.367   2.801 -0.7709 -0.2312  0.8223
   83MOL   C20933173   1.910   1.176   2.992 -0.7247  0.6706  0.5093
   83MOL   C21033174   1.895   1.075   3.087 -0.1362  0.5234 -0.6763
   83MOL   C21133175   1.727   0.911   3.270 -0.1114 -0.7143 -0.1425
   83MOL   H21233176   1.772   0.762   3.120  3.6863 -0.1851 -1.7275
   83MOL   H21333177   1.773   0.828   2.898 -0.5113  0.2581 -2.3111
   83MOL   H21433178   1.793   1.012   2.722 -0.7974  0.6516  0.4566
   83MOL   H21533179   1.950   1.454   2.855  1.2191 -0.2515  2.2971
   83MOL   H21633180   2.080   1.342   2.853  0.4777  1.7812 -0.3453
   83MOL   H21733181   2.022   1.404   2.705 -1.9404 -0.1569  0.4341
   83MOL   H21833182   1.945   1.270   3.033 -2.1137  1.7570 -0.7313
   83MOL   H21933183   1.915   1.097   3.191 -0.8132  2.5775 -0.9510
   83MOL   H22033184   1.775   0.984   3.335  1.1360  1.1460 -3.0597
   83MOL   H22133185   1.707   0.834   3.345 -0.3063 -0.4407  0.0923
   83MOL   C22233186   1.593   0.962   3.214  0.9344  0.0760 -0.0377
   83MOL   C22333187   1.516   0.842   3.143 -0.3544  0.0455  0.4603
   83MOL   C22433188   1.457   0.739   3.215  0.0744  0.1718 -0.6143
   83MOL   C22533189   1.378   0.641   3.153  0.3559 -0.3517 -0.3229
   83MOL   C22633190   1.371   0.629   3.015 -0.4857 -0.4135  0.2076
   83MOL   O22733191   1.289   0.535   2.962 -0.0427 -0.2978  0.2023
   83MOL   C22833192   1.303   0.508   2.827  0.3840  0.5441  0.8712
   83MOL   C22933193   1.446   0.725   2.940  1.0287 -0.2318  0.4095
   83MOL   C23033194   1.504   0.833   3.002  0.0310 -0.8887  0.1504
   83MOL   C23133195   1.504   1.017   3.326  0.3028 -0.9555 -0.6260
   83MOL   H23233196   1.602   1.035   3.134 -0.8825  1.7051  1.1965
   83MOL   H23333197   1.461   0.735   3.323  0.0064 -0.3307 -0.6285
   83MOL   H23433198   1.325   0.570   3.214 -2.8659  1.6237 -0.7026
   83MOL   H23533199   1.405   0.479   2.801 -0.6981 -2.0484 -0.7433
   83MOL   H23633200   1.231   0.434   2.793  1.5632  0.3680 -1.3106
   83MOL   H23733201   1.254   0.590   2.775  0.5577 -0.0914 -0.3119
   83MOL   H23833202   1.429   0.738   2.834 -0.8423 -1.6216  0.5081
   83MOL   H23933203   1.554   0.900   2.933  0.3878 -1.9648 -0.6619
   83MOL   H24033204   1.400   1.024   3.294  0.6081  0.2531 -1.3890
   83MOL   H24133205   1.499   0.943   3.406 -0.0423 -0.2673  0.0020
   83MOL   C24233206   1.549   1.157   3.375  0.4572 -0.1351 -0.3379
   83MOL   C24333207   1.519   1.276   3.285 -0.8691 -0.0393 -0.3934
   83MOL   C24433208   1.618   1.373   3.265 -0.8319  0.2336 -0.0345
   83MOL   C24533209   1.587   1.491   3.196 -0.7900 -0.8304  0.0624
   83MOL   C24633210   1.459   1.520   3.143 -0.1603  0.2555  0.2599
   83MOL   O24733211   1.418   1.638   3.079  0.0048 -0.4323  0.2873
   83MOL   C24833212   1.519   1.742   3.064  0.2115  0.5397  0.0592
   83MOL   C24933213   1.357   1.419   3.158 -0.8120  0.2020  0.0024
   83MOL   C25033214   1.390   1.296   3.227  0.3811 -0.8516  0.0389
   83MOL   C25133215   1.477   1.183   3.512 -0.7625 -0.0818  0.0941
   83MOL   H25233216   1.655   1.152   3.398  0.4513 -0.6655 -0.4367
   83MOL   H25333217   1.719   1.345   3.294 -1.5054  0.2647  2.4915
   83MOL   H25433218   1.668   1.557   3.170 -0.1006  0.2296  4.4267
   83MOL   H25533219   1.599   1.729   2.991  0.3218  0.8550  0.1207
   83MOL   H25633220   1.474   1.841   3.049  0.1252  0.2369 -1.7675
   83MOL   H25733221   1.573   1.761   3.157  2.2929  1.0925 -1.2172
   83MOL   H25833222   1.262   1.436   3.110  0.7747  2.7353 -2.4408
   83MOL   H25933223   1.310   1.223   3.233  0.1266 -0.6092 -0.3361
   83MOL   H26033224   1.372   1.159   3.500 -0.4560 -2.1745  1.3127
   83MOL   H26133225   1.481   1.287   3.544  0.2800  0.2297 -1.0161
   83MOL   C26233226   1.543   1.108   3.633  0.4850 -0.1096  0.5282
   83MOL   C26333227   1.447   1.077   3.749 -0.8409 -0.1215  0.0863
   83MOL   C26433228   1.347   1.166   3.779 -0.4844  0.2435 -0.0940
   83MOL   C26533229   1.258   1.145   3.877  0.6203  0.3730  0.4160
   83MOL   C26633230   1.264   1.036   3.966  0.6242  0.3153 -0.6019
   83MOL   O26733231   1.171   1.033   4.065 -0.2922  0.4500 -0.5723
   83MOL   C26833232   1.135   0.896   4.113 -0.7045  0.2772 -0.2100
   83MOL   C26933233   1.355   0.928   3.932  0.0789 -0.3564 -0.4136
   83MOL   C27033234   1.454   0.954   3.826 -0.1536 -0.1330 -0.7897
   83MOL   C27133235   1.668   1.186   3.684 -0.8534  0.6808 -0.6084
   83MOL   H27233236   1.575   1.009   3.602  0.8099 -0.0017  0.5100
   83MOL   H27333237   1.329   1.253   3.718 -0.8892  1.0618  1.1766
   83MOL   H27433238   1.188   1.224   3.897 -0.0632 -0.0592 -0.2821
   83MOL   H27533239   1.136   0.817   4.039  1.4210 -0.8706  0.9928
   83MOL   H27633240   1.044   0.895   4.173  1.4042  0.1267  3.1117
   83MOL   H27733241   1.223   0.868   4.171 -0.1655 -1.4255 -1.8086
   83MOL   H27833242   1.355   0.828   3.973  1.9492  0.6282  2.1292
   83MOL   H27933243   1.524   0.874   3.805 -0.8794 -0.7307 -0.9567
   83MOL   H28033244   1.720   1.241   3.605 -0.1043 -0.2846 -0.8007
   83MOL   H28133245   1.629   1.269   3.743 -0.8719  1.7958 -2.1453
   83MOL   C28233246   1.771   1.097   3.767  0.0438 -0.2717 -0.1978
   83MOL   C28333247   1.869   1.192   3.842 -0.3655  0.2044 -0.2700
   83MOL   C28433248   1.954   1.278   3.773  0.3358 -0.1057 -0.0426
   83MOL   C28533249   2.036   1.359   3.845  0.2888 -0.4810  0.1247
   83MOL   C28633250   2.045   1.361   3.983 -0.3884  0.8365  0.0275
   83MOL   O28733251   2.127   1.454   4.045 -0.5079 -0.8719 -0.5648
   83MOL   C28833252   2.122   1.444   4.185 -0.4571  0.0312  0.4231
   83MOL   C28933253   1.968   1.257   4.052 -0.3568 -0.5470  0.5801
   83MOL   C29033254   1.879   1.176   3.982  0.1302 -0.3101  0.3211
   83MOL   C29133255   1.844   0.993   3.678 -0.0381 -0.0813 -0.6739
   83MOL   H29233256   1.713   1.044   3.842 -0.0876 -0.3543 -0.3548
   83MOL   H29333257   1.968   1.278   3.666  0.4749  1.2106 -0.0251
   83MOL   H29433258   2.094   1.430   3.789 -1.1435 -0.4425 -1.3434
   83MOL   H29533259   2.028   1.480   4.227 -1.1378 -0.4582 -0.6509
   83MOL   H29633260   2.151   1.343   4.216 -1.5941  0.0611  1.6558
   83MOL   H29733261   2.201   1.507   4.226  0.9180 -1.1779 -0.3569
   83MOL   H29833262   1.960   1.261   4.159  0.5303 -0.8148  0.6667
   83MOL   H29933263   1.809   1.106   4.024 -0.0128 -1.6731 -2.0809
   83MOL   H30033264   1.764   0.944   3.623 -2.4963  0.6504  2.1195
   83MOL   H30133265   1.903   1.046   3.603 -0.4642  1.2225 -0.1078
   83MOL   C30233266   1.937   0.887   3.740 -0.1583 -0.2827  0.2610
   83MOL   C30333267   1.876   0.806   3.847 -0.2144 -1.1686  0.1445
   83MOL   C30433268   1.915   0.817   3.982  0.1201 -0.1366  0.0884
   83MOL   C30533269   1.849   0.741   4.080 -0.0572  0.0582  0.0206
   83MOL   C30633270   1.731   0.665   4.046 -0.2632  0.2109  0.0931
   83MOL   O30733271   1.664   0.589   4.139  0.1473  0.2378 -0.0005
   83MOL   C30833272   1.696   0.598   4.276 -0.2676 -0.7012  0.1412
   83MOL   C30933273   1.687   0.660   3.912 -0.4844 -0.0772  0.1174
   83MOL   C31033274   1.760   0.733   3.816 -0.8444  0.7720  0.8335
   83MOL   C31133275   2.005   0.799   3.635 -0.2809  1.3092 -0.5990
   83MOL   H31233276   2.013   0.942   3.796 -0.1831  2.8487 -2.6136
   83MOL   H31333277   2.001   0.877   4.008 -0.4785  0.9867 -0.4703
   83MOL   H31433278   1.885   0.746   4.181  0.1879  0.5004 -0.0907
   83MOL   H31533279   1.800   0.572   4.295 -0.2723 -2.1135 -1.6685
   83MOL   H31633280   1.626   0.527   4.320  0.8341 -2.6854 -1.2622
   83MOL   H31733281   1.688   0.699   4.318 -2.6280 -1.0316  0.5438
   83MOL   H31833282   1.600   0.605   3.882 -0.4907  0.1390 -0.2642
   83MOL   H31933283   1.732   0.729   3.712  0.2613 -0.0812  0.5545
   83MOL   H32033284   2.029   0.851   3.542  1.4768 -1.7695 -1.9622
   83MOL   H32133285   1.935   0.720   3.607  0.1037  1.4425 -2.0154
   83MOL   C32233286   2.132   0.729   3.693  0.2121  0.0326  0.3943
   83MOL   C32333287   2.247   0.825   3.701 -0.3939 -0.6729  0.3651
   83MOL   C32433288   2.303   0.888   3.584  0.1611  0.9444  0.1415
   83MOL   C32533289   2.425   0.961   3.594 -0.5478  0.6156  0.3001
   83MOL   C32633290   2.480   0.989   3.717 -0.1394 -0.0048 -0.3535
   83MOL   O32733291   2.606   1.052   3.730  0.1770 -0.5199 -0.4453
   83MOL   C32833292   2.677   1.086   3.615 -0.6771  0.1717  0.8072
   83MOL   C32933293   2.427   0.931   3.837  0.0319  0.3260  0.1237
   83MOL   C33033294   2.320   0.843   3.825  0.1617  0.6400  0.0834
   83MOL   C33133295   2.172   0.601   3.608 -0.0213 -0.5089 -0.2490
   83MOL   H33233296   2.120   0.685   3.792  1.7755  0.0570  0.6026
   83MOL   H33333297   2.260   0.871   3.486  2.1607 -0.1672 -0.5534
   83MOL   H33433298   2.462   1.008   3.505 -0.6419 -1.5253 -0.9181
   83MOL   H33533299   2.621   1.150   3.548  2.8922  1.9681 -0.5783
   83MOL   H33633300   2.693   1.001   3.548 -0.3601  1.4408 -0.7585
   83MOL   H33733301   2.777   1.125   3.634 -0.2247 -0.1532 -0.8251
   83MOL   H33833302   2.494   0.931   3.921  0.0631 -2.3327  0.1402
   83MOL   H33933303   2.279   0.796   3.912 -1.6034  1.3875 -0.3179
   83MOL   H34033304   2.084   0.536   3.606 -0.3651 -0.0118 -2.1415
   83MOL   H34133305   2.181   0.636   3.505  1.4764 -1.7255 -0.5530
   83MOL   C34233306   2.303   0.514   3.647 -0.3283  0.6837 -0.1079
   83MOL   C34333307   2.415   0.546   3.545 -0.1075  0.8950 -0.2029
   83MOL   C34433308   2.397   0.507   3.416  0.0692 -0.1125 -0.0378
   83MOL   C34533309   2.483   0.553   3.319 -0.2891 -0.1340 -0.0888
   83MOL   C34633310   2.594   0.635   3.345 -0.1886  0.1036 -0.1607
   83MOL   O34733311   2.690   0.675   3.254  0.9135  0.0777  0.3246
   83MOL   C34833312   2.668   0.643   3.117 -0.1049 -0.3344  0.1476
   83MOL   C34933313   2.611   0.663   3.484  0.1013 -0.3480  0.6954
   83MOL   C35033314   2.524   0.622   3.585 -0.9150 -0.6799  0.6098
   83MOL   C35133315   2.288   0.363   3.676  0.0076 -0.3904  0.5845
   83MOL   H35233316   2.331   0.549   3.746  0.9930 -1.6764  0.3974
   83MOL   H35333317   2.305   0.456   3.388 -0.2747 -1.0601  2.6401
   83MOL   H35433318   2.461   0.531   3.215 -1.1590  0.5864 -0.0605
   83MOL   H35533319   2.651   0.535   3.111 -0.8338 -0.2720  1.0374
   83MOL   H35633320   2.571   0.678   3.082  0.1050  0.4140  0.3018
   83MOL   H35733321   2.753   0.671   3.055 -1.0600  2.8120  0.1761
   83MOL   H35833322   2.702   0.716   3.510 -0.9323  0.2224  3.2841
   83MOL   H35933323   2.538   0.648   3.689  1.6282  1.5261 -0.2244
   83MOL   H36033324   2.242   0.321   3.586  2.1858 -0.7802 -0.3644
   83MOL   H36133325   2.391   0.330   3.684 -0.6510 -2.6638  0.1195
   83MOL   C36233326   2.206   0.317   3.802 -0.2254 -0.2830 -0.0639
   83MOL   C36333327   2.245   0.401   3.928 -0.3372 -0.6765 -0.3649
   83MOL   C36433328   2.379   0.389   3.981  0.7378  0.2737 -0.6337
   83MOL   C36533329   2.409   0.470   4.093  0.9325 -0.6098 -0.3165
   83MOL   C36633330   2.312   0.557   4.153 -0.1698 -0.1156 -0.3810
   83MOL   O36733331   2.349   0.652   4.248  0.1222  0.0711  1.1627
   83MOL   C36833332   2.469   0.626   4.324  0.3263  0.2551 -0.2759
   83MOL   C36933333   2.178   0.563   4.101 -0.0139 -0.3920 -0.2721
   83MOL   C37033334   2.151   0.487   3.988  0.9116  0.3529 -0.8311
   83MOL   C37133335   2.218   0.163   3.822  0.1938 -0.3702  0.0909
   83MOL   H37233336   2.100   0.332   3.780  0.3664  1.3037 -2.0062
   83MOL   H37333337   2.453   0.326   3.935 -0.1466 -0.4962 -1.0365
   83MOL   H37433338   2.512   0.458   4.124  0.8480 -3.5689 -0.9932
   83MOL   H37533339   2.490   0.523   4.350  0.1587  0.4362  0.5930
   83MOL   H37633340   2.560   0.671   4.285  0.2280  0.6088 -0.1048
   83MOL   H37733341   2.448   0.673   4.420 -0.5873 -0.3175 -0.1825
   83MOL   H37833342   2.110   0.640   4.135 -0.9084 -0.8386 -1.0061
   83MOL   H37933343   2.053   0.487   3.943 -0.5915  1.7243  2.2873
   83MOL   H38033344   2.189   0.118   3.727 -2.8377 -1.8124  1.6106
   83MOL   H38133345   2.326   0.151   3.829  0.3408  1.3305  1.0307
   83MOL   C38233346   2.151   0.104   3.945  0.2428 -0.7327 -0.2754
   83MOL   C38333347   2.231   8.013   3.981  0.4743  0.1162  1.0069
   83MOL   C38433348   2.236   7.901   3.889 -0.1894  0.1600  0.1724
   83MOL   C38533349   2.302   7.778   3.921  0.7236  0.3332 -1.0624
   83MOL   C38633350   2.370   7.770   4.040  0.1634 -0.3431  0.1446
   83MOL   O38733351   2.443   7.661   4.084 -0.9360  0.5390 -0.4753
   83MOL   C38833352   2.425   7.550   4.002 -0.4533  0.8042  0.0306
   83MOL   C38933353   2.386   7.888   4.122 -0.0905  0.5479  0.1761
   83MOL   C39033354   2.312   8.003   4.095 -0.4838  0.1948 -0.2805
   83MOL   C39133355   1.998   0.086   3.938  0.2477  0.0281 -0.0942
   83MOL   H39233356   2.174   0.168   4.030  2.9270 -1.1451 -0.6469
   83MOL   H39333357   2.168   7.890   3.806 -0.3471 -1.1290  0.4586
   83MOL   H39433358   2.283   7.698   3.850 -0.5851  0.2366 -0.6170
   83MOL   H39533359   2.322   7.517   3.997  0.0866 -0.5892 -2.5219
   83MOL   H39633360   2.472   7.468   4.056 -0.1817  0.8536 -0.1296
   83MOL   H39733361   2.452   7.557   3.897 -3.0317  2.0991 -0.5826
   83MOL   H39833362   2.445   7.885   4.212  0.4956 -0.7817 -0.2386
   83MOL   H39933363   2.315   0.042   4.169 -2.1101  1.1589 -1.2194
   83MOL   H40033364   1.956   0.045   3.846 -0.8802 -0.5312  0.6569
   83MOL   H40133365   1.961   0.189   3.939 -1.4973 -0.5821  0.5921
   83MOL   H40233366   1.969   0.041   4.033  1.8257 -1.1250 -0.1388
   84MOL     C133367   1.525   4.404   0.266  0.6040 -0.4209  0.3264
   84MOL     C233368   1.601   4.522   0.330 -0.0689 -0.1299  0.2387
   84MOL     C333369   1.528   4.611   0.415 -0.0767  0.2919 -0.6894
   84MOL     C433370   1.582   4.726   0.463 -0.7172  0.0250  0.1991
   84MOL     C533371   1.722   4.748   0.442 -0.1729 -0.2483 -0.5981
   84MOL     O633372   1.768   4.865   0.498 -0.2811 -0.2701 -0.0643
   84MOL     C733373   1.908   4.888   0.495  0.4331  0.5832 -0.2756
   84MOL     C833374   1.795   4.659   0.363 -0.2853  0.4982 -0.1811
   84MOL     C933375   1.737   4.544   0.305 -0.0287 -0.7826 -0.2491
   84MOL    C1033376   1.421   4.450   0.160  0.3622 -0.3580 -0.2095
   84MOL    H1133377   1.481   4.351   0.350  0.4312  1.6423  1.5657
   84MOL    H1233378   1.422   4.597   0.431  0.3418 -0.6746  1.3439
   84MOL    H1333379   1.524   4.796   0.522  0.6327  1.5235 -0.2090
   84MOL    H1433380   1.936   4.979   0.548  0.2528  1.5759 -1.8681
   84MOL    H1533381   1.955   4.802   0.543  2.0146  1.0060 -1.0456
   84MOL    H1633382   1.955   4.897   0.398 -1.3090 -3.1440 -1.5637
   84MOL    H1733383   1.896   4.687   0.339 -1.2356  2.6596 -1.8459
   84MOL    H1833384   1.800   4.478   0.248  0.3444  0.0325 -0.7937
   84MOL    H1933385   1.336   4.483   0.221  0.1382 -0.8774 -0.2360
   84MOL    H2033386   1.451   4.535   0.099  0.9078  0.1952  0.8100
   84MOL    H2133387   1.600   4.354   0.204  2.4828  2.3289  0.2998
   84MOL    C2233388   1.367   4.340   0.067 -0.9651  0.0117  0.3619
   84MOL    C2333389   1.325   4.204   0.134  0.4831  0.1177  0.2195
   84MOL    C2433390   1.255   4.194   0.258 -0.2345 -0.1923 -0.2694
   84MOL    C2533391   1.234   4.073   0.325  0.4309  0.5008 -1.0314
   84MOL    C2633392   1.278   3.954   0.270  0.5349  0.1712  0.5204
   84MOL    O2733393   1.258   3.841   0.341 -0.1575 -0.1302 -0.9639
   84MOL    C2833394   1.275   3.711   0.282 -0.5579 -0.3999  0.4190
   84MOL    C2933395   1.343   3.955   0.146  0.2538 -1.0606  0.1402
   84MOL    C3033396   1.366   4.082   0.077  0.3996  0.4488  0.4248
   84MOL    C3133397   1.263   4.404   8.020  0.2200 -0.0337  0.2835
   84MOL    H3233398   1.447   4.304   0.002 -1.1228  2.4117 -1.2345
   84MOL    H3333399   1.223   4.285   0.308  2.5334 -0.1823  1.6216
   84MOL    H3433400   1.171   4.065   0.412  1.4919  1.3265 -0.1624
   84MOL    H3533401   1.236   3.635   0.350 -1.6222  1.5342  2.0235
   84MOL    H3633402   1.378   3.687   0.255 -0.7235 -0.9309  0.2505
   84MOL    H3733403   1.213   3.716   0.192  1.7555 -1.1343 -1.2417
   84MOL    H3833404   1.376   3.867   0.094  3.3761 -0.1567  0.4916
   84MOL    H3933405   1.430   4.072   8.030  1.0879 -0.6294  1.0385
   84MOL    H4033406   1.192   4.456   0.043 -2.2989 -2.2688 -0.6314
   84MOL    H4133407   1.309   4.477   7.953  0.5450  0.5118  1.0898
   84MOL    C4233408   1.179   4.309   7.939  0.4545  0.4826  0.2253
   84MOL    C4333409   1.258   4.239   7.822  0.0261  0.3114 -0.0782
   84MOL    C4433410   1.250   4.101   7.802  0.1238  0.0714 -0.0307
   84MOL    C4533411   1.294   4.041   7.685  0.3294  0.4800 -0.0355
   84MOL    C4633412   1.366   4.123   7.593  0.1486  0.1181  0.6909
   84MOL    O4733413   1.428   4.075   7.477 -0.0968 -0.0271 -0.4786
   84MOL    C4833414   1.396   3.946   7.431 -0.5807  0.4388 -0.0927
   84MOL    C4933415   1.384   4.262   7.611  0.3608  0.2776 -0.7799
   84MOL    C5033416   1.328   4.320   7.731 -0.1702 -0.0883  0.3503
   84MOL    C5133417   1.053   4.380   7.876  0.7193  0.0350 -1.0837
   84MOL    H5233418   1.145   4.237   8.014  1.0895 -0.2280 -0.1632
   84MOL    H5333419   1.204   4.034   7.874 -1.3482 -0.7233 -1.6763
   84MOL    H5433420   1.288   3.934   7.677 -1.6769  0.5724 -0.2294
   84MOL    H5533421   1.473   3.900   7.369 -0.8272 -2.5492  1.7066
   84MOL    H5633422   1.379   3.866   7.504 -0.7390  1.0520  0.5492
   84MOL    H5733423   1.313   3.952   7.362  0.5858 -0.0750 -1.5624
   84MOL    H5833424   1.442   4.316   7.537 -1.7941  1.0325 -1.9633
   84MOL    H5933425   1.336   4.428   7.734 -1.3709  0.0510 -0.7632
   84MOL    H6033426   1.014   4.308   7.805 -0.5431  2.7931 -3.2683
   84MOL    H6133427   1.094   4.457   7.811  1.1034  0.2679 -0.5745
   84MOL    C6233428   0.941   4.422   7.975 -0.1736  0.2875  0.1180
   84MOL    C6333429   0.916   4.333   0.051  0.3071 -0.3939 -0.0721
   84MOL    C6433430   0.937   4.376   0.184  0.4108  0.1451  0.3935
   84MOL    C6533431   0.910   4.283   0.294 -0.2423 -0.1351 -0.1192
   84MOL    C6633432   0.868   4.150   0.268  0.1215 -0.3735  0.2778
   84MOL    O6733433   0.847   4.066   0.375 -0.2892  0.4013 -0.0095
   84MOL    C6833434   0.872   3.933   0.362 -0.1771  0.2814 -0.4132
   84MOL    C6933435   0.831   4.117   0.132  0.6551  0.0673 -0.3820
   84MOL    C7033436   0.865   4.206   0.028 -1.0291  1.0382  0.5714
   84MOL    C7133437   0.815   4.453   7.900 -0.2184  0.4652 -0.4901
   84MOL    H7233438   0.993   4.508   8.017 -0.1379  1.3825 -2.0812
   84MOL    H7333439   0.979   4.475   0.200  0.2278  0.4142 -0.7274
   84MOL    H7433440   0.921   4.322   0.394 -1.8064  0.2379 -0.0755
   84MOL    H7533441   0.867   3.893   0.463 -0.4251  0.6779 -0.2698
   84MOL    H7633442   0.968   3.913   0.313  0.3490  0.0405  0.6973
   84MOL    H7733443   0.782   3.896   0.313 -1.0774  0.1060  1.3399
   84MOL    H7833444   0.795   4.017   0.117  0.2367  0.0124  0.9545
   84MOL    H7933445   0.855   4.180   7.964  1.3712  1.7254  0.1304
   84MOL    H8033446   0.836   4.497   7.802 -0.7226  1.9812  0.0751
   84MOL    H8133447   0.762   4.363   7.870 -3.9085  2.3836 -0.0399
   84MOL    C8233448   0.716   4.545   7.968 -0.4171 -0.3951 -0.1348
   84MOL    C8333449   0.749   4.693   7.970 -0.1974  1.0021  0.1080
   84MOL    C8433450   0.670   4.779   0.000 -0.7718  0.4301 -0.5773
   84MOL    C8533451   0.700   4.913   0.020 -0.4826  0.2155  0.4382
   84MOL    C8633452   0.813   4.963   7.993 -0.0083  0.6147 -0.1900
   84MOL    O8733453   0.847   5.097   8.015  0.2865 -0.1202 -0.0437
   84MOL    C8833454   0.981   5.137   8.002  0.0906  0.1206 -0.5333
   84MOL    C8933455   0.895   4.879   7.915 -0.5685 -0.1899  0.0925
   84MOL    C9033456   0.861   4.745   7.900 -0.1570 -0.2160  0.0742
   84MOL    C9133457   0.574   4.518   7.915  0.2449  0.0602 -0.3219
   84MOL    H9233458   0.710   4.527   0.035  0.3045 -0.1511 -0.0541
   84MOL    H9333459   0.585   4.738   0.053 -1.2969  2.0187 -0.1708
   84MOL    H9433460   0.633   4.979   0.073 -1.0845 -1.8052  2.2674
   84MOL    H9533461   1.002   5.228   0.018 -2.7002 -0.7097  2.0300
   84MOL    H9633462   0.994   5.163   7.897  0.1030  0.2047 -0.5117
   84MOL    H9733463   1.048   5.054   8.025 -1.7126 -0.4824  2.9077
   84MOL    H9833464   0.986   4.913   7.867 -0.7940 -1.1449 -1.0294
   84MOL    H9933465   0.930   4.676   7.853 -0.2911  0.2947 -0.8837
   84MOL   H10033466   0.511   4.607   7.928 -2.1403 -1.4057 -1.4794
   84MOL   H10133467   0.586   4.495   7.809  0.8261 -2.7278  0.3239
   84MOL   C10233468   0.517   4.392   7.983  0.1212 -0.0522 -0.1176
   84MOL   C10333469   0.477   4.412   0.092  0.5458 -0.0709  0.2846
   84MOL   C10433470   0.392   4.515   0.127 -0.8777 -1.0836 -0.2589
   84MOL   C10533471   0.366   4.525   0.269  0.6087  0.2840 -0.4471
   84MOL   C10633472   0.432   4.445   0.365 -0.1712  0.2545 -0.2782
   84MOL   O10733473   0.400   4.454   0.503 -0.3783  0.0897  0.2857
   84MOL   C10833474   0.370   4.584   0.547  0.2669  0.3157 -0.2148
   84MOL   C10933475   0.515   4.339   0.321  0.3747 -0.3610 -0.0583
   84MOL   C11033476   0.535   4.321   0.179 -0.4007  0.2453  0.3916
   84MOL   C11133477   0.395   4.347   7.898  0.6688  0.1187 -0.2706
   84MOL   H11233478   0.593   4.316   7.968  1.0479  1.1127 -1.4636
   84MOL   H11333479   0.352   4.580   0.052  1.0717 -0.8987 -1.1810
   84MOL   H11433480   0.292   4.594   0.306  1.3364  1.3105 -0.8533
   84MOL   H11533481   0.413   4.665   0.488  0.4291 -0.2434 -0.8676
   84MOL   H11633482   0.262   4.596   0.540  0.2519 -0.8837 -2.7359
   84MOL   H11733483   0.386   4.600   0.654 -2.4866  0.5824  0.1935
   84MOL   H11833484   0.560   4.266   0.387 -1.6905 -0.0494  1.7641
   84MOL   H11933485   0.600   4.247   0.136 -0.0605  0.9832 -0.3747
   84MOL   H12033486   0.308   4.406   7.925  1.7351  0.9500  1.3888
   84MOL   H12133487   0.408   4.369   7.792 -0.6480  1.1313 -0.2339
   84MOL   C12233488   0.369   4.195   7.907 -0.1666  0.2877 -0.1457
   84MOL   C12333489   0.492   4.117   7.863 -0.3658  0.1327 -0.4331
   84MOL   C12433490   0.538   4.126   7.725  0.0941  0.2629 -0.6092
   84MOL   C12533491   0.641   4.051   7.677 -0.3667  0.2406 -0.8658
   84MOL   C12633492   0.708   3.965   7.765 -0.1436 -0.4188 -0.1027
   84MOL   O12733493   0.821   3.895   7.721  0.4450  0.0704  0.2233
   84MOL   C12833494   0.916   3.850   7.819 -0.0920  0.2513  0.3003
   84MOL   C12933495   0.661   3.943   7.899 -0.0637  0.5234  0.6450
   84MOL   C13033496   0.555   4.017   7.945 -0.2861 -0.4579 -0.0878
   84MOL   C13133497   0.240   4.147   7.851  0.6672  0.6426 -0.6265
   84MOL   H13233498   0.358   4.178   8.015 -0.4486 -0.3669 -0.2735
   84MOL   H13333499   0.496   4.187   7.646 -0.5031  0.2674 -0.2907
   84MOL   H13433500   0.664   4.051   7.572 -0.5444 -1.6816 -0.9137
   84MOL   H13533501   1.015   3.847   7.774  0.6511  2.7999  1.6679
   84MOL   H13633502   0.919   3.922   7.901 -1.1801  0.5243  0.1116
   84MOL   H13733503   0.884   3.753   7.857  0.0645 -1.3376 -3.4475
   84MOL   H13833504   0.701   3.871   7.969  0.1751  0.0621  0.0403
   84MOL   H13933505   0.521   3.992   0.005  2.3237  0.3392  1.0431
   84MOL   H14033506   0.232   4.043   7.881 -1.1213  0.6967 -0.8407
   84MOL   H14133507   0.237   4.152   7.742 -1.5835  1.5474 -0.5577
   84MOL   C14233508   0.118   4.225   7.903 -0.5589  0.5048  0.5848
   84MOL   C14333509   8.030   4.180   7.835 -0.7126  0.1456 -0.1244
   84MOL   C14433510   7.999   4.041   7.850 -0.2752 -0.4290 -0.2902
   84MOL   C14533511   7.887   3.984   7.783 -0.2238 -0.6603 -0.1939
   84MOL   C14633512   7.801   4.064   7.709 -0.4384  0.6654  0.1190
   84MOL   O14733513   7.693   4.006   7.642 -0.1108  0.5492 -0.2545
   84MOL   C14833514   7.578   4.085   7.624 -0.0062 -0.6387 -1.0984
   84MOL   C14933515   7.835   4.206   7.689  0.5984 -0.6965 -0.8649
   84MOL   C15033516   7.943   4.263   7.753 -0.6412  0.5090 -1.1873
   84MOL   C15133517   0.111   4.242   0.020  0.6408  0.2674  0.3739
   84MOL   H15233518   0.115   4.330   7.874 -1.3999  0.6789  1.2793
   84MOL   H15333519   0.022   3.980   7.913  1.2031  2.1539  0.8594
   84MOL   H15433520   7.861   3.879   7.777 -1.4593 -0.3102 -1.3767
   84MOL   H15533521   7.492   4.019   7.631 -0.0165 -0.3310  2.6529
   84MOL   H15633522   7.577   4.152   7.710 -0.7059 -1.3662 -0.5329
   84MOL   H15733523   7.581   4.154   7.540  2.4428  0.3308 -0.2631
   84MOL   H15833524   7.772   4.270   7.630  0.6606 -1.6310 -1.9624
   84MOL   H15933525   7.963   4.369   7.743 -2.1117  0.6782 -2.5407
   84MOL   H16033526   0.206   4.285   0.052  0.0445  2.0259 -0.1850
   84MOL   H16133527   0.111   4.137   0.049 -1.2973 -0.1190 -0.9482
   84MOL   C16233528   8.032   4.301   0.090 -0.4299  0.1756  0.5399
   84MOL   C16333529   8.000   4.439   0.042  0.2290  0.8475  0.1039
   84MOL   C16433530   0.060   4.537   0.025  0.0970  0.1824 -0.0831
   84MOL   C16533531   0.037   4.649   7.987 -0.4982 -0.0969  0.5206
   84MOL   C16633532   7.953   4.662   7.923  0.2145  0.2052 -0.1324
   84MOL   O16733533   7.922   4.776   7.845  0.3032 -0.3082  0.5113
   84MOL   C16833534   8.032   4.860   7.800  0.2866 -0.3779 -0.2245
   84MOL   C16933535   7.848   4.569   7.946  0.1256 -0.5224  0.1675
   84MOL   C17033536   7.870   4.452   8.022 -0.3228  0.1250 -0.0464
   84MOL   C17133537   0.005   4.291   0.242  0.3430 -0.2857 -0.7798
   84MOL   H17233538   7.948   4.235   0.067 -2.4101  2.3238  1.4260
   84MOL   H17333539   0.157   4.525   0.070 -0.6772 -1.3655  1.2365
   84MOL   H17433540   0.112   4.725   7.971 -2.0687  1.4216  0.1819
   84MOL   H17533541   0.048   4.898   7.885 -0.7705  1.4329 -0.3115
   84MOL   H17633542   7.983   4.941   7.745 -0.4177 -1.3021 -0.9616
   84MOL   H17733543   0.058   4.803   7.735 -0.1777 -0.2790 -0.7807
   84MOL   H17833544   7.746   4.574   7.910  0.6844 -1.6390 -1.6571
   84MOL   H17933545   7.793   4.376   8.028 -0.3927  0.2254  0.3461
   84MOL   H18033546   0.089   4.356   0.267  0.5730 -0.0409 -2.1508
   84MOL   H18133547   0.038   4.189   0.263  1.9515  0.5110  0.6760
   84MOL   C18233548   7.922   4.321   0.329 -0.0265  1.0546  0.2141
   84MOL   C18333549   7.963   4.422   0.436  0.0369 -0.0525  0.2129
   84MOL   C18433550   7.918   4.554   0.429 -0.2272 -0.0203 -0.8565
   84MOL   C18533551   7.953   4.643   0.527 -0.5001 -0.1219  0.4735
   84MOL   C18633552   8.039   4.605   0.636  0.2568 -0.1141  0.7716
   84MOL   O18733553   0.045   4.693   0.732  0.0616  0.2511 -0.5775
   84MOL   C18833554   0.005   4.832   0.736 -0.6141 -0.2409 -0.0491
   84MOL   C18933555   0.049   4.474   0.635  0.1745  0.1557 -0.1610
   84MOL   C19033556   0.006   4.380   0.541  0.1539 -1.0391  0.4705
   84MOL   C19133557   7.856   4.195   0.389  0.2955  0.2785  0.8541
   84MOL   H19233558   7.845   4.366   0.266 -2.2358  0.0856  2.1745
   84MOL   H19333559   7.855   4.589   0.348  1.3818 -2.7286 -3.4037
   84MOL   H19433560   7.922   4.747   0.527  3.2211  1.0793  1.3170
   84MOL   H19533561   0.043   4.883   0.647  0.7669 -1.1528 -0.0029
   84MOL   H19633562   0.049   4.877   0.824 -0.3299  0.6937 -0.6667
   84MOL   H19733563   7.936   4.831   0.725 -0.4172  0.8296 -2.4719
   84MOL   H19833564   0.106   4.436   0.718 -1.5638 -0.3486  0.8185
   84MOL   H19933565   0.029   4.276   0.561  0.5509 -0.9741  0.3365
   84MOL   H20033566   7.945   4.141   0.419  0.9252  1.0884  0.4892
   84MOL   H20133567   7.785   4.224   0.467  1.6689  1.4285  1.6930
   84MOL   C20233568   7.780   4.101   0.294  0.5059 -0.5888  0.2105
   84MOL   C20333569   7.669   4.173   0.223 -0.3259 -0.6732 -0.8723
   84MOL   C20433570   7.668   4.180   0.084 -0.4230 -0.4212 -0.0088
   84MOL   C20533571   7.565   4.257   0.021  0.3469  0.5480  0.2294
   84MOL   C20633572   7.456   4.301   0.089 -0.3475  0.4983 -0.6027
   84MOL   O20733573   7.346   4.352   0.017  0.2357  0.1816  0.8044
   84MOL   C20833574   7.226   4.384   0.096 -0.4049 -0.0979  0.0169
   84MOL   C20933575   7.462   4.302   0.232 -0.1012  0.0951 -0.1869
   84MOL   C21033576   7.567   4.234   0.295 -0.6513 -0.1396 -0.4675
   84MOL   C21133577   7.733   3.979   0.376  0.0438  0.7881 -0.6112
   84MOL   H21233578   7.840   4.061   0.212 -0.1773 -1.7987  0.2898
   84MOL   H21333579   7.750   4.136   0.028  0.7302 -0.6487  1.8292
   84MOL   H21433580   7.572   4.259   7.953 -0.9407  0.0992  0.1334
   84MOL   H21533581   7.256   4.474   0.149  1.8621  1.3420 -3.5215
   84MOL   H21633582   7.148   4.428   0.035  0.7241  1.1556 -0.5339
   84MOL   H21733583   7.185   4.301   0.154 -2.9230  1.1736  0.1123
   84MOL   H21833584   7.382   4.342   0.293 -0.3408  0.3866 -0.6860
   84MOL   H21933585   7.566   4.236   0.403  1.3501  0.2291 -0.4460
   84MOL   H22033586   7.676   4.000   0.467  1.0424  0.0887  0.1920
   84MOL   H22133587   7.829   3.940   0.411 -0.1595  0.3254 -0.5722
   84MOL   C22233588   7.668   3.870   0.296 -0.3866 -0.1092 -0.0025
   84MOL   C22333589   7.744   3.734   0.271 -0.2383  0.4891  0.2897
   84MOL   C22433590   7.771   3.693   0.142  0.1915  0.1596 -0.7573
   84MOL   C22533591   7.846   3.579   0.114  0.1631 -0.1341 -0.8821
   84MOL   C22633592   7.889   3.495   0.220 -0.0587  0.8580 -0.1752
   84MOL   O22733593   7.959   3.377   0.194 -0.0745 -0.5667  0.1275
   84MOL   C22833594   8.006   3.346   0.058  0.2781 -0.0632 -0.3319
   84MOL   C22933595   7.864   3.529   0.355  0.8378 -0.3598  0.9807
   84MOL   C23033596   7.787   3.649   0.377 -0.3354 -0.2071  0.4510
   84MOL   C23133597   7.520   3.846   0.336  0.1325  0.4093  0.5692
   84MOL   H23233598   7.671   3.908   0.194  1.1353  0.5057  0.2636
   84MOL   H23333599   7.728   3.756   0.065 -2.0390 -0.0971  0.2630
   84MOL   H23433600   7.870   3.554   0.012  0.1693 -0.9902 -0.6801
   84MOL   H23533601   0.027   3.423   0.012 -1.1902  0.3907 -1.5544
   84MOL   H23633602   0.020   3.251   0.060 -0.2430 -0.3633 -0.2098
   84MOL   H23733603   7.917   3.339   8.036  0.8952  1.6513 -1.4408
   84MOL   H23833604   7.910   3.468   0.432  0.1861  1.5290  2.9158
   84MOL   H23933605   7.768   3.681   0.479 -0.1220 -0.5878  0.6127
   84MOL   H24033606   7.526   3.785   0.426 -0.7205 -0.7232 -0.1352
   84MOL   H24133607   7.474   3.937   0.373 -3.9736 -1.2692 -0.1783
   84MOL   C24233608   7.433   3.776   0.227  0.5151 -0.3646 -0.4860
   84MOL   C24333609   7.312   3.698   0.283 -0.2048 -0.1809  0.4793
   84MOL   C24433610   7.288   3.563   0.259 -0.3515 -0.1155 -0.8515
   84MOL   C24533611   7.169   3.498   0.308 -0.6446 -0.2544 -0.8157
   84MOL   C24633612   7.065   3.580   0.363 -0.0064 -0.1476  0.4022
   84MOL   O24733613   6.943   3.528   0.416 -0.1597 -0.6559 -0.2174
   84MOL   C24833614   6.891   3.408   0.352 -0.1779 -0.3033  0.0114
   84MOL   C24933615   7.089   3.715   0.384 -0.1454  1.1056  0.3621
   84MOL   C25033616   7.218   3.773   0.359 -0.5765  1.2793  0.6668
   84MOL   C25133617   7.396   3.899   0.139 -0.1671  0.2744  0.3357
   84MOL   H25233618   7.508   3.713   0.178  1.4205  0.4989 -0.2166
   84MOL   H25333619   7.359   3.506   0.200 -0.3988 -1.0480 -0.0203
   84MOL   H25433620   7.159   3.391   0.309 -0.7819 -0.2889  3.5700
   84MOL   H25533621   6.963   3.327   0.365  0.0242  0.1360  1.7559
   84MOL   H25633622   6.799   3.367   0.394 -0.1959 -0.5330 -0.2476
   84MOL   H25733623   6.860   3.426   0.249 -0.5624 -1.9073 -0.1715
   84MOL   H25833624   7.012   3.770   0.436 -0.5041  1.9701 -1.0726
   84MOL   H25933625   7.240   3.878   0.376 -2.0382  1.1953  3.4160
   84MOL   H26033626   7.482   3.962   0.119 -1.0582  1.0402 -1.2034
   84MOL   H26133627   7.337   3.965   0.203  2.1046  1.0113  1.7143
   84MOL   C26233628   7.332   3.859   0.013 -0.8212 -0.4469  0.1484
   84MOL   C26333629   7.417   3.765   7.972 -0.0126  0.0289 -0.5905
   84MOL   C26433630   7.381   3.634   7.940 -0.4921  0.7712  0.0806
   84MOL   C26533631   7.456   3.547   7.857  0.3176  0.1070  0.6727
   84MOL   C26633632   7.583   3.595   7.807 -0.0359  0.1522  0.5865
   84MOL   O26733633   7.670   3.522   7.733 -0.2504  0.1940 -0.1933
   84MOL   C26833634   7.652   3.384   7.728 -0.1327  0.5337 -0.4377
   84MOL   C26933635   7.619   3.728   7.840 -0.1619  0.1220 -0.1751
   84MOL   C27033636   7.539   3.811   7.919  0.6902  0.3186 -0.0192
   84MOL   C27133637   7.297   3.988   7.973 -0.5438  0.1479  0.3119
   84MOL   H27233638   7.246   3.798   0.038 -0.3480 -0.5749  1.4787
   84MOL   H27333639   7.286   3.594   7.972  1.4898 -1.3924  3.6571
   84MOL   H27433640   7.415   3.451   7.828 -1.1650  0.9715 -0.1673
   84MOL   H27533641   7.636   3.331   7.822  1.0914 -1.1265 -1.1452
   84MOL   H27633642   7.742   3.344   7.681  0.4649  2.4780 -1.0200
   84MOL   H27733643   7.562   3.372   7.668 -0.8186 -1.2046  0.8805
   84MOL   H27833644   7.710   3.773   7.804  0.1068  0.6110  1.0932
   84MOL   H27933645   7.571   3.911   7.944 -1.3673  0.3848  2.5855
   84MOL   H28033646   7.263   4.066   0.001 -0.6625 -1.3170  1.9740
   84MOL   H28133647   7.388   4.024   7.926  0.1912  0.3442  1.8642
   84MOL   C28233648   7.180   3.969   7.870  0.1922  0.6316  0.0246
   84MOL   C28333649   7.183   4.065   7.755 -0.2227  0.1045  0.4173
   84MOL   C28433650   7.167   4.021   7.622 -0.3774 -0.2089 -0.7985
   84MOL   C28533651   7.157   4.117   7.517 -0.1999 -0.7190  0.1421
   84MOL   C28633652   7.160   4.255   7.538  0.0004 -0.5187 -1.1405
   84MOL   O28733653   7.179   4.341   7.428 -0.2562  0.2070  0.2165
   84MOL   C28833654   7.080   4.356   7.324 -0.0732 -0.0199  0.4689
   84MOL   C28933655   7.183   4.301   7.667  0.0940  0.0840 -0.0462
   84MOL   C29033656   7.192   4.204   7.775 -0.1772 -0.3565  0.1702
   84MOL   C29133657   7.049   3.978   7.946 -0.3193 -0.2263  0.0833
   84MOL   H29233658   7.182   3.865   7.834  0.3154  0.3241  0.9156
   84MOL   H29333659   7.138   3.919   7.601 -1.4673  0.5564 -3.1706
   84MOL   H29433660   7.164   4.080   7.416  2.4513  1.1831 -0.4677
   84MOL   H29533661   7.135   4.393   7.238 -0.2590  1.4073  0.9535
   84MOL   H29633662   7.024   4.263   7.308 -1.1467  0.9182 -1.3715
   84MOL   H29733663   7.007   4.433   7.351 -0.9494 -0.5547 -0.3405
   84MOL   H29833664   7.184   4.407   7.685  0.6422 -0.0066  0.5110
   84MOL   H29933665   7.198   4.237   7.878  0.6172 -0.7916  0.2708
   84MOL   H30033666   7.058   3.937   0.007 -1.9695 -0.8904 -0.0264
   84MOL   H30133667   7.019   4.083   7.957 -1.0709 -0.4222 -0.0719
   84MOL   C30233668   6.935   3.890   7.884 -0.8855  0.7962 -0.1757
   84MOL   C30333669   6.962   3.741   7.874 -0.7358  0.2191 -0.4417
   84MOL   C30433670   6.988   3.670   7.993 -0.2115  0.1470  0.9072
   84MOL   C30533671   7.011   3.531   7.990  0.0693  0.8147 -0.3859
   84MOL   C30633672   7.014   3.464   7.862 -0.2534  0.1411 -0.1109
   84MOL   O30733673   7.039   3.329   7.870 -0.2354  0.5299 -0.4013
   84MOL   C30833674   7.038   3.266   7.745 -0.3736 -0.3150 -0.0744
   84MOL   C30933675   6.999   3.540   7.742  0.9588  0.0358 -0.4639
   84MOL   C31033676   6.966   3.680   7.748  0.1028  0.4749  0.2816
   84MOL   C31133677   6.804   3.916   7.957  0.4986  0.2085  0.5828
   84MOL   H31233678   6.922   3.936   7.785 -0.8840 -1.0575 -1.0598
   84MOL   H31333679   6.983   3.723   0.047 -1.5932 -0.7339  1.3464
   84MOL   H31433680   7.034   3.478   0.042  1.8362  1.2690 -0.5510
   84MOL   H31533681   6.960   3.296   7.674  0.6312 -0.6203 -1.3381
   84MOL   H31633682   7.016   3.160   7.758 -0.8236 -0.1507  0.5198
   84MOL   H31733683   7.134   3.270   7.694  0.4949  1.4344  1.6756
   84MOL   H31833684   7.024   3.498   7.646 -1.1605 -2.1698 -0.0894
   84MOL   H31933685   6.965   3.746   7.662  1.2025 -0.9291 -0.8112
   84MOL   H32033686   6.785   4.023   7.955 -1.6997 -0.0980  2.4318
   84MOL   H32133687   6.821   3.896   0.023 -0.5375 -3.0815  0.1952
   84MOL   C32233688   6.677   3.847   7.899 -0.4076 -0.3907 -0.6171
   84MOL   C32333689   6.662   3.885   7.751 -0.6338 -0.0894 -0.1783
   84MOL   C32433690   6.658   4.021   7.716  0.0133 -0.0416  0.0344
   84MOL   C32533691   6.640   4.064   7.587 -0.5157  0.1860  0.9083
   84MOL   C32633692   6.626   3.974   7.481 -0.0012  0.2651 -0.3857
   84MOL   O32733693   6.600   4.019   7.356  0.3194 -0.4255  0.0827
   84MOL   C32833694   6.583   3.921   7.253 -0.0278  0.1104 -0.3560
   84MOL   C32933695   6.638   3.834   7.512  0.4938  0.7082 -0.1245
   84MOL   C33033696   6.647   3.795   7.650 -0.8129 -0.3641 -0.4893
   84MOL   C33133697   6.553   3.887   7.986  0.1610 -0.2578 -0.3776
   84MOL   H33233698   6.698   3.741   7.916  1.2868 -0.0016 -0.2034
   84MOL   H33333699   6.656   4.097   7.793 -1.0765  0.0471 -0.0633
   84MOL   H33433700   6.638   4.170   7.565 -1.7809  0.5609  2.7287
   84MOL   H33533701   6.514   3.839   7.270 -0.4201  0.4408 -0.3615
   84MOL   H33633702   6.680   3.874   7.235  0.3915  0.7041  0.3278
   84MOL   H33733703   6.559   3.980   7.164 -2.0028  1.6391  1.1629
   84MOL   H33833704   6.630   3.762   7.431  1.5176 -0.0047  0.3872
   84MOL   H33933705   6.642   3.688   7.669 -1.6502 -0.1779  0.3621
   84MOL   H34033706   6.552   3.995   7.995 -0.7362 -0.2159 -0.9860
   84MOL   H34133707   6.458   3.865   7.937  0.0667 -2.9937  0.9480
   84MOL   C34233708   6.537   3.833   0.084  0.8163  0.5657  0.5308
   84MOL   C34333709   6.508   3.683   0.081  0.4210 -0.3264 -0.1965
   84MOL   C34433710   6.604   3.592   0.139  0.2046 -0.5794  0.0135
   84MOL   C34533711   6.572   3.463   0.149  0.3163  0.3802  0.5333
   84MOL   C34633712   6.448   3.407   0.129 -0.1451 -0.0441  0.3268
   84MOL   O34733713   6.415   3.275   0.140  0.3719 -0.3974 -0.2940
   84MOL   C34833714   6.478   3.203   0.249 -0.5114 -0.2098  0.3765
   84MOL   C34933715   6.349   3.496   0.076  0.1786 -0.0416  0.7416
   84MOL   C35033716   6.376   3.633   0.049  0.2646  0.8261  0.1768
   84MOL   C35133717   6.429   3.901   0.172 -0.2419 -0.2505 -0.1774
   84MOL   H35233718   6.626   3.844   0.145  0.9743 -2.1282  0.8340
   84MOL   H35333719   6.702   3.634   0.154  0.2170 -0.0865 -1.3161
   84MOL   H35433720   6.659   3.409   0.185 -0.7742 -1.0120  1.1515
   84MOL   H35533721   6.583   3.173   0.237 -0.8723 -2.0001  1.4831
   84MOL   H35633722   6.474   3.267   0.336 -3.9688 -0.5074  0.5104
   84MOL   H35733723   6.427   3.109   0.273  3.2459 -2.9186 -1.5872
   84MOL   H35833724   6.252   3.457   0.051  0.2016 -1.0545  2.1681
   84MOL   H35933725   6.300   3.697   0.007 -0.5411 -0.7189 -0.7595
   84MOL   H36033726   6.329   3.893   0.129 -0.7036  1.8321  0.4597
   84MOL   H36133727   6.419   3.857   0.272 -1.8159  0.4900 -0.0006
   84MOL   C36233728   6.450   4.057   0.214 -0.5793  0.1152  0.8062
   84MOL   C36333729   6.596   4.084   0.242  0.5958  0.4530  0.1580
   84MOL   C36433730   6.654   4.030   0.360  0.9228 -0.4723 -0.1225
   84MOL   C36533731   6.789   4.062   0.391  0.9150  0.3446  0.1169
   84MOL   C36633732   6.867   4.139   0.300 -0.5008 -0.1372 -0.3710
   84MOL   O36733733   6.999   4.181   0.324  0.1484 -0.0674  0.1099
   84MOL   C36833734   7.060   4.138   0.444  0.0042  0.0151  0.4785
   84MOL   C36933735   6.805   4.193   0.189 -0.2017 -0.1617  0.0120
   84MOL   C37033736   6.674   4.164   0.156 -0.0855  0.3027  0.9588
   84MOL   C37133737   6.355   4.099   0.333 -0.4216  0.8990  0.2781
   84MOL   H37233738   6.422   4.108   0.122 -0.6815 -1.8101 -0.2584
   84MOL   H37333739   6.593   3.967   0.423 -2.0077  1.6773 -0.7320
   84MOL   H37433740   6.838   4.017   0.476  2.5872 -1.0685 -1.5527
   84MOL   H37533741   7.157   4.187   0.449  0.0860 -0.2928  2.1878
   84MOL   H37633742   7.005   4.161   0.535 -0.2093 -0.1636  0.3966
   84MOL   H37733743   7.090   4.034   0.431  0.1454  0.2411 -1.1569
   84MOL   H37833744   6.867   4.259   0.131 -0.4164  0.0074 -0.0242
   84MOL   H37933745   6.621   4.193   0.066  0.9055  1.7022  0.8207
   84MOL   H38033746   6.381   4.064   0.433 -0.3424  0.4277  0.0917
   84MOL   H38133747   6.364   4.206   0.349 -1.7817  0.7999  1.8605
   84MOL   C38233748   6.202   4.065   0.308 -0.7058 -0.1180 -0.1464
   84MOL   C38333749   6.140   4.124   0.179 -0.1090 -0.6716  0.0271
   84MOL   C38433750   6.051   4.046   0.110 -0.0655 -1.0672 -0.0062
   84MOL   C38533751   5.987   4.094   8.032  0.2348  0.6029  0.2840
   84MOL   C38633752   6.004   4.219   7.990  0.1461 -0.2777  0.6374
   84MOL   O38733753   5.935   4.260   7.880 -0.4155  0.4791 -0.2976
   84MOL   C38833754   5.880   4.394   7.875  0.1192 -0.2387  0.4393
   84MOL   C38933755   6.087   4.309   0.022 -0.2217  0.2928  0.2061
   84MOL   C39033756   6.157   4.262   0.137  0.4046 -0.3857  0.1137
   84MOL   C39133757   6.114   4.117   0.424 -0.7666 -0.5990  0.1216
   84MOL   H39233758   6.198   3.957   0.310 -2.3753 -0.0446  0.8685
   84MOL   H39333759   6.037   3.945   0.147 -2.2127 -0.7602  0.1070
   84MOL   H39433760   5.924   4.023   7.981  2.5322 -0.0827 -1.6866
   84MOL   H39533761   5.950   4.476   7.859  1.5664 -1.4552  0.3549
   84MOL   H39633762   5.812   4.408   7.959  0.9130  0.8349  0.9146
   84MOL   H39733763   5.812   4.394   7.790 -0.3237 -0.3146  0.7901
   84MOL   H39833764   6.080   4.412   8.029  0.0487  0.2932  0.1502
   84MOL   H39933765   6.215   4.328   0.199 -0.6353 -1.0412  1.8368
   84MOL   H40033766   6.007   4.095   0.429 -1.1954  1.1733 -0.7863
   84MOL   H40133767   6.102   4.225   0.412 -1.0449 -0.6398  0.0140
   84MOL   H40233768   6.154   4.103   0.525 -0.9206  0.3326  0.3214
   85MOL     C133769   1.210   7.113   1.729 -0.0566 -0.0185  0.2595
   85MOL     C233770   1.264   7.235   1.799 -0.2705  0.0794 -0.6047
   85MOL     C333771   1.251   7.365   1.737  0.3261  0.7229 -0.1787
   85MOL     C433772   1.268   7.479   1.820 -0.1980 -0.3863  0.1624
   85MOL     C533773   1.307   7.466   1.954  0.2880  0.8669  0.3306
   85MOL     O633774   1.325   7.573   2.037 -0.2278 -0.0610 -0.0868
   85MOL     C733775   1.274   7.695   2.000 -0.2391 -0.2197 -0.2222
   85MOL     C833776   1.345   7.345   2.004 -0.0052  0.3489  0.3778
   85MOL     C933777   1.314   7.222   1.931 -0.4395 -0.1436 -0.2626
   85MOL    C1033778   1.305   7.050   1.623 -0.3299  0.5586  0.1122
   85MOL    H1133779   1.132   7.167   1.674 -0.0595  0.9969  1.2431
   85MOL    H1233780   1.222   7.372   1.634 -1.5326  2.8160  0.4576
   85MOL    H1333781   1.257   7.577   1.776 -2.9182 -1.0675 -0.7416
   85MOL    H1433782   1.169   7.697   1.971 -0.3038  3.0105  0.0536
   85MOL    H1533783   1.273   7.769   2.080 -0.3239 -0.5071  0.0457
   85MOL    H1633784   1.318   7.741   1.911 -2.1455 -1.3377 -1.7886
   85MOL    H1733785   1.381   7.338   2.106 -1.0205 -0.4501  0.6921
   85MOL    H1833786   1.323   7.124   1.976 -1.6539 -0.4905 -0.7424
   85MOL    H1933787   1.308   7.124   1.543  1.6918 -0.1355 -0.4791
   85MOL    H2033788   1.406   7.035   1.660 -1.4094  0.6270  3.2168
   85MOL    H2133789   1.170   7.044   1.803  1.6008  0.3122  1.4840
   85MOL    C2233790   1.259   6.921   1.553  0.2774  0.0308 -0.0658
   85MOL    C2333791   1.337   6.896   1.425  0.1864  0.0599  0.4575
   85MOL    C2433792   1.472   6.852   1.422  0.1750 -0.7453  0.4084
   85MOL    C2533793   1.543   6.839   1.301 -0.1007  0.4213  0.0971
   85MOL    C2633794   1.468   6.839   1.175  0.3265 -0.2771 -0.0634
   85MOL    O2733795   1.521   6.805   1.052  0.5272  0.5320  0.8926
   85MOL    C2833796   1.658   6.755   1.042  0.4112 -0.5749 -0.3773
   85MOL    C2933797   1.330   6.877   1.183  0.9327 -0.3101  0.0201
   85MOL    C3033798   1.268   6.914   1.304 -0.3574  0.2777  0.5784
   85MOL    C3133799   1.255   6.803   1.651  0.2793  0.6472 -0.6664
   85MOL    H3233800   1.154   6.943   1.532 -0.1304 -0.0661  1.7816
   85MOL    H3333801   1.527   6.849   1.514  1.7562 -1.0955 -0.5308
   85MOL    H3433802   1.646   6.809   1.302 -0.3148 -0.3503  2.0467
   85MOL    H3533803   1.737   6.830   1.045  0.8789 -0.9990 -1.4883
   85MOL    H3633804   1.659   6.711   0.942 -0.8336  0.4804 -0.8753
   85MOL    H3733805   1.673   6.683   1.122  1.1167  1.0347  0.9515
   85MOL    H3833806   1.270   6.886   1.094  1.5205  0.2619 -0.3123
   85MOL    H3933807   1.163   6.939   1.309 -0.6565 -0.9099  0.3059
   85MOL    H4033808   1.348   6.793   1.706  1.0503  0.9550 -1.8997
   85MOL    H4133809   1.178   6.819   1.727  2.1204 -0.7506  1.5732
   85MOL    C4233810   1.240   6.664   1.593  0.7270  0.5839  0.9576
   85MOL    C4333811   1.121   6.646   1.495 -1.2241 -0.2563 -0.3173
   85MOL    C4433812   1.141   6.625   1.357 -0.5314  0.0713 -0.4393
   85MOL    C4533813   1.031   6.613   1.270 -0.5980 -0.6589  0.5000
   85MOL    C4633814   0.900   6.625   1.315  0.2020  0.7248 -0.0368
   85MOL    O4733815   0.803   6.618   1.216 -0.5183 -1.1450  0.4512
   85MOL    C4833816   0.673   6.660   1.246 -0.0849  0.1601  0.0865
   85MOL    C4933817   0.873   6.650   1.451 -0.2241 -0.5708  0.6745
   85MOL    C5033818   0.986   6.654   1.540 -0.3453 -0.5061  0.5308
   85MOL    C5133819   1.247   6.545   1.691  0.0868  0.1928 -0.0098
   85MOL    H5233820   1.329   6.643   1.533  1.4942  0.0583  2.2591
   85MOL    H5333821   1.241   6.622   1.315 -0.9060  0.4686 -1.3721
   85MOL    H5433822   1.037   6.595   1.164 -2.4962  0.9878  0.0972
   85MOL    H5533823   0.626   6.590   1.315  0.2102 -2.6080 -2.3955
   85MOL    H5633824   0.688   6.762   1.279 -0.1477 -0.5521  2.3810
   85MOL    H5733825   0.617   6.652   1.152 -2.4788  0.4236  1.4509
   85MOL    H5833826   0.771   6.664   1.486 -1.0413 -0.3454 -1.6873
   85MOL    H5933827   0.970   6.680   1.644 -3.8384  0.5302 -0.2173
   85MOL    H6033828   1.173   6.567   1.767  0.0967  4.7565 -1.1508
   85MOL    H6133829   1.341   6.546   1.746 -0.2401  1.8471  0.5285
   85MOL    C6233830   1.227   6.400   1.652 -0.5989 -0.3300  0.1696
   85MOL    C6333831   1.214   6.310   1.775 -0.9025 -0.3000 -0.6843
   85MOL    C6433832   1.318   6.289   1.865  0.1439  0.2145  0.2956
   85MOL    C6533833   1.292   6.204   1.978 -0.1107 -0.0669 -0.3196
   85MOL    C6633834   1.164   6.148   2.004 -0.2442  0.3699 -0.1961
   85MOL    O6733835   1.135   6.066   2.108  0.3334 -0.2013  0.1453
   85MOL    C6833836   1.232   6.058   2.219  0.4334 -0.2554  0.4815
   85MOL    C6933837   1.058   6.181   1.917 -0.4931 -0.1878  0.1009
   85MOL    C7033838   1.088   6.253   1.800  0.2229  0.6687 -0.6126
   85MOL    C7133839   1.334   6.344   1.549  0.4075  0.4520 -0.4027
   85MOL    H7233840   1.134   6.388   1.596 -0.2982  0.8111 -0.5969
   85MOL    H7333841   1.410   6.342   1.848 -0.9202  1.2579 -2.5551
   85MOL    H7433842   1.377   6.188   2.042 -0.3470 -1.3994 -0.3254
   85MOL    H7533843   1.296   5.970   2.213  0.1809 -0.3687 -0.4990
   85MOL    H7633844   1.171   6.059   2.310 -0.7636 -1.9270 -0.2825
   85MOL    H7733845   1.304   6.138   2.240 -0.9314  0.9159  0.7886
   85MOL    H7833846   0.960   6.139   1.933 -0.8534  1.1663  1.5569
   85MOL    H7933847   1.016   6.270   1.720 -0.4040 -1.7842 -0.5886
   85MOL    H8033848   1.324   6.410   1.464 -0.8271  0.3854 -0.3178
   85MOL    H8133849   1.427   6.357   1.604 -0.8531  1.3107  1.6268
   85MOL    C8233850   1.311   6.203   1.504  0.0971  0.4187  0.1975
   85MOL    C8333851   1.164   6.177   1.464 -0.2536  0.2238  0.1416
   85MOL    C8433852   1.093   6.069   1.521  0.0515 -0.5782 -0.3600
   85MOL    C8533853   0.962   6.049   1.474  0.4821  0.5052  0.5475
   85MOL    C8633854   0.890   6.145   1.389 -0.1991 -0.4555  0.6270
   85MOL    O8733855   0.757   6.138   1.359  0.3052 -0.3411 -0.3529
   85MOL    C8833856   0.692   6.026   1.418  0.3070 -0.0387 -0.0786
   85MOL    C8933857   0.972   6.244   1.327 -0.0551 -0.9589  0.4417
   85MOL    C9033858   1.103   6.264   1.374  0.2586 -0.1116  0.4363
   85MOL    C9133859   1.415   6.172   1.389 -0.0122  0.5328 -0.4000
   85MOL    H9233860   1.332   6.141   1.591  0.0100 -2.0973 -1.5511
   85MOL    H9333861   1.138   5.993   1.582  3.3985  0.8045 -1.0010
   85MOL    H9433862   0.921   5.956   1.510  1.3924 -0.7645 -1.6175
   85MOL    H9533863   0.680   6.046   1.525  2.6996 -2.5106  0.7044
   85MOL    H9633864   0.731   5.928   1.392 -1.7383 -0.3894 -1.9726
   85MOL    H9733865   0.588   6.026   1.386  1.1770 -2.1740 -3.0390
   85MOL    H9833866   0.937   6.324   1.263  0.3544  1.2157  2.8284
   85MOL    H9933867   1.154   6.351   1.336  0.2311  0.6023  1.9903
   85MOL   H10033868   1.386   6.207   1.290 -1.2199 -2.6057 -1.2164
   85MOL   H10133869   1.502   6.232   1.416  0.1342  0.9823 -1.8198
   85MOL   C10233870   1.471   6.030   1.394  0.6159  0.5932  0.5473
   85MOL   C10333871   1.364   5.922   1.374  0.9138 -0.0465  0.5746
   85MOL   C10433872   1.284   5.915   1.256 -0.4395  0.1307  0.5904
   85MOL   C10533873   1.182   5.822   1.239  0.1724 -0.1708  0.8550
   85MOL   C10633874   1.145   5.735   1.346  0.0156 -1.0049  0.1674
   85MOL   O10733875   1.034   5.662   1.329 -0.3163 -0.4734  0.0476
   85MOL   C10833876   0.950   5.631   1.438  0.3720  1.1397  0.2230
   85MOL   C10933877   1.222   5.743   1.461 -0.1247  0.2369 -0.4004
   85MOL   C11033878   1.332   5.834   1.479  0.3648 -0.2844  0.1066
   85MOL   C11133879   1.600   6.008   1.303 -0.5533 -0.8077  0.1202
   85MOL   H11233880   1.525   6.018   1.488  2.3617  1.9511 -0.2372
   85MOL   H11333881   1.310   5.985   1.177  2.5855 -1.5435  0.0451
   85MOL   H11433882   1.123   5.814   1.148  0.0597  0.4756  0.8733
   85MOL   H11533883   0.935   5.722   1.496 -0.2826  0.2039  1.5449
   85MOL   H11633884   0.861   5.585   1.396  0.6175  0.7501  0.1205
   85MOL   H11733885   1.004   5.551   1.489  0.7901  1.5331  0.4011
   85MOL   H11833886   1.202   5.668   1.537  0.9728 -0.7869 -1.1028
   85MOL   H11933887   1.388   5.834   1.571  0.6116 -0.6219 -0.0433
   85MOL   H12033888   1.575   6.017   1.198 -0.2796 -0.7574  0.0589
   85MOL   H12133889   1.668   6.091   1.323 -0.7896 -0.5950  0.0241
   85MOL   C12233890   1.696   5.896   1.342  0.1696  0.4668  0.6618
   85MOL   C12333891   1.827   5.910   1.267 -0.8954 -0.4239  0.5533
   85MOL   C12433892   1.939   5.928   1.345 -0.2758 -0.0020  0.2900
   85MOL   C12533893   2.061   5.954   1.279 -0.0858  0.1804  0.4355
   85MOL   C12633894   2.069   5.967   1.140  0.2303  0.3833 -0.6350
   85MOL   O12733895   2.178   6.010   1.060 -0.2054 -0.0495 -0.0690
   85MOL   C12833896   2.280   6.083   1.136 -0.5613 -0.2585 -0.4873
   85MOL   C12933897   1.955   5.937   1.061 -0.4973  0.3412  0.1393
   85MOL   C13033898   1.835   5.910   1.123 -0.3625  0.1963  0.0108
   85MOL   C13133899   1.643   5.749   1.338  0.4698 -0.9431 -0.4055
   85MOL   H13233900   1.726   5.917   1.445 -0.5654  0.7455  0.8170
   85MOL   H13333901   1.934   5.935   1.453  0.5218  0.5433  0.2994
   85MOL   H13433902   2.142   5.986   1.343 -0.8519 -0.7344  1.8863
   85MOL   H13533903   2.332   6.023   1.211 -1.6678 -0.4025  0.1924
   85MOL   H13633904   2.352   6.135   1.073  2.1149  0.6646  3.1634
   85MOL   H13733905   2.221   6.159   1.190  0.1897 -0.6139  0.8560
   85MOL   H13833906   1.953   5.944   0.953  0.3870 -0.6887  0.0528
   85MOL   H13933907   1.747   5.897   1.061 -1.6039  2.0370  1.3306
   85MOL   H14033908   1.581   5.737   1.250  0.9303 -0.2483 -0.8344
   85MOL   H14133909   1.582   5.746   1.428  0.3134 -0.0314 -0.4765
   85MOL   C14233910   1.747   5.635   1.357 -0.2691 -0.7552  0.8174
   85MOL   C14333911   1.696   5.538   1.459 -0.1719 -0.1048 -0.8243
   85MOL   C14433912   1.562   5.495   1.464  0.1460  0.0767 -0.1944
   85MOL   C14533913   1.516   5.406   1.566 -0.4616  0.6998  0.0696
   85MOL   C14633914   1.610   5.359   1.661  0.3447 -0.2142  0.4420
   85MOL   O14733915   1.580   5.269   1.767 -0.3652  0.6979  0.3439
   85MOL   C14833916   1.443   5.218   1.776 -0.1996 -0.0824 -0.3256
   85MOL   C14933917   1.740   5.409   1.659  0.4120  0.4350 -0.4172
   85MOL   C15033918   1.785   5.494   1.560  0.1427  0.0360  0.3714
   85MOL   C15133919   1.762   5.570   1.216  0.3307  0.2717  0.3869
   85MOL   H15233920   1.839   5.676   1.398  0.5330  0.1054 -1.7450
   85MOL   H15333921   1.494   5.544   1.396  1.8964  1.8333 -0.7493
   85MOL   H15433922   1.415   5.367   1.572  0.3285 -1.2085  1.3828
   85MOL   H15533923   1.435   5.144   1.855 -0.9645 -0.8480 -1.1148
   85MOL   H15633924   1.373   5.297   1.803  1.0228  0.8169  0.2601
   85MOL   H15733925   1.402   5.161   1.692 -2.6610 -0.3023  1.0016
   85MOL   H15833926   1.818   5.389   1.731  1.9571  2.7587 -1.4058
   85MOL   H15933927   1.885   5.532   1.554 -0.3919  1.4255  0.0007
   85MOL   H16033928   1.784   5.650   1.145 -1.3729  2.2497  2.0113
   85MOL   H16133929   1.675   5.538   1.159  0.7826  0.7223 -0.5778
   85MOL   C16233930   1.876   5.454   1.221  0.5422 -0.0942  0.2175
   85MOL   C16333931   2.019   5.509   1.233  0.6125  0.1157  0.0585
   85MOL   C16433932   2.070   5.599   1.138  0.1685  0.1952 -0.0082
   85MOL   C16533933   2.201   5.656   1.155 -0.2690  0.2331 -0.1354
   85MOL   C16633934   2.295   5.611   1.250 -0.0525 -0.2626  0.0958
   85MOL   O16733935   2.416   5.679   1.248  0.0467 -0.1273  0.4675
   85MOL   C16833936   2.480   5.683   1.373 -0.0418  0.3429  0.2334
   85MOL   C16933937   2.244   5.513   1.339 -1.1383 -0.0016 -0.6697
   85MOL   C17033938   2.107   5.473   1.336  0.3441 -0.2682 -0.1186
   85MOL   C17133939   1.858   5.354   1.103  0.0688  0.5179  0.5827
   85MOL   H17233940   1.860   5.384   1.302 -0.9414 -1.7380 -1.4598
   85MOL   H17333941   2.018   5.635   1.050 -1.7773  1.1983  1.5283
   85MOL   H17433942   2.231   5.738   1.091 -0.5088 -0.4561 -1.1592
   85MOL   H17533943   2.503   5.582   1.409  1.2896 -0.5967 -3.0783
   85MOL   H17633944   2.429   5.740   1.451 -1.2931  1.5890 -1.4745
   85MOL   H17733945   2.575   5.729   1.346  0.9438 -1.6417  0.2091
   85MOL   H17833946   2.298   5.465   1.419 -3.2131  0.8318  1.2970
   85MOL   H17933947   2.070   5.407   1.413 -1.8463  1.3109  0.2350
   85MOL   H18033948   1.954   5.307   1.085 -0.1719  1.1314 -2.7116
   85MOL   H18133949   1.834   5.417   1.016  0.8150  0.2230  0.1619
   85MOL   C18233950   1.756   5.239   1.119 -0.3255  0.6186 -1.0196
   85MOL   C18333951   1.777   5.120   1.031 -0.1807  0.4234  0.1171
   85MOL   C18433952   1.842   5.012   1.086  0.2727 -0.2286 -0.6845
   85MOL   C18533953   1.871   4.896   1.007 -0.5767 -0.6034  0.1628
   85MOL   C18633954   1.825   4.885   0.873 -0.2857 -0.7169 -0.4060
   85MOL   O18733955   1.850   4.777   0.791  0.2556 -0.3434  0.1535
   85MOL   C18833956   1.924   4.661   0.843  0.4481 -0.5806 -0.4383
   85MOL   C18933957   1.758   4.995   0.815  0.1438 -0.0606 -0.2737
   85MOL   C19033958   1.741   5.112   0.893 -1.0301 -0.1296  0.4239
   85MOL   C19133959   1.609   5.295   1.124  0.1988 -0.1680  0.4429
   85MOL   H19233960   1.780   5.191   1.214  0.7535  1.7892 -0.6921
   85MOL   H19333961   1.868   5.011   1.191 -0.5582  1.3434 -0.4583
   85MOL   H19433962   1.926   4.817   1.055 -1.1043 -0.1824  1.4832
   85MOL   H19533963   1.977   4.608   0.763 -2.4665 -1.6117 -1.7550
   85MOL   H19633964   1.859   4.597   0.903  1.1256 -0.5235  0.3656
   85MOL   H19733965   2.012   4.678   0.906 -1.5878 -1.0460  2.6482
   85MOL   H19833966   1.724   4.993   0.712 -0.0769 -2.1330 -0.1845
   85MOL   H19933967   1.688   5.191   0.842  1.6376  0.6861 -1.2017
   85MOL   H20033968   1.618   5.362   1.210  1.7320  0.2269 -0.0095
   85MOL   H20133969   1.586   5.367   1.045  0.7826 -0.7673 -0.2769
   85MOL   C20233970   1.481   5.221   1.151 -0.5460  0.3837 -0.2893
   85MOL   C20333971   1.430   5.166   1.019  0.3145 -0.1723 -0.1227
   85MOL   C20433972   1.385   5.248   0.916 -1.0275  0.2391  0.3745
   85MOL   C20533973   1.333   5.186   0.802  0.0490  1.0613  0.6726
   85MOL   C20633974   1.324   5.043   0.789 -0.8289 -0.4243  0.8833
   85MOL   O20733975   1.267   4.996   0.672 -0.3392  0.3179  0.3073
   85MOL   C20833976   1.221   4.867   0.679  0.2429  0.0747  0.2286
   85MOL   C20933977   1.386   4.967   0.885  0.0837 -0.2427  0.0647
   85MOL   C21033978   1.432   5.030   1.001  0.2676  0.2062  0.3370
   85MOL   C21133979   1.382   5.320   1.218 -0.1553  0.1197  0.4138
   85MOL   H21233980   1.498   5.135   1.216 -1.9873 -0.0290 -0.4357
   85MOL   H21333981   1.393   5.355   0.923 -2.4266  0.1869  3.7756
   85MOL   H21433982   1.280   5.247   0.730 -1.2973 -0.9676 -0.0963
   85MOL   H21533983   1.163   4.846   0.590 -1.9716  1.6270  1.2507
   85MOL   H21633984   1.300   4.792   0.681  1.4612  1.3419  1.7007
   85MOL   H21733985   1.160   4.845   0.767 -0.0115  0.8394  0.2519
   85MOL   H21833986   1.404   4.863   0.865  2.1294  0.2001 -0.5689
   85MOL   H21933987   1.471   4.961   1.075 -3.7856 -1.5609  0.9781
   85MOL   H22033988   1.382   5.420   1.174  0.7523 -0.5498 -1.1024
   85MOL   H22133989   1.416   5.330   1.321  0.0600  1.1361  0.2508
   85MOL   C22233990   1.235   5.259   1.226  0.2776 -0.4292 -0.2505
   85MOL   C22333991   1.193   5.237   1.375  0.0261  0.6099 -0.1092
   85MOL   C22433992   1.172   5.110   1.434  0.4381 -0.7914 -0.6538
   85MOL   C22533993   1.116   5.103   1.563 -0.7868  0.6913 -0.0888
   85MOL   C22633994   1.100   5.216   1.641  0.1693  0.5011 -0.2764
   85MOL   O22733995   1.046   5.216   1.765  0.3000  0.0695 -0.1527
   85MOL   C22833996   0.951   5.110   1.795 -0.7774  0.9698 -0.0335
   85MOL   C22933997   1.121   5.340   1.583  0.3606 -0.5216 -0.2058
   85MOL   C23033998   1.182   5.352   1.454  0.6210  0.2451  0.4949
   85MOL   C23133999   1.127   5.338   1.146 -0.5338 -0.3171 -0.8268
   85MOL   H23234000   1.237   5.159   1.183  2.6584 -0.5452  0.0645
   85MOL   H23334001   1.189   5.026   1.368 -2.8533 -0.2548 -2.2965
   85MOL   H23434002   1.109   5.002   1.601  0.9631  0.4870 -0.2666
   85MOL   H23534003   1.005   5.018   1.814 -1.8861  0.1207 -0.9298
   85MOL   H23634004   0.900   5.134   1.889 -2.0845  0.4994 -0.6090
   85MOL   H23734005   0.874   5.082   1.723 -0.9234 -0.0490  0.5018
   85MOL   H23834006   1.116   5.439   1.628 -0.9670 -0.6885  0.0284
   85MOL   H23934007   1.197   5.450   1.410 -0.2371  0.8170  1.4298
   85MOL   H24034008   1.088   5.423   1.203  0.0519 -0.5716 -0.0380
   85MOL   H24134009   1.177   5.381   1.059 -1.0603  1.8561 -0.0953
   85MOL   C24234010   1.003   5.259   1.101 -0.3514 -0.3406  0.3771
   85MOL   C24334011   0.941   5.175   1.212 -0.6243 -0.4625  0.1925
   85MOL   C24434012   0.943   5.034   1.209  0.7389 -0.2031 -0.1915
   85MOL   C24534013   0.888   4.965   1.317  0.2266  0.4670 -0.5288
   85MOL   C24634014   0.824   5.016   1.433  0.2826 -0.0075 -0.4649
   85MOL   O24734015   0.759   4.930   1.519 -1.1659 -0.0263  0.0927
   85MOL   C24834016   0.650   4.977   1.598  0.0961  0.9583 -0.1098
   85MOL   C24934017   0.822   5.159   1.436 -0.0553  0.5698  0.5780
   85MOL   C25034018   0.875   5.232   1.327  0.1042 -0.2910  0.2884
   85MOL   C25134019   0.904   5.356   1.038 -0.0960  0.4505 -0.5115
   85MOL   H25234020   1.036   5.190   1.024 -1.6925  0.7342 -1.1750
   85MOL   H25334021   1.000   4.991   1.129  0.9215  0.0526 -0.1996
   85MOL   H25434022   0.894   4.857   1.316  0.9035  0.5111 -1.8208
   85MOL   H25534023   0.670   4.983   1.705  0.3960 -0.4763 -0.0819
   85MOL   H25634024   0.607   5.073   1.570 -3.3726 -0.3947  0.3780
   85MOL   H25734025   0.560   4.918   1.582 -0.3008  1.2488  1.0388
   85MOL   H25834026   0.777   5.223   1.510 -2.7313  0.0197 -0.5268
   85MOL   H25934027   0.882   5.340   1.339  0.8347 -0.2702 -0.2899
   85MOL   H26034028   0.959   5.429   0.979  0.3362 -0.3060 -1.0539
   85MOL   H26134029   0.867   5.417   1.121 -1.1795 -0.0735 -0.5952
   85MOL   C26234030   0.802   5.279   0.953  0.3621  0.0872  0.0070
   85MOL   C26334031   0.849   5.270   0.810  0.4030  0.4176  0.0152
   85MOL   C26434032   0.855   5.387   0.732  0.2029  0.1935 -0.2073
   85MOL   C26534033   0.926   5.394   0.607 -0.4926 -0.2295 -0.1490
   85MOL   C26634034   0.986   5.275   0.555 -0.3627  0.1020  0.3850
   85MOL   O26734035   1.056   5.286   0.438 -0.3365  0.5462  0.0252
   85MOL   C26834036   1.139   5.172   0.410  0.4082 -0.2977  1.0726
   85MOL   C26934037   0.985   5.160   0.639 -0.3363 -0.0516 -0.2261
   85MOL   C27034038   0.918   5.153   0.764 -0.2330  0.5330  0.0644
   85MOL   C27134039   0.662   5.339   0.965 -0.9168 -0.7182  0.3560
   85MOL   H27234040   0.792   5.178   0.992 -0.0256  0.4220  0.7853
   85MOL   H27334041   0.817   5.483   0.765 -1.7560  0.4206 -2.9207
   85MOL   H27434042   0.936   5.482   0.546  0.8788 -0.8083 -0.7738
   85MOL   H27534043   1.084   5.078   0.399  0.7549 -0.5286  1.2970
   85MOL   H27634044   1.226   5.162   0.475  1.7335 -1.6224 -0.8351
   85MOL   H27734045   1.187   5.185   0.313 -2.8520 -1.1191 -0.7214
   85MOL   H27834046   1.037   5.068   0.616 -0.2824  0.0678 -0.5866
   85MOL   H27934047   0.926   5.064   0.825  1.0418  0.0376 -0.8144
   85MOL   H28034048   0.675   5.445   0.940 -1.0573 -0.8923 -0.4817
   85MOL   H28134049   0.609   5.289   0.885 -0.5282 -1.1257  0.3517
   85MOL   C28234050   0.577   5.309   1.085  0.2329 -0.4631  0.0320
   85MOL   C28334051   0.535   5.163   1.078  0.9940 -0.2250 -0.3088
   85MOL   C28434052   0.589   5.076   1.172 -0.0004 -0.3652  0.0885
   85MOL   C28534053   0.534   4.944   1.175 -0.3743  0.0584 -0.3778
   85MOL   C28634054   0.445   4.896   1.079 -0.4762 -0.4477 -0.2456
   85MOL   O28734055   0.424   4.756   1.072 -0.4028 -0.3269 -0.1637
   85MOL   C28834056   0.385   4.702   0.944  0.2384 -0.4619 -0.4554
   85MOL   C28934057   0.391   4.987   0.989  0.0186  0.5757 -0.7645
   85MOL   C29034058   0.428   5.122   0.989 -0.2551 -0.4322 -0.7030
   85MOL   C29134059   0.456   5.403   1.110 -0.9921  0.6122  0.2710
   85MOL   H29234060   0.644   5.322   1.171 -0.9645 -3.8839  1.5736
   85MOL   H29334061   0.651   5.105   1.256 -0.3450 -0.7427  0.4759
   85MOL   H29434062   0.579   4.875   1.243  0.4135 -0.4393 -1.3887
   85MOL   H29534063   0.459   4.733   0.870 -0.3221  0.2179 -0.7340
   85MOL   H29634064   0.370   4.594   0.949  0.3646 -0.6440 -3.0156
   85MOL   H29734065   0.284   4.736   0.919  0.2692  0.9156  1.2468
   85MOL   H29834066   0.308   4.960   0.925 -1.5048  0.9268  1.0197
   85MOL   H29934067   0.385   5.189   0.916 -0.0911 -0.0272 -0.4288
   85MOL   H30034068   0.490   5.505   1.097  0.9195  0.1485  1.4360
   85MOL   H30134069   0.385   5.386   1.029 -1.0255  1.3695  0.1391
   85MOL   C30234070   0.391   5.387   1.246  0.2624  0.9224 -0.1352
   85MOL   C30334071   0.467   5.454   1.357  0.7927  0.7186 -0.2881
   85MOL   C30434072   0.539   5.369   1.440 -0.1945 -1.1724  0.0862
   85MOL   C30534073   0.613   5.422   1.547  0.8236 -0.6919 -0.3298
   85MOL   C30634074   0.605   5.557   1.578  0.1867 -0.6747 -0.8071
   85MOL   O30734075   0.674   5.603   1.690 -0.0175  0.3198  0.4128
   85MOL   C30834076   0.631   5.722   1.754  0.9021 -0.1850 -0.4315
   85MOL   C30934077   0.540   5.651   1.486 -0.4681  0.8514  0.2011
   85MOL   C31034078   0.471   5.592   1.382  0.5168 -0.7816 -0.4252
   85MOL   C31134079   0.244   5.451   1.228  0.5814  0.2521 -0.0696
   85MOL   H31234080   0.379   5.280   1.262  4.6261  0.5359  1.1912
   85MOL   H31334081   0.537   5.262   1.427  0.2717 -1.1640 -0.0533
   85MOL   H31434082   0.664   5.356   1.615  2.5299 -0.0462 -0.9577
   85MOL   H31534083   0.672   5.809   1.702 -1.5890 -0.0512 -2.2542
   85MOL   H31634084   0.663   5.731   1.858  0.5017  3.0394 -0.5215
   85MOL   H31734085   0.522   5.725   1.748  0.7974 -2.8832 -0.1769
   85MOL   H31834086   0.531   5.756   1.510 -3.1208  2.1397 -5.6367
   85MOL   H31934087   0.424   5.660   1.312 -1.5252 -0.8511  0.8360
   85MOL   H32034088   0.195   5.396   1.148 -1.1680  0.5979  0.7442
   85MOL   H32134089   0.251   5.552   1.186  0.3762 -0.1618 -1.1027
   85MOL   C32234090   0.156   5.457   1.354 -0.5446 -0.7823 -0.2673
   85MOL   C32334091   0.180   5.343   1.453 -0.7350  0.0590  1.1747
   85MOL   C32434092   0.187   5.210   1.406  0.0888 -0.1017 -0.1213
   85MOL   C32534093   0.234   5.112   1.496  1.0115  0.0794 -0.7394
   85MOL   C32634094   0.263   5.141   1.629 -0.2551  0.0588  0.0992
   85MOL   O32734095   0.290   5.041   1.717 -0.0008  0.3528 -0.8019
   85MOL   C32834096   0.273   4.904   1.677 -0.1387 -0.2774 -0.0726
   85MOL   C32934097   0.250   5.273   1.673 -0.4212  0.2706  0.1434
   85MOL   C33034098   0.213   5.373   1.586 -0.1714  0.1550 -0.2593
   85MOL   C33134099   0.007   5.472   1.320 -0.0872 -0.2544 -0.3037
   85MOL   H33234100   0.180   5.552   1.401  4.7879 -1.0454 -2.0990
   85MOL   H33334101   0.172   5.185   1.303  1.9349 -2.0564  0.0385
   85MOL   H33434102   0.226   5.011   1.459  1.1475 -0.2791  0.2101
   85MOL   H33534103   0.168   4.874   1.669  0.2072 -1.3823 -0.6960
   85MOL   H33634104   0.313   4.843   1.758  0.0082  2.3800  1.8871
   85MOL   H33734105   0.320   4.885   1.580 -0.6234  1.3517 -0.6516
   85MOL   H33834106   0.272   5.299   1.776 -0.0758  0.4131  0.0331
   85MOL   H33934107   0.205   5.476   1.617  0.1241  0.9489 -2.6794
   85MOL   H34034108   8.029   5.532   1.232  2.4048 -0.7515 -1.1977
   85MOL   H34134109   8.026   5.376   1.273  0.9579 -0.1957 -0.9101
   85MOL   C34234110   7.946   5.499   1.432 -0.0885 -0.2221 -0.5921
   85MOL   C34334111   7.804   5.455   1.393  0.6879  0.1300 -0.7076
   85MOL   C34434112   7.738   5.504   1.276  0.1066 -0.1924  0.4727
   85MOL   C34534113   7.611   5.464   1.243  0.1441  0.4789  0.2933
   85MOL   C34634114   7.541   5.372   1.323 -0.6100 -0.3072 -0.1411
   85MOL   O34734115   7.418   5.319   1.277  0.2768  0.1569  0.1803
   85MOL   C34834116   7.345   5.409   1.206  0.2389 -0.4513  0.2532
   85MOL   C34934117   7.604   5.322   1.443 -0.1260  0.3498 -0.2915
   85MOL   C35034118   7.732   5.367   1.483  0.8098 -0.5645 -0.6677
   85MOL   C35134119   7.947   5.646   1.487 -0.0717 -0.3455 -0.8030
   85MOL   H35234120   7.975   5.432   1.513  1.1192  2.0557  0.9200
   85MOL   H35334121   7.783   5.584   1.218 -1.4432 -0.1940 -0.7596
   85MOL   H35434122   7.561   5.490   1.151 -1.2880 -1.4286  0.4889
   85MOL   H35534123   7.243   5.370   1.202 -1.2291  3.3358 -1.8623
   85MOL   H35634124   7.346   5.504   1.259  1.4041 -0.6079  0.5243
   85MOL   H35734125   7.376   5.426   1.103 -0.6820 -0.9027 -0.1051
   85MOL   H35834126   7.545   5.251   1.499 -0.7941 -1.2683 -2.9308
   85MOL   H35934127   7.787   5.326   1.567  2.1220 -0.7159 -1.5677
   85MOL   H36034128   0.005   5.677   1.523 -0.8934 -0.1049  1.3113
   85MOL   H36134129   7.925   5.718   1.408 -1.3889 -0.7208 -0.7830
   85MOL   C36234130   7.843   5.681   1.597  0.3035  0.3503  0.0788
   85MOL   C36334131   7.823   5.832   1.616  0.0019  0.4207 -0.3227
   85MOL   C36434132   7.697   5.887   1.614 -0.5318 -0.9454  0.8885
   85MOL   C36534133   7.679   6.026   1.614 -0.3062 -0.3141 -0.0525
   85MOL   C36634134   7.787   6.116   1.625  0.5714  0.3756 -0.0949
   85MOL   O36734135   7.767   6.254   1.644  0.4431  0.4422  0.0292
   85MOL   C36834136   7.636   6.308   1.625 -0.4474  0.5359 -0.5327
   85MOL   C36934137   7.916   6.059   1.642 -0.7132 -0.0955  0.7787
   85MOL   C37034138   7.934   5.919   1.629 -0.0806  0.2805 -0.2490
   85MOL   C37134139   7.886   5.606   1.728  0.5125  0.0279  1.4324
   85MOL   H37234140   7.740   5.663   1.567 -0.5578  0.2487  2.9222
   85MOL   H37334141   7.614   5.820   1.597 -0.7855 -0.2562 -0.6488
   85MOL   H37434142   7.577   6.060   1.612 -0.0067  0.5827 -0.3378
   85MOL   H37534143   7.631   6.399   1.684 -0.4898  0.2906 -0.1529
   85MOL   H37634144   7.641   6.328   1.518  0.8125 -1.1575 -0.8114
   85MOL   H37734145   7.546   6.254   1.654  0.5572 -0.5747  0.6318
   85MOL   H37834146   8.010   6.112   1.638 -0.8852  0.1531 -0.0723
   85MOL   H37934147   8.037   5.890   1.619  0.0086 -0.5288  2.5292
   85MOL   H38034148   7.886   5.501   1.700  0.3110  0.3223  0.2971
   85MOL   H38134149   7.989   5.626   1.756  0.8600 -1.6635  1.4101
   85MOL   C38234150   7.796   5.623   1.850 -0.2563  0.5365 -0.0106
   85MOL   C38334151   7.852   5.553   1.980 -0.5926  0.4225  0.5012
   85MOL   C38434152   7.844   5.414   2.000  0.4570  0.1914  0.1286
   85MOL   C38534153   7.911   5.355   2.111 -0.1532  0.1649 -0.1203
   85MOL   C38634154   7.969   5.437   2.212 -0.1703  0.6829 -0.7509
   85MOL   O38734155   0.001   5.371   2.305  1.5184 -0.1882  0.3371
   85MOL   C38834156   0.070   5.454   2.395  0.7051 -0.0359 -0.5254
   85MOL   C38934157   7.969   5.581   2.196  0.4271 -0.0016 -0.7824
   85MOL   C39034158   7.914   5.630   2.076  0.4676  0.2372 -0.5816
   85MOL   C39134159   7.643   5.597   1.840 -0.2394  0.4080 -0.8911
   85MOL   H39234160   7.808   5.729   1.872 -1.1526  0.7410 -0.4702
   85MOL   H39334161   7.799   5.342   1.933 -3.4383  1.9729  0.6539
   85MOL   H39434162   7.926   5.248   2.118  0.1974  0.1948 -0.3740
   85MOL   H39534163   8.040   5.497   2.466 -0.3306  1.4130 -2.3873
   85MOL   H39634164   0.139   5.521   2.343  1.3925 -0.1132  0.2780
   85MOL   H39734165   0.137   5.384   2.445  0.8542  1.0915  0.8928
   85MOL   H39834166   8.010   5.652   2.267 -2.1463 -0.1123  0.8764
   85MOL   H39934167   7.927   5.735   2.052  1.1582  0.6225  1.3349
   85MOL   H40034168   7.600   5.617   1.938  1.3338  2.0957 -0.5193
   85MOL   H40134169   7.634   5.489   1.828 -1.7996  0.5683 -1.2081
   85MOL   H40234170   7.585   5.655   1.768 -1.1331 -0.9879 -1.3133
   86MOL     C134171   1.481   6.836   2.101  0.8608  0.0693  0.1280
   86MOL     C234172   1.332   6.791   2.090 -0.5396 -0.4586 -0.3103
   86MOL     C334173   1.239   6.888   2.123  0.0643 -0.4411  0.7136
   86MOL     C434174   1.100   6.863   2.117 -0.2762 -0.2925 -0.8258
   86MOL     C534175   1.054   6.740   2.070 -0.0057  0.0882 -0.2731
   86MOL     O634176   0.918   6.723   2.068 -0.2516 -0.4350 -0.1727
   86MOL     C734177   0.870   6.589   2.039 -0.2843 -0.1683  0.2493
   86MOL     C834178   1.155   6.643   2.029 -0.3221  1.0258  0.1796
   86MOL     C934179   1.292   6.668   2.038  0.2372 -0.5495 -0.0186
   86MOL    C1034180   1.564   6.785   2.219  0.3330 -0.1604 -0.2177
   86MOL    H1134181   1.483   6.944   2.091 -1.5647  0.0758 -0.5910
   86MOL    H1234182   1.260   6.989   2.155 -1.8269  0.4401 -0.7074
   86MOL    H1334183   1.028   6.939   2.143 -0.1253  0.1305 -1.6327
   86MOL    H1434184   0.762   6.592   2.027 -0.1638  0.4122 -0.8046
   86MOL    H1534185   0.916   6.563   1.943  1.5688  0.2927  0.9950
   86MOL    H1634186   0.913   6.523   2.114  0.1511 -0.5539 -0.3343
   86MOL    H1734187   1.118   6.550   1.988 -0.7785  1.2400  0.1018
   86MOL    H1834188   1.362   6.590   2.013  1.4785 -0.3030  2.5149
   86MOL    H1934189   1.533   6.682   2.238  0.5185 -0.0304  0.8716
   86MOL    H2034190   1.669   6.783   2.190 -0.3699 -1.6466 -2.7791
   86MOL    H2134191   1.528   6.795   2.011 -1.3998 -0.6010 -0.7812
   86MOL    C2234192   1.574   6.874   2.352  0.0481  0.1752  0.0045
   86MOL    C2334193   1.439   6.918   2.405 -0.8710  0.3839  0.1179
   86MOL    C2434194   1.349   6.811   2.434  0.3815 -0.3492  0.4906
   86MOL    C2534195   1.231   6.848   2.496  0.0014  0.0231  0.5818
   86MOL    C2634196   1.203   6.980   2.549  0.1137 -0.2061 -0.3092
   86MOL    O2734197   1.084   6.989   2.613  0.2581  0.0047 -0.6535
   86MOL    C2834198   1.035   7.111   2.657 -0.0983  0.5995  0.3778
   86MOL    C2934199   1.293   7.082   2.518  0.4785  0.0801 -0.3235
   86MOL    C3034200   1.411   7.053   2.447  0.8706 -0.0012 -0.5931
   86MOL    C3134201   1.658   6.797   2.457  0.0738 -0.7588 -0.8103
   86MOL    H3234202   1.615   6.968   2.316 -2.2541  0.5328 -1.8449
   86MOL    H3334203   1.363   6.709   2.401 -0.1794  0.2295 -1.6346
   86MOL    H3434204   1.169   6.767   2.534 -1.6156  1.3688  0.8688
   86MOL    H3534205   1.039   7.179   2.571 -0.8129 -2.1312 -1.9051
   86MOL    H3634206   1.094   7.140   2.744  1.8266 -0.7381 -0.4506
   86MOL    H3734207   0.930   7.091   2.679 -0.6586  1.5655 -1.2821
   86MOL    H3834208   1.267   7.185   2.539  0.2058  0.1042 -0.7952
   86MOL    H3934209   1.483   7.134   2.440  0.0148  0.8895  0.6775
   86MOL    H4034210   1.648   6.834   2.559 -1.3914 -1.1354 -0.8082
   86MOL    H4134211   1.622   6.694   2.464  0.1366 -0.5584  3.4680
   86MOL    C4234212   1.815   6.784   2.430  0.0667 -0.7360 -0.4678
   86MOL    C4334213   1.858   6.653   2.498  0.1453 -0.0534  0.4455
   86MOL    C4434214   1.902   6.645   2.633  0.1555  0.2966  0.1114
   86MOL    C4534215   1.924   6.522   2.688 -0.6880 -0.1529  0.8190
   86MOL    C4634216   1.907   6.403   2.615  0.9502 -0.7643  0.0491
   86MOL    O4734217   1.923   6.291   2.688  0.1343  0.3215 -0.2888
   86MOL    C4834218   1.870   6.170   2.631  0.0905  0.2564 -0.4296
   86MOL    C4934219   1.867   6.413   2.479  0.2823 -0.0680  0.6353
   86MOL    C5034220   1.853   6.542   2.420  0.6013 -0.1478  0.1813
   86MOL    C5134221   1.891   6.908   2.485  0.3287 -0.7134 -0.2960
   86MOL    H5234222   1.832   6.785   2.323  2.4245  2.3741 -0.1253
   86MOL    H5334223   1.901   6.731   2.697  0.7050  2.5733 -2.8426
   86MOL    H5434224   1.956   6.521   2.791 -2.1352  1.2857  1.3023
   86MOL    H5534225   1.851   6.096   2.709 -0.5269 -0.2048 -1.0069
   86MOL    H5634226   1.774   6.179   2.580 -1.1544  1.5237  2.0158
   86MOL    H5734227   1.946   6.127   2.566  1.8432  1.6504  0.6403
   86MOL    H5834228   1.847   6.327   2.418 -2.3467  1.5744 -0.9299
   86MOL    H5934229   1.806   6.547   2.323  0.2957 -1.5703  0.2321
   86MOL    H6034230   1.996   6.879   2.489  0.2369 -0.8385  1.5354
   86MOL    H6134231   1.864   6.917   2.590 -2.5538  0.0607 -1.0753
   86MOL    C6234232   1.869   7.048   2.398  0.0761  0.4158 -0.3392
   86MOL    C6334233   1.895   7.035   2.251 -0.1706  0.2542  0.3187
   86MOL    C6434234   1.798   7.082   2.164  0.0833  0.7818 -0.4092
   86MOL    C6534235   1.820   7.073   2.025  0.0385  0.0859 -0.2119
   86MOL    C6634236   1.938   7.022   1.968  0.0243 -0.7431  0.0010
   86MOL    O6734237   1.957   7.048   1.834  0.4896  0.3173  0.5034
   86MOL    C6834238   2.087   7.018   1.773 -0.0812  0.3684  0.4225
   86MOL    C6934239   2.037   6.970   2.055  0.5497  0.5962  0.1049
   86MOL    C7034240   2.019   6.988   2.196  0.3159  0.0134 -0.4089
   86MOL    C7134241   1.946   7.162   2.455 -0.1013 -0.0605 -0.0196
   86MOL    H7234242   1.765   7.079   2.400 -0.1325 -0.2661 -0.7918
   86MOL    H7334243   1.704   7.124   2.195  0.4792  1.5152 -0.1871
   86MOL    H7434244   1.751   7.121   1.957  1.6177 -2.3109 -3.6444
   86MOL    H7534245   2.168   7.059   1.833  1.5017  0.5481 -1.7838
   86MOL    H7634246   2.092   7.069   1.676 -2.9235  2.2010  1.1526
   86MOL    H7734247   2.099   6.910   1.770  0.6310  0.4415  0.6039
   86MOL    H7834248   2.136   6.946   2.018  0.8456  4.6064 -2.0846
   86MOL    H7934249   2.102   6.954   2.256 -0.8891  1.1926  2.0209
   86MOL    H8034250   1.927   7.167   2.563  0.2168 -0.0678  0.0375
   86MOL    H8134251   2.054   7.157   2.457 -0.0464  1.1942  1.4254
   86MOL    C8234252   1.920   7.299   2.386  0.2359 -0.7739 -0.1547
   86MOL    C8334253   1.776   7.358   2.405  0.1546  0.4823  0.2867
   86MOL    C8434254   1.725   7.381   2.535 -0.3030 -0.2257 -0.7857
   86MOL    C8534255   1.599   7.425   2.560 -0.0110  0.1083  0.0418
   86MOL    C8634256   1.520   7.466   2.453  0.2468 -0.1719 -1.4891
   86MOL    O8734257   1.405   7.538   2.486 -0.1676 -0.0410  0.6013
   86MOL    C8834258   1.333   7.600   2.372 -0.6186  0.2704 -0.3711
   86MOL    C8934259   1.567   7.434   2.319 -0.1571  0.0440  0.6212
   86MOL    C9034260   1.696   7.385   2.295  0.6469 -0.1315  0.3282
   86MOL    C9134261   2.023   7.401   2.428  0.6104  0.1251 -0.0472
   86MOL    H9234262   1.932   7.289   2.278  0.8237 -0.8937 -0.0752
   86MOL    H9334263   1.787   7.364   2.622  0.6479 -1.7224 -1.7177
   86MOL    H9434264   1.569   7.446   2.662  2.0395  0.9783  0.4903
   86MOL    H9534265   1.294   7.521   2.307 -0.1085 -0.3642  0.0801
   86MOL    H9634266   1.416   7.652   2.323  0.9388 -1.3858  0.4198
   86MOL    H9734267   1.258   7.667   2.411  1.8755  2.2727  1.1178
   86MOL    H9834268   1.506   7.445   2.231 -2.4946  1.3787  2.3572
   86MOL    H9934269   1.736   7.376   2.196  2.1593 -1.0098  0.9988
   86MOL   H10034270   2.039   7.397   2.535  1.9527 -0.5202 -0.2518
   86MOL   H10134271   2.118   7.369   2.384 -0.4301  0.1290 -2.3568
   86MOL   C10234272   1.985   7.545   2.374 -0.3303  0.0327 -0.5774
   86MOL   C10334273   2.070   7.646   2.453  0.4960 -0.7354 -0.0298
   86MOL   C10434274   2.206   7.663   2.419 -1.8602 -0.1359  1.3477
   86MOL   C10534275   2.288   7.771   2.460  0.0330 -0.1550  0.0770
   86MOL   C10634276   2.229   7.858   2.561  0.8546  0.6209 -0.1546
   86MOL   O10734277   2.293   7.966   2.618  0.4014 -0.8166  0.7143
   86MOL   C10834278   2.414   8.004   2.561 -0.2406 -0.6107 -0.6922
   86MOL   C10934279   2.096   7.832   2.604  0.4405 -0.3913  0.1479
   86MOL   C11034280   2.010   7.733   2.546 -0.0931  0.7096  0.1057
   86MOL   C11134281   2.012   7.554   2.219  0.4225  0.1447 -0.2027
   86MOL   H11234282   1.880   7.571   2.392 -0.2969 -0.7537  0.8133
   86MOL   H11334283   2.255   7.600   2.346 -2.7422  0.7257 -0.0044
   86MOL   H11434284   2.392   7.789   2.436 -0.0908  1.5396  0.7378
   86MOL   H11534285   2.452   0.057   2.602  1.2671 -0.7548 -1.7342
   86MOL   H11634286   2.481   7.923   2.588 -0.1347 -0.9916 -2.0214
   86MOL   H11734287   2.418   8.001   2.452 -0.3486 -0.8674 -0.6905
   86MOL   H11834288   2.060   7.891   2.687 -0.6796 -1.0974  0.1731
   86MOL   H11934289   1.903   7.728   2.555 -0.1088  1.7325  0.5978
   86MOL   H12034290   2.114   7.517   2.205  0.1182 -0.7067 -0.2528
   86MOL   H12134291   1.952   7.473   2.176  1.1944 -0.2952 -0.4668
   86MOL   C12234292   2.008   7.682   2.143 -0.0640  0.0360 -0.5820
   86MOL   C12334293   1.882   7.763   2.159  0.2909 -0.1115  0.5290
   86MOL   C12434294   1.886   7.897   2.206 -0.0682 -0.4934  0.5501
   86MOL   C12534295   1.765   7.964   2.229  0.2027 -0.5782 -0.3012
   86MOL   C12634296   1.638   7.901   2.201 -0.2080 -0.0435 -0.9968
   86MOL   O12734297   1.516   7.955   2.222 -0.4942 -1.3417 -0.2549
   86MOL   C12834298   1.501   0.057   2.246  0.2566  0.6208  0.2278
   86MOL   C12934299   1.637   7.774   2.142 -0.1372 -0.0328  0.3211
   86MOL   C13034300   1.754   7.701   2.131  0.2198 -0.0788 -0.3493
   86MOL   C13134301   2.036   7.650   1.991 -0.4968 -0.3289  0.2836
   86MOL   H13234302   2.094   7.741   2.175 -1.6642  0.9579  2.1143
   86MOL   H13334303   1.979   7.945   2.233 -0.9589  2.9594 -2.1469
   86MOL   H13434304   1.778   0.024   2.268  0.8905 -0.9235  0.3636
   86MOL   H13534305   1.550   0.099   2.333 -2.9437  1.2691  1.7929
   86MOL   H13634306   1.518   0.115   2.155 -0.7375  1.0475  0.3136
   86MOL   H13734307   1.396   0.079   2.260  0.4734  1.0265  1.2296
   86MOL   H13834308   1.545   7.731   2.104 -0.1317  0.9500 -0.8590
   86MOL   H13934309   1.755   7.596   2.108  1.4700  0.2954 -2.1531
   86MOL   H14034310   1.952   7.594   1.950 -1.0391  0.2560  0.5852
   86MOL   H14134311   2.125   7.587   1.992  0.0469  0.2329 -4.0701
   86MOL   C14234312   2.057   7.770   1.900  0.4220 -0.0774  0.7222
   86MOL   C14334313   2.144   7.877   1.954 -0.6133 -0.7222  0.2370
   86MOL   C14434314   2.282   7.845   1.971 -0.4669  0.0774  0.2770
   86MOL   C14534315   2.372   7.932   2.028  0.1237 -0.6582 -0.6278
   86MOL   C14634316   2.328   0.019   2.079 -0.8793  0.2285  0.5963
   86MOL   O14734317   2.425   0.107   2.129  0.3688 -0.2537  0.0720
   86MOL   C14834318   2.535   0.041   2.194  0.5999 -0.3967 -0.3585
   86MOL   C14934319   2.201   0.054   2.062 -0.2966  0.2604  0.9597
   86MOL   C15034320   2.106   8.015   1.992 -0.3157  0.0595 -0.4229
   86MOL   C15134321   2.076   7.725   1.756 -0.7418  0.3862 -0.6043
   86MOL   H15234322   1.960   7.819   1.892 -0.4449 -2.1478 -2.3511
   86MOL   H15334323   2.312   7.747   1.937  0.6477  0.4441  0.1907
   86MOL   H15434324   2.475   7.900   2.026 -0.6511 -3.1967 -1.7930
   86MOL   H15534325   2.506   8.000   2.261  1.5674 -1.3181 -1.0369
   86MOL   H15634326   2.602   0.011   2.114  0.4591 -0.5909 -0.4062
   86MOL   H15734327   2.578   0.119   2.256 -1.3827  0.5543 -0.1208
   86MOL   H15834328   2.166   0.149   2.101 -0.1907  1.9173 -2.7616
   86MOL   H15934329   2.004   0.007   1.973  0.5569  1.9680 -2.0679
   86MOL   H16034330   1.980   7.678   1.732  0.0610 -1.3753 -0.3929
   86MOL   H16134331   2.156   7.652   1.752 -1.4313 -0.3381 -1.3184
   86MOL   C16234332   2.109   7.834   1.650  0.1831 -0.9431  0.0687
   86MOL   C16334333   2.001   7.935   1.632 -0.4866 -0.0413  0.2237
   86MOL   C16434334   2.039   0.032   1.606 -0.0706  0.5074  0.4380
   86MOL   C16534335   1.938   0.135   1.599 -0.0905 -0.3746  0.8167
   86MOL   C16634336   1.806   0.098   1.596  0.1175 -0.8437 -0.0973
   86MOL   O16734337   1.712   0.199   1.576 -0.0436 -0.2485  0.4891
   86MOL   C16834338   1.580   0.163   1.556  0.3026  0.1171 -0.2367
   86MOL   C16934339   1.770   8.003   1.628 -0.0772  0.2836 -0.2288
   86MOL   C17034340   1.865   7.904   1.651  0.7909  0.3546 -0.4161
   86MOL   C17134341   2.134   7.774   1.511 -0.0616  0.0596  0.1548
   86MOL   H17234342   2.200   7.889   1.671  0.3932 -1.4305  0.4730
   86MOL   H17334343   2.144   0.050   1.588  0.0403 -0.1151  0.4419
   86MOL   H17434344   1.961   0.233   1.560  0.9710  0.2446  2.8672
   86MOL   H17534345   1.536   0.146   1.654 -0.3669 -2.5889 -0.9640
   86MOL   H17634346   1.569   0.069   1.502  0.2035 -0.4178  0.7107
   86MOL   H17734347   1.526   0.249   1.516 -0.2544 -1.0788 -2.1183
   86MOL   H17834348   1.668   7.976   1.650  0.0123  2.5092  3.3663
   86MOL   H17934349   1.829   7.805   1.678  0.1568  0.5919 -0.3701
   86MOL   H18034350   2.161   7.860   1.449 -0.4190 -1.6899 -2.5181
   86MOL   H18134351   2.052   7.717   1.466 -0.0014  0.3740 -0.3515
   86MOL   C18234352   2.268   7.689   1.502  0.3550  0.2819 -0.3341
   86MOL   C18334353   2.392   7.773   1.493  0.3406 -0.1438  0.9213
   86MOL   C18434354   2.447   7.828   1.611  1.1401 -0.4253 -0.6812
   86MOL   C18534355   2.549   7.922   1.609  0.3609  0.0380 -1.0871
   86MOL   C18634356   2.613   7.958   1.495 -0.9249  0.2888 -0.4623
   86MOL   O18734357   2.700   0.022   1.507  0.2035 -0.2372 -0.1870
   86MOL   C18834358   2.814   0.033   1.426 -0.4164  0.3214  0.0474
   86MOL   C18934359   2.556   7.906   1.376  0.2228  0.2959  0.4375
   86MOL   C19034360   2.453   7.818   1.371 -0.3475 -0.0615  0.2189
   86MOL   C19134361   2.265   7.577   1.402 -0.3051 -0.1998 -0.0272
   86MOL   H19234362   2.288   7.630   1.592 -1.0411  0.1880 -0.0758
   86MOL   H19334363   2.410   7.796   1.707  1.5596  2.0657  0.3679
   86MOL   H19434364   2.580   7.967   1.702  1.3933 -1.3711 -0.7210
   86MOL   H19534365   2.789   0.032   1.320  2.7796  3.0575 -0.7887
   86MOL   H19634366   2.885   7.993   1.444 -1.0310 -0.0752  0.7570
   86MOL   H19734367   2.863   0.129   1.441  2.1945 -0.7521 -1.3716
   86MOL   H19834368   2.603   7.941   1.285 -0.6817  0.6229  0.0923
   86MOL   H19934369   2.413   7.784   1.276 -1.5395  0.0912  0.6601
   86MOL   H20034370   2.248   7.609   1.299 -1.1857 -0.8508 -0.0888
   86MOL   H20134371   2.359   7.523   1.411  0.8052  1.6813 -0.1431
   86MOL   C20234372   2.154   7.468   1.408 -0.5161  0.3382 -0.0373
   86MOL   C20334373   2.139   7.422   1.550  0.5352  0.2828  0.4137
   86MOL   C20434374   2.245   7.364   1.615  0.3417 -0.4984  0.0388
   86MOL   C20534375   2.230   7.316   1.744  0.1446  0.6277 -0.1210
   86MOL   C20634376   2.109   7.325   1.815  0.2366 -0.0466 -0.4268
   86MOL   O20734377   2.079   7.288   1.946 -0.2381  0.4733  0.3699
   86MOL   C20834378   2.195   7.290   2.026 -0.1236  0.9034 -0.6556
   86MOL   C20934379   1.997   7.376   1.740 -0.4306  0.0367 -0.4543
   86MOL   C21034380   2.006   7.419   1.609 -0.1875 -0.6228  0.5255
   86MOL   C21134381   2.200   7.348   1.320  0.1558  0.6808 -0.5189
   86MOL   H21234382   2.059   7.513   1.378 -1.1527 -0.7714  0.2758
   86MOL   H21334383   2.337   7.362   1.559  1.0198 -1.5871  1.1876
   86MOL   H21434384   2.318   7.272   1.788 -1.0368 -1.8049 -0.0982
   86MOL   H21534385   2.255   7.380   2.036  1.1188 -0.0032  0.2943
   86MOL   H21634386   2.176   7.250   2.126  2.6454 -1.9266 -1.1686
   86MOL   H21734387   2.259   7.209   1.990 -0.2557  0.2427  0.5645
   86MOL   H21834388   1.900   7.385   1.787 -0.1186  0.6993  0.0635
   86MOL   H21934389   1.922   7.464   1.558  0.3106 -0.8718 -0.5256
   86MOL   H22034390   2.295   7.310   1.357  0.8940  3.1381  0.2328
   86MOL   H22134391   2.235   7.387   1.224  0.8411  0.2553 -0.4423
   86MOL   C22234392   2.100   7.239   1.285 -1.0493 -0.8703 -0.1082
   86MOL   C22334393   2.162   7.158   1.170 -0.5772 -0.9722 -0.4568
   86MOL   C22434394   2.106   7.177   1.039 -0.1514  0.2198  0.6005
   86MOL   C22534395   2.141   7.085   0.934  0.2100  0.4219 -0.1674
   86MOL   C22634396   2.235   6.986   0.952  0.0642  0.2130  0.7581
   86MOL   O22734397   2.270   6.897   0.854  0.3135 -0.6113 -0.4072
   86MOL   C22834398   2.167   6.878   0.753  0.9728  0.3289  0.0427
   86MOL   C22934399   2.285   6.969   1.082 -0.0466  0.4563 -0.3425
   86MOL   C23034400   2.252   7.053   1.188  0.0281  0.3862  0.3904
   86MOL   C23134401   2.039   7.148   1.393  0.3487 -0.3765  0.4174
   86MOL   H23234402   2.019   7.297   1.240  1.4055  2.0662 -0.9525
   86MOL   H23334403   2.040   7.259   1.015  2.4382  2.1041 -0.1931
   86MOL   H23434404   2.101   7.098   0.834 -0.5509 -0.6859 -0.0191
   86MOL   H23534405   2.194   6.921   0.656  2.9587 -1.8860 -0.4348
   86MOL   H23634406   2.176   6.772   0.728  0.8883  0.6168 -1.2795
   86MOL   H23734407   2.064   6.892   0.785  1.6819 -0.0274  2.5537
   86MOL   H23834408   2.358   6.890   1.093 -0.8599 -0.0325  1.7643
   86MOL   H23934409   2.299   7.027   1.281 -0.2206 -1.7348 -0.0478
   86MOL   H24034410   2.106   7.075   1.438 -0.2404  0.0608  2.0449
   86MOL   H24134411   2.005   7.196   1.485  1.7559 -0.0471  0.7848
   86MOL   C24234412   1.916   7.065   1.340 -0.1164  0.6040 -0.8029
   86MOL   C24334413   1.909   6.920   1.398  1.2476 -0.8164  0.9408
   86MOL   C24434414   1.836   6.913   1.520 -0.4182  0.8894 -0.5131
   86MOL   C24534415   1.817   6.785   1.581 -0.2416 -0.7534 -0.6075
   86MOL   C24634416   1.876   6.669   1.516  0.1874  0.0889  0.3261
   86MOL   O24734417   1.860   6.542   1.566 -0.5487 -0.3058  0.1848
   86MOL   C24834418   1.769   6.527   1.679  0.2987 -0.5443 -0.1448
   86MOL   C24934419   1.945   6.684   1.391 -0.1073  0.2636 -0.0598
   86MOL   C25034420   1.969   6.808   1.337  0.1952 -0.0873  0.0905
   86MOL   C25134421   1.776   7.132   1.343 -0.3180 -0.2599  0.1985
   86MOL   H25234422   1.945   7.030   1.241  1.4322  0.6251 -0.3671
   86MOL   H25334423   1.783   6.995   1.565  0.1904 -0.7390  3.3598
   86MOL   H25434424   1.754   6.775   1.668  2.2745  0.5316  1.4250
   86MOL   H25534425   1.793   6.577   1.773 -1.6125 -0.3099  0.2498
   86MOL   H25634426   1.666   6.550   1.650  0.3521 -2.8201 -2.3295
   86MOL   H25734427   1.760   6.424   1.716 -2.5720  0.5054  2.3184
   86MOL   H25834428   1.992   6.598   1.345 -0.0686  1.0021 -1.4243
   86MOL   H25934429   2.023   6.821   1.244 -0.8151  3.0674 -0.1161
   86MOL   H26034430   1.785   7.201   1.427  0.9695  0.0914 -0.2124
   86MOL   H26134431   1.697   7.060   1.358  1.0304 -2.0877 -1.2336
   86MOL   C26234432   1.732   7.217   1.221  0.6446  0.7166 -0.5877
   86MOL   C26334433   1.595   7.277   1.253 -0.3915 -0.2716  0.0779
   86MOL   C26434434   1.478   7.206   1.222  0.0373  0.1499  0.2784
   86MOL   C26534435   1.350   7.262   1.250 -0.0237  0.4124 -0.5920
   86MOL   C26634436   1.342   7.382   1.329  0.6224  0.3889 -0.6942
   86MOL   O26734437   1.225   7.434   1.371  0.2346  0.2967  0.5655
   86MOL   C26834438   1.105   7.377   1.319 -0.6235 -0.2773 -0.0544
   86MOL   C26934439   1.464   7.440   1.373 -0.7367  0.5945 -0.1310
   86MOL   C27034440   1.590   7.392   1.337  0.7470  0.1671 -0.0430
   86MOL   C27134441   1.744   7.141   1.083  0.4964 -0.3513  0.9270
   86MOL   H27234442   1.791   7.308   1.206  2.4465 -0.5899 -1.5625
   86MOL   H27334443   1.475   7.111   1.172 -0.1256  0.1632  0.2625
   86MOL   H27434444   1.262   7.210   1.214  0.0477  1.4998 -2.4223
   86MOL   H27534445   1.096   7.280   1.367 -1.2479 -0.4876 -0.5867
   86MOL   H27634446   1.108   7.372   1.210 -1.6878 -0.8734 -0.0693
   86MOL   H27734447   1.009   7.425   1.341  0.4546  1.3201  1.3179
   86MOL   H27834448   1.460   7.525   1.441 -1.7606 -1.0887  1.9836
   86MOL   H27934449   1.679   7.441   1.375  0.5842  0.0088  0.5438
   86MOL   H28034450   1.852   7.143   1.068  0.2176  2.3520 -1.1838
   86MOL   H28134451   1.724   7.034   1.098 -2.0907 -0.1678 -0.8396
   86MOL   C28234452   1.666   7.193   0.954 -0.2529  0.0632 -0.6255
   86MOL   C28334453   1.694   7.098   0.838  0.5402  0.2429 -0.1233
   86MOL   C28434454   1.582   7.031   0.783 -0.3047  0.1864  0.4561
   86MOL   C28534455   1.603   6.959   0.666 -0.3248 -0.2926 -0.1774
   86MOL   C28634456   1.723   6.950   0.598 -0.5269  0.3274  0.1459
   86MOL   O28734457   1.742   6.882   0.480 -0.3314 -0.0713  0.2923
   86MOL   C28834458   1.632   6.828   0.409 -0.0085  0.0261 -0.3806
   86MOL   C28934459   1.833   7.019   0.655  0.8076 -0.0500  0.2911
   86MOL   C29034460   1.814   7.091   0.771  0.2348 -0.8521  0.1940
   86MOL   C29134461   1.699   7.345   0.919 -0.1847  0.5339  0.9058
   86MOL   H29234462   1.561   7.184   0.981  0.0557 -1.6568  0.0342
   86MOL   H29334463   1.485   7.042   0.830  0.1241  2.1760  0.9317
   86MOL   H29434464   1.513   6.918   0.622  0.3104 -1.6340 -0.2736
   86MOL   H29534465   1.559   6.905   0.385  0.0885 -0.0535 -0.9507
   86MOL   H29634466   1.679   6.790   0.318  2.3893  0.9244  0.4655
   86MOL   H29734467   1.581   6.747   0.462 -1.6880  0.3592 -1.4351
   86MOL   H29834468   1.923   7.019   0.595  0.5574  0.8314 -0.1020
   86MOL   H29934469   1.898   7.150   0.806  0.9431 -2.2743  0.9151
   86MOL   H30034470   1.695   7.417   1.001  1.1162  1.9263 -0.2201
   86MOL   H30134471   1.805   7.337   0.895 -0.5664  0.4732 -0.7658
   86MOL   C30234472   1.631   7.403   0.799  0.1616 -0.0549  0.5457
   86MOL   C30334473   1.479   7.392   0.804  0.4437 -0.1626  0.5209
   86MOL   C30434474   1.410   7.413   0.919  0.6921 -0.4936 -0.6395
   86MOL   C30534475   1.269   7.396   0.917  0.0641 -0.5432  0.2182
   86MOL   C30634476   1.199   7.378   0.798  0.4554 -0.5457 -0.1275
   86MOL   O30734477   1.064   7.392   0.804  0.4574 -0.1294  0.2152
   86MOL   C30834478   0.991   7.409   0.686  1.1009 -0.6161  0.4485
   86MOL   C30934479   1.271   7.367   0.678  0.0580  0.3008 -0.0391
   86MOL   C31034480   1.407   7.375   0.683 -0.4427  0.3767  0.4985
   86MOL   C31134481   1.661   7.556   0.768 -0.6097 -0.0413  0.4045
   86MOL   H31234482   1.651   7.341   0.711  0.1801 -0.1601  0.6234
   86MOL   H31334483   1.457   7.425   1.016 -1.0799 -0.2706  0.2147
   86MOL   H31434484   1.213   7.400   1.009  0.0455 -0.6226  0.2106
   86MOL   H31534485   1.024   7.500   0.636 -0.0850  1.0165  2.5743
   86MOL   H31634486   0.886   7.425   0.710  0.4911 -2.3403 -0.9046
   86MOL   H31734487   0.991   7.319   0.624 -0.6227 -0.6645  0.4994
   86MOL   H31834488   1.218   7.375   0.584  2.0165 -1.5949 -1.3465
   86MOL   H31934489   1.464   7.368   0.592 -1.7807 -2.1957 -0.1774
   86MOL   H32034490   1.697   7.599   0.861 -1.8622  0.8725  0.4815
   86MOL   H32134491   1.576   7.618   0.739  1.3222  1.8568 -1.3882
   86MOL   C32234492   1.777   7.570   0.660  0.6722 -0.3907  0.3381
   86MOL   C32334493   1.909   7.513   0.711  0.0299  0.1389 -0.2166
   86MOL   C32434494   1.979   7.601   0.797  0.0685 -0.7330  0.7086
   86MOL   C32534495   2.109   7.577   0.839 -0.4097  0.3842  0.4957
   86MOL   C32634496   2.168   7.451   0.801  0.4618 -0.6519 -0.5262
   86MOL   O32734497   2.283   7.397   0.846  0.5372 -0.3520 -0.3409
   86MOL   C32834498   2.378   7.482   0.904 -0.5802  0.6910  0.3041
   86MOL   C32934499   2.095   7.365   0.717 -0.0362  0.0673  0.9595
   86MOL   C33034500   1.964   7.391   0.676  0.4179 -0.4721  1.0880
   86MOL   C33134501   1.780   7.718   0.604  0.3565 -0.5109 -0.2274
   86MOL   H33234502   1.754   7.501   0.578  2.5999 -0.4455 -0.1768
   86MOL   H33334503   1.928   7.691   0.826  0.0732 -0.4608 -0.1220
   86MOL   H33434504   2.152   7.641   0.915 -2.1332  1.4788  0.5620
   86MOL   H33534505   2.374   7.582   0.862  2.6335  0.6305 -0.2281
   86MOL   H33634506   2.473   7.439   0.875 -1.8710 -1.9826 -0.1643
   86MOL   H33734507   2.372   7.489   1.013  2.2138 -0.1168  0.5359
   86MOL   H33834508   2.152   7.277   0.688 -0.0697  0.4198 -0.1963
   86MOL   H33934509   1.929   7.321   0.602  0.6044 -1.4663  1.9201
   86MOL   H34034510   1.724   7.777   0.677  0.4773 -0.5395 -0.1113
   86MOL   H34134511   1.883   7.753   0.603  0.3870 -0.5899  0.1003
   86MOL   C34234512   1.707   7.737   0.467  0.3476 -0.4801  0.2557
   86MOL   C34334513   1.742   7.873   0.416 -0.1305 -0.5365 -0.1045
   86MOL   C34434514   1.839   7.875   0.309  0.1680 -0.2788 -0.1899
   86MOL   C34534515   1.867   8.002   0.252 -0.5295  0.7041 -0.1781
   86MOL   C34634516   1.803   0.081   0.296  0.2278 -0.6077  0.2909
   86MOL   O34734517   1.846   0.195   0.233  0.0322 -0.5240 -0.0456
   86MOL   C34834518   1.772   0.315   0.246 -0.2971  0.4628  0.3263
   86MOL   C34934519   1.707   0.068   0.401 -0.1245  0.6071  0.0404
   86MOL   C35034520   1.682   7.987   0.465  0.0463  0.3252 -0.3772
   86MOL   C35134521   1.564   7.700   0.463 -0.6714  0.2607  0.3179
   86MOL   H35234522   1.753   7.664   0.401 -0.0242 -0.3383 -0.1647
   86MOL   H35334523   1.887   7.793   0.257  0.0727 -0.7796  0.5059
   86MOL   H35434524   1.938   8.015   0.172  0.8489  0.0105  0.8870
   86MOL   H35534525   1.807   0.375   0.163  2.4686 -0.5247  0.7079
   86MOL   H35634526   1.664   0.302   0.237 -0.4448  2.2391 -0.5926
   86MOL   H35734527   1.798   0.366   0.339 -0.2255 -3.0005  2.3019
   86MOL   H35834528   1.664   0.158   0.443  0.8054  0.8026  0.5986
   86MOL   H35934529   1.612   7.989   0.547  3.4207 -2.1731  2.7514
   86MOL   H36034530   1.568   7.592   0.478  2.8897  0.4155  0.8699
   86MOL   H36134531   1.504   7.751   0.540  0.1360  0.4510  0.8239
   86MOL   C36234532   1.478   7.728   0.334 -0.2665 -0.1867  0.0146
   86MOL   C36334533   1.328   7.704   0.348  0.2639  0.6992 -0.0007
   86MOL   C36434534   1.271   7.574   0.363 -0.3477  0.0188  0.0168
   86MOL   C36534535   1.131   7.561   0.378 -0.3354  0.0431 -0.4704
   86MOL   C36634536   1.045   7.678   0.383  0.0264 -0.1331 -0.3265
   86MOL   O36734537   0.906   7.669   0.415 -0.2630  0.1516 -0.2763
   86MOL   C36834538   0.834   7.551   0.391  0.2955 -0.9070 -0.7503
   86MOL   C36934539   1.102   7.806   0.371  0.3948  0.0838 -0.1713
   86MOL   C37034540   1.242   7.820   0.354  0.2720  0.3556 -0.2905
   86MOL   C37134541   1.539   7.662   0.212  0.0739 -0.2485  0.0975
   86MOL   H37234542   1.487   7.835   0.315 -1.8295 -0.2281 -1.0703
   86MOL   H37334543   1.335   7.487   0.366 -0.5919 -0.1805 -0.4257
   86MOL   H37434544   1.090   7.461   0.384 -2.6212  1.0091  0.2835
   86MOL   H37534545   0.824   7.503   0.489  1.9134 -0.4395 -0.3360
   86MOL   H37634546   0.729   7.574   0.372 -0.0555 -0.2699  1.7569
   86MOL   H37734547   0.875   7.486   0.313 -1.4978 -2.4541 -0.4412
   86MOL   H37834548   1.041   7.895   0.370  1.4097  0.8063  1.2450
   86MOL   H37934549   1.275   7.923   0.355 -0.4010  0.5986  2.1098
   86MOL   H38034550   1.643   7.691   0.200 -0.2171 -0.0404 -2.3183
   86MOL   H38134551   1.531   7.554   0.225 -0.7070 -0.1552  0.4180
   86MOL   C38234552   1.475   7.702   0.080 -0.3927  0.4881 -0.3688
   86MOL   C38334553   1.460   7.583   8.033  0.6944 -0.4231  0.0625
   86MOL   C38434554   1.337   7.512   8.027  0.1489  0.5659  0.0985
   86MOL   C38534555   1.320   7.400   7.938 -0.0999 -0.7873 -0.1299
   86MOL   C38634556   1.426   7.356   7.857 -0.2038 -0.3370  0.1991
   86MOL   O38734557   1.399   7.239   7.785  0.1246  0.6749  0.8439
   86MOL   C38834558   1.492   7.190   7.692 -0.3632 -0.0895  0.0659
   86MOL   C38934559   1.546   7.426   7.862  0.6328 -0.0816  0.1931
   86MOL   C39034560   1.566   7.539   7.950  0.2869 -0.2350  0.5217
   86MOL   C39134561   1.537   7.826   0.007 -0.0538  0.4638  0.7948
   86MOL   H39234562   1.373   7.737   0.094  0.5636  2.3705  2.4935
   86MOL   H39334563   1.256   7.546   0.051 -0.7240 -1.1039 -0.0813
   86MOL   H39434564   1.226   7.347   7.940 -2.1521  2.5068 -2.8467
   86MOL   H39534565   1.500   7.262   7.611  1.0005 -0.9025 -0.5474
   86MOL   H39634566   1.452   7.098   7.649  1.1100  0.1105 -1.7786
   86MOL   H39734567   1.590   7.166   7.734  1.4655 -0.5860 -4.2375
   86MOL   H39834568   1.628   7.392   7.801  0.5683  0.1168 -0.0094
   86MOL   H39934569   1.664   7.585   7.948  0.1888 -0.0413  0.1660
   86MOL   H40034570   1.635   7.802   8.008 -0.0959 -1.5588  1.8434
   86MOL   H40134571   1.547   7.911   0.074 -1.0590  3.1367 -2.3405
   86MOL   H40234572   1.476   7.840   7.958 -2.1559  0.8329  2.2452
   87MOL     C134573   2.789   1.919   6.445 -0.5361 -0.3970  0.3821
   87MOL     C234574   2.918   1.872   6.515  0.1337  0.3918  0.3452
   87MOL     C334575   3.044   1.938   6.492 -0.2938 -0.7369  0.3856
   87MOL     C434576   3.162   1.887   6.555  0.0237  0.2221  0.0667
   87MOL     C534577   3.163   1.763   6.617  0.0109  0.4333  0.1814
   87MOL     O634578   3.275   1.691   6.651  0.1648 -0.5182 -0.3243
   87MOL     C734579   3.399   1.739   6.619  0.1118 -0.7211  0.4082
   87MOL     C834580   3.043   1.703   6.646  0.2850 -0.6198 -0.1938
   87MOL     C934581   2.924   1.752   6.595 -0.8197 -0.1083  0.4437
   87MOL    C1034582   2.750   1.824   6.329 -0.0579  0.2803  0.2704
   87MOL    H1134583   2.794   2.018   6.400 -0.1896 -0.7587 -0.3749
   87MOL    H1234584   3.053   2.019   6.422 -0.3342 -1.5005 -0.5223
   87MOL    H1334585   3.257   1.935   6.537 -0.3564  0.9240 -0.0888
   87MOL    H1434586   3.427   1.818   6.689  0.5901 -1.5652  1.1822
   87MOL    H1534587   3.452   1.649   6.650 -0.2791 -0.8292  0.7662
   87MOL    H1634588   3.420   1.764   6.515  2.6765  0.3558  1.1369
   87MOL    H1734589   3.036   1.608   6.698  3.5049 -0.1324  1.2104
   87MOL    H1834590   2.833   1.697   6.610 -1.9234  1.3872 -0.6412
   87MOL    H1934591   2.834   1.822   6.259 -2.1296  0.6845 -2.2670
   87MOL    H2034592   2.746   1.728   6.380 -1.3539  1.6655  2.8739
   87MOL    H2134593   2.718   1.922   6.527  0.9336 -0.0088  1.6705
   87MOL    C2234594   2.617   1.867   6.258 -0.2487  0.0433  0.2244
   87MOL    C2334595   2.595   1.805   6.114 -0.8507  0.0312  0.1952
   87MOL    C2434596   2.577   1.888   6.003 -0.8478 -0.6237  0.4306
   87MOL    C2534597   2.569   1.839   5.869 -0.0350 -0.1151 -0.4805
   87MOL    C2634598   2.577   1.700   5.853 -0.6638 -0.5164  0.2608
   87MOL    O2734599   2.579   1.634   5.734 -0.0091 -0.0507  0.5949
   87MOL    C2834600   2.547   1.702   5.611 -0.1693 -0.4019 -0.7821
   87MOL    C2934601   2.599   1.618   5.965  0.0799 -0.4887 -0.8132
   87MOL    C3034602   2.610   1.669   6.095  0.6078  0.6233  0.2578
   87MOL    C3134603   2.502   1.844   6.352  0.4584  0.0823  0.2696
   87MOL    H3234604   2.632   1.973   6.239  2.3193 -0.1499  0.9596
   87MOL    H3334605   2.584   1.994   6.019 -0.3467 -0.5647 -0.1840
   87MOL    H3434606   2.565   1.907   5.785  1.8199 -0.7317 -1.0818
   87MOL    H3534607   2.563   1.644   5.521  1.8242 -0.3070 -0.5178
   87MOL    H3634608   2.602   1.795   5.599  1.2062 -1.3563 -2.0442
   87MOL    H3734609   2.443   1.733   5.616 -0.6320 -2.1762  1.2419
   87MOL    H3834610   2.621   1.516   5.935 -0.4181 -0.2874 -1.8592
   87MOL    H3934611   2.635   1.608   6.180 -1.6956 -0.6827  0.0303
   87MOL    H4034612   2.486   1.736   6.353 -0.2970  0.1955  1.0823
   87MOL    H4134613   2.509   1.876   6.456 -0.5612 -0.8863  0.6491
   87MOL    C4234614   2.374   1.918   6.300  0.8068 -0.2106 -0.3611
   87MOL    C4334615   2.398   2.068   6.270 -0.6705 -0.2612  0.5322
   87MOL    C4434616   2.479   2.150   6.346 -0.2528  0.0526  0.2371
   87MOL    C4534617   2.492   2.284   6.306 -0.8038  0.5285 -0.3091
   87MOL    C4634618   2.424   2.341   6.194  0.1435 -0.6874  1.0726
   87MOL    O4734619   2.429   2.470   6.150 -0.0600  0.0029 -0.7337
   87MOL    C4834620   2.505   2.567   6.226  1.0410  0.5246  0.2536
   87MOL    C4934621   2.345   2.259   6.114  0.3346  0.1306  0.2685
   87MOL    C5034622   2.330   2.124   6.155 -0.0132  0.8471 -0.8296
   87MOL    C5134623   2.253   1.882   6.394  0.6419 -0.2761  0.3240
   87MOL    H5234624   2.356   1.881   6.199 -0.5327  0.7481 -0.4773
   87MOL    H5334625   2.532   2.113   6.432 -0.8904  0.5198  0.8378
   87MOL    H5434626   2.562   2.340   6.365 -2.6059  1.1945  1.2506
   87MOL    H5534627   2.443   2.587   6.314 -0.1699 -1.1489 -0.1851
   87MOL    H5634628   2.606   2.533   6.252  1.6828  1.2331 -1.2806
   87MOL    H5734629   2.509   2.652   6.159 -1.3741  1.1396  0.8538
   87MOL    H5834630   2.285   2.300   6.035  1.0845 -1.7495 -1.3019
   87MOL    H5934631   2.273   2.062   6.087 -2.9759 -2.7400  4.6469
   87MOL    H6034632   2.212   1.979   6.423  3.3872  1.0175  0.0076
   87MOL    H6134633   2.284   1.847   6.493  2.6228 -0.9919 -0.5223
   87MOL    C6234634   2.144   1.797   6.328  0.5836  0.5167 -0.2226
   87MOL    C6334635   2.029   1.791   6.424 -0.8100  0.3282  0.3435
   87MOL    C6434636   1.899   1.832   6.378 -0.1582  0.0441  0.5935
   87MOL    C6534637   1.786   1.807   6.462  0.1582 -0.3328  0.2670
   87MOL    C6634638   1.794   1.742   6.585 -0.2406  0.0834 -0.1186
   87MOL    O6734639   1.689   1.708   6.669 -1.1051  0.3907 -0.1035
   87MOL    C6834640   1.562   1.712   6.617  1.8459 -0.1225  0.6529
   87MOL    C6934641   1.925   1.713   6.623 -0.3204  0.0849 -0.0067
   87MOL    C7034642   2.041   1.728   6.548 -1.2681 -0.3583 -0.2030
   87MOL    C7134643   2.198   1.659   6.290 -0.3078 -0.3473  0.4068
   87MOL    H7234644   2.101   1.857   6.247 -1.4369 -3.0561 -1.8831
   87MOL    H7334645   1.883   1.881   6.284  1.0168 -1.2439 -0.3024
   87MOL    H7434646   1.691   1.852   6.438  0.9996  0.8549 -0.9453
   87MOL    H7534647   1.532   1.814   6.640  0.8762 -0.5418  1.2354
   87MOL    H7634648   1.502   1.640   6.671  0.0747 -0.1881 -1.3523
   87MOL    H7734649   1.553   1.694   6.510  0.9153  2.2536  0.2989
   87MOL    H7834650   1.933   1.668   6.721 -0.7786  0.1025  0.0404
   87MOL    H7934651   2.138   1.694   6.581 -1.8256 -1.2012  0.5796
   87MOL    H8034652   2.279   1.681   6.220  0.4258 -2.5751  0.5265
   87MOL    H8134653   2.240   1.604   6.374  1.3756  0.8919  0.4107
   87MOL    C8234654   2.094   1.579   6.208 -0.4308 -0.1260  0.3877
   87MOL    C8334655   2.084   1.628   6.063 -0.1059  0.0799 -0.7956
   87MOL    C8434656   2.195   1.659   5.976  0.4865 -0.6833 -0.5095
   87MOL    C8534657   2.181   1.700   5.844 -0.6880  0.2919 -0.2030
   87MOL    C8634658   2.050   1.712   5.797  0.3120 -0.3392 -0.4170
   87MOL    O8734659   2.027   1.762   5.672  0.7130 -0.6071  0.3165
   87MOL    C8834660   2.130   1.798   5.589 -0.5523 -0.2588 -0.8993
   87MOL    C8934661   1.934   1.683   5.882  0.3986 -0.4039 -0.4020
   87MOL    C9034662   1.956   1.648   6.015 -0.0308 -0.8330  0.2169
   87MOL    C9134663   2.138   1.437   6.202  0.3991 -1.3026  0.5168
   87MOL    H9234664   1.999   1.587   6.260  0.2672  1.2765  1.4699
   87MOL    H9334665   2.294   1.635   6.011  0.1937 -0.5854  0.4120
   87MOL    H9434666   2.272   1.720   5.789  0.4904 -2.9748  0.4489
   87MOL    H9534667   2.083   1.862   5.514 -0.4692 -2.7578 -3.1258
   87MOL    H9634668   2.161   1.708   5.536  1.4858  0.5313 -1.0809
   87MOL    H9734669   2.211   1.849   5.641 -0.2725  0.7080 -2.2747
   87MOL    H9834670   1.833   1.693   5.847  1.7220  0.5697 -4.1233
   87MOL    H9934671   1.876   1.617   6.081 -0.3339  0.0564  0.2708
   87MOL   H10034672   2.086   1.393   6.117 -0.3514 -2.4421  1.5535
   87MOL   H10134673   2.242   1.430   6.168  0.3148 -1.6972  0.3452
   87MOL   C10234674   2.118   1.352   6.333 -0.2689  0.4281 -0.1223
   87MOL   C10334675   1.979   1.290   6.331 -0.6387 -0.7731  0.6958
   87MOL   C10434676   1.884   1.341   6.416 -0.3715 -0.8307 -0.6656
   87MOL   C10534677   1.755   1.289   6.418 -0.8481  0.4287 -0.3382
   87MOL   C10634678   1.729   1.172   6.345 -0.0367  0.5576 -1.0891
   87MOL   O10734679   1.605   1.117   6.372  0.3195 -0.1227  0.6168
   87MOL   C10834680   1.578   1.003   6.296 -0.3565 -0.2504 -0.0788
   87MOL   C10934681   1.825   1.128   6.252 -0.2197 -0.1974  0.3657
   87MOL   C11034682   1.946   1.189   6.241 -0.0624 -0.1612 -0.3270
   87MOL   C11134683   2.220   1.235   6.362 -0.0243  0.2193  0.2463
   87MOL   H11234684   2.116   1.418   6.419  1.1093  2.0873 -1.3327
   87MOL   H11334685   1.899   1.423   6.485 -3.1653 -0.2635 -0.6791
   87MOL   H11434686   1.689   1.335   6.490  1.1309  1.0546  1.1126
   87MOL   H11534687   1.477   0.972   6.323 -0.1308 -2.2363 -1.4465
   87MOL   H11634688   1.576   1.034   6.191  1.1280 -2.5085 -0.8030
   87MOL   H11734689   1.649   0.926   6.325  1.1430  0.6941 -1.1646
   87MOL   H11834690   1.804   1.041   6.192  0.8114 -2.2439  2.8757
   87MOL   H11934691   2.012   1.153   6.164 -0.0005  1.8702 -1.2451
   87MOL   H12034692   2.178   1.142   6.322  0.5880  0.2812 -0.5334
   87MOL   H12134693   2.317   1.257   6.319 -0.5907 -0.0424 -1.2010
   87MOL   C12234694   2.247   1.228   6.518 -0.4105 -0.7433  0.0310
   87MOL   C12334695   2.325   1.353   6.559 -0.0087  0.1768  0.2507
   87MOL   C12434696   2.268   1.450   6.643 -0.1614  0.0621 -0.3993
   87MOL   C12534697   2.334   1.568   6.674  0.4168  0.6318  0.1351
   87MOL   C12634698   2.472   1.585   6.639  0.8709  0.0011 -1.0059
   87MOL   O12734699   2.541   1.695   6.671  0.1145  0.0820 -0.4355
   87MOL   C12834700   2.470   1.796   6.752 -0.0135 -0.0758 -0.7266
   87MOL   C12934701   2.523   1.494   6.538 -0.3998 -1.0011  0.4066
   87MOL   C13034702   2.450   1.388   6.495 -0.1052  0.2773  0.2473
   87MOL   C13134703   2.335   1.112   6.551 -0.2518  0.0335  0.0249
   87MOL   H13234704   2.152   1.225   6.572 -0.7739 -0.5902 -0.5915
   87MOL   H13334705   2.164   1.458   6.674  0.1641 -1.2285  1.1293
   87MOL   H13434706   2.286   1.633   6.746 -0.7448  1.3510 -1.2556
   87MOL   H13534707   2.447   1.779   6.857  0.9120  0.4397 -0.4412
   87MOL   H13634708   2.535   1.884   6.751  1.6658 -1.2627  0.7222
   87MOL   H13734709   2.380   1.822   6.695 -0.5670 -1.2029 -0.3895
   87MOL   H13834710   2.625   1.498   6.503 -1.2359  0.8818 -1.9732
   87MOL   H13934711   2.491   1.318   6.423 -0.8811  0.1427 -0.0686
   87MOL   H14034712   2.436   1.126   6.511  0.1057  0.2235  0.9935
   87MOL   H14134713   2.292   1.021   6.510  1.2270  0.0854 -1.7221
   87MOL   C14234714   2.350   1.105   6.702 -0.6736 -0.0105  0.6676
   87MOL   C14334715   2.225   1.043   6.760  0.1649 -0.7179  0.0091
   87MOL   C14434716   2.201   0.905   6.751 -0.3063  0.1431  0.3119
   87MOL   C14534717   2.089   0.842   6.803 -0.1240 -0.0555  0.2386
   87MOL   C14634718   1.988   0.917   6.874  0.0581 -0.1160  0.0287
   87MOL   O14734719   1.869   0.868   6.928 -0.1119 -0.1031  0.3027
   87MOL   C14834720   1.845   0.731   6.916 -0.2790  0.2626  0.3877
   87MOL   C14934721   2.016   1.058   6.891  0.1237 -0.1367  0.2553
   87MOL   C15034722   2.128   1.115   6.830 -0.2554  0.6941 -0.2190
   87MOL   C15134723   2.479   1.029   6.739 -0.8936  0.0007  0.4630
   87MOL   H15234724   2.349   1.203   6.750  0.4484  0.7077 -0.7715
   87MOL   H15334725   2.274   0.845   6.698 -1.2340 -0.5236 -0.2242
   87MOL   H15434726   2.086   0.735   6.786  2.3377 -0.2362  0.7836
   87MOL   H15534727   1.922   0.671   6.965 -2.3795 -0.4654  2.9246
   87MOL   H15634728   1.752   0.702   6.964 -0.1947  0.2996  0.5741
   87MOL   H15734729   1.836   0.708   6.810  2.2725 -1.1757  0.4272
   87MOL   H15834730   1.944   1.113   6.950  0.9698  0.8713  0.3674
   87MOL   H15934731   2.135   1.222   6.845  0.3583  0.6097  0.1480
   87MOL   H16034732   2.560   1.063   6.674  0.7273 -0.2494  2.3211
   87MOL   H16134733   2.467   0.920   6.739 -0.8450 -0.0249 -1.2088
   87MOL   C16234734   2.522   1.079   6.885 -0.1308  0.0223  0.0881
   87MOL   C16334735   2.666   1.037   6.902  0.8144  0.4875  0.0285
   87MOL   C16434736   2.760   1.126   6.963 -0.2659 -0.6041 -0.9349
   87MOL   C16534737   2.898   1.111   6.943 -0.8664  0.5323 -0.6827
   87MOL   C16634738   2.950   1.000   6.878  0.0518  0.6563 -0.1164
   87MOL   O16734739   3.087   0.990   6.860  0.3277 -0.0934 -0.6355
   87MOL   C16834740   3.133   0.917   6.748  0.0513  0.3252 -0.4848
   87MOL   C16934741   2.855   0.897   6.842  0.5334  0.3307  0.0894
   87MOL   C17034742   2.716   0.923   6.841 -0.4650 -0.8511 -0.5121
   87MOL   C17134743   2.439   1.022   7.000 -0.3704 -0.1035 -0.1093
   87MOL   H17234744   2.531   1.187   6.874  3.2418 -0.2118  0.0781
   87MOL   H17334745   2.730   1.213   7.019  2.0144 -1.7546  2.2181
   87MOL   H17434746   2.967   1.182   6.986  0.4523 -1.2205  0.1994
   87MOL   H17534747   3.238   0.934   6.726 -0.0100 -0.2487 -1.2325
   87MOL   H17634748   3.076   0.956   6.663 -1.6935  3.0357  1.8353
   87MOL   H17734749   3.114   0.811   6.763 -0.4767  0.5854  0.7148
   87MOL   H17834750   2.883   0.803   6.796  0.8686  0.9300 -0.9585
   87MOL   H17934751   2.651   0.849   6.795 -2.3166  0.4556 -0.0747
   87MOL   H18034752   2.448   0.914   6.996 -0.8656 -0.1368 -0.3243
   87MOL   H18134753   2.332   1.041   6.995  0.2679  3.4052 -1.9918
   87MOL   C18234754   2.468   1.078   7.140 -0.3791 -0.2683 -0.0955
   87MOL   C18334755   2.462   0.964   7.245 -0.2501 -0.2493 -0.1383
   87MOL   C18434756   2.339   0.906   7.278  0.3189  0.2568  0.4409
   87MOL   C18534757   2.337   0.803   7.375  0.7202 -0.3026 -0.8287
   87MOL   C18634758   2.457   0.744   7.420 -0.5812 -1.1059 -0.6294
   87MOL   O18734759   2.452   0.639   7.512  0.0603  0.3519  0.3958
   87MOL   C18834760   2.570   0.571   7.541 -0.3212  0.4638  0.1664
   87MOL   C18934761   2.580   0.808   7.387  0.1290 -0.3345 -1.0381
   87MOL   C19034762   2.582   0.917   7.297  0.1234 -0.9384 -0.1322
   87MOL   C19134763   2.386   1.198   7.187  0.4730 -0.6559 -0.2544
   87MOL   H19234764   2.574   1.102   7.148 -0.2383 -1.2853  1.3548
   87MOL   H19334765   2.248   0.951   7.241  1.1333  1.2629 -0.3853
   87MOL   H19434766   2.249   0.752   7.412  1.1694 -1.5318 -1.4293
   87MOL   H19534767   2.614   0.540   7.446 -1.4489  0.7787 -0.4734
   87MOL   H19634768   2.540   0.497   7.615 -1.6182  1.0696  0.2712
   87MOL   H19734769   2.633   0.644   7.592  3.4399 -1.4482 -1.5764
   87MOL   H19834770   2.671   0.770   7.430 -0.7301  0.0015  1.1356
   87MOL   H19934771   2.675   0.961   7.265 -0.3105  0.1345  0.0579
   87MOL   H20034772   2.280   1.173   7.180  0.9181 -2.5766 -0.3003
   87MOL   H20134773   2.392   1.205   7.295 -0.7790 -1.7629 -0.1043
   87MOL   C20234774   2.399   1.340   7.129  0.1308 -0.1603 -0.2167
   87MOL   C20334775   2.538   1.390   7.092  0.3843 -0.6041  0.4924
   87MOL   C20434776   2.561   1.435   6.961  0.5571 -0.2455 -0.6935
   87MOL   C20534777   2.689   1.485   6.926  0.0756  0.3490 -0.5183
   87MOL   C20634778   2.797   1.501   7.019  0.1127 -0.4096  0.9294
   87MOL   O20734779   2.914   1.559   6.974 -0.3563 -0.6634  0.3307
   87MOL   C20834780   3.025   1.565   7.061  0.2293 -0.0419 -0.3844
   87MOL   C20934781   2.770   1.453   7.154  0.2801  0.4723  0.9825
   87MOL   C21034782   2.643   1.400   7.186  0.0903 -0.1834  0.0251
   87MOL   C21134783   2.324   1.442   7.217 -0.0696  0.4204  0.1562
   87MOL   H21234784   2.334   1.325   7.043 -0.1558  0.5464 -0.1269
   87MOL   H21334785   2.487   1.432   6.882 -0.2489 -0.9577  0.0803
   87MOL   H21434786   2.702   1.509   6.821 -1.9201 -1.3504 -1.1937
   87MOL   H21534787   3.098   1.638   7.026 -0.1955  1.3202  1.4782
   87MOL   H21634788   3.000   1.600   7.161 -1.6647  2.4364 -1.6541
   87MOL   H21734789   3.081   1.472   7.058 -1.8747 -1.3048 -1.1587
   87MOL   H21834790   2.846   1.440   7.229  2.6143  0.3580 -1.3115
   87MOL   H21934791   2.621   1.364   7.286  1.1201  2.4501  1.2626
   87MOL   H22034792   2.370   1.446   7.316 -0.5929 -3.8791  0.6680
   87MOL   H22134793   2.233   1.416   7.270  0.8210 -2.6293  0.2702
   87MOL   C22234794   2.290   1.581   7.166 -0.4031 -0.3363 -0.6916
   87MOL   C22334795   2.151   1.583   7.095 -0.2179  0.0180 -0.1433
   87MOL   C22434796   2.033   1.643   7.144 -0.6366  0.5296 -0.1666
   87MOL   C22534797   1.916   1.639   7.074 -0.2579 -0.2671 -0.4616
   87MOL   C22634798   1.895   1.541   6.974 -0.2843 -0.4328 -0.1478
   87MOL   O22734799   1.763   1.531   6.932 -0.4102  0.3480 -0.5995
   87MOL   C22834800   1.739   1.432   6.839 -0.0833  0.3271  0.0541
   87MOL   C22934801   2.013   1.476   6.919 -0.5108 -0.3835  0.1030
   87MOL   C23034802   2.140   1.510   6.973  0.4649  0.4445 -0.6956
   87MOL   C23134803   2.289   1.690   7.278  0.2064 -0.6695 -0.0026
   87MOL   H23234804   2.373   1.597   7.097  1.3555 -1.3989  1.1122
   87MOL   H23334805   2.037   1.708   7.231 -0.6497 -0.8815  0.9098
   87MOL   H23434806   1.829   1.688   7.114 -0.3062 -0.9010  0.2319
   87MOL   H23534807   1.635   1.432   6.807  0.1747  0.6157 -0.7890
   87MOL   H23634808   1.811   1.433   6.757 -0.1544 -4.7324 -0.1963
   87MOL   H23734809   1.743   1.340   6.898 -3.3124 -0.2474 -0.5497
   87MOL   H23834810   2.014   1.410   6.833 -0.8694  0.7227 -0.7652
   87MOL   H23934811   2.230   1.467   6.933  0.4933 -0.3761  0.2597
   87MOL   H24034812   2.237   1.781   7.252  2.0570  0.3339 -0.2861
   87MOL   H24134813   2.225   1.659   7.361  1.9649 -1.1971  1.1989
   87MOL   C24234814   2.434   1.728   7.320  0.1142 -0.0516  0.4312
   87MOL   C24334815   2.508   1.823   7.225 -0.8910 -1.0473 -0.3998
   87MOL   C24434816   2.456   1.948   7.186 -0.2671  0.7184 -0.0895
   87MOL   C24534817   2.520   2.026   7.085 -0.2978 -0.2769 -1.0421
   87MOL   C24634818   2.656   2.002   7.053 -0.5526  0.7097 -0.1016
   87MOL   O24734819   2.717   2.086   6.959  0.0638 -0.0364 -0.3918
   87MOL   C24834820   2.817   2.031   6.873  0.0594 -0.4041  0.2691
   87MOL   C24934821   2.710   1.879   7.097  0.1224  0.2434 -0.4587
   87MOL   C25034822   2.638   1.794   7.185 -0.1366  0.1708  0.1736
   87MOL   C25134823   2.441   1.777   7.468 -0.1469 -0.3014  0.1277
   87MOL   H25234824   2.493   1.638   7.308 -2.4308 -1.5710 -1.2794
   87MOL   H25334825   2.352   1.969   7.209 -0.6806  1.2866 -2.3512
   87MOL   H25434826   2.467   2.110   7.042 -0.6133  0.8760  1.4712
   87MOL   H25534827   2.831   2.094   6.785 -0.0259 -0.2042  0.3986
   87MOL   H25634828   2.914   2.023   6.922 -0.2532  0.1972  0.9963
   87MOL   H25734829   2.790   1.940   6.819  1.8529 -0.9915  0.3278
   87MOL   H25834830   2.815   1.856   7.089  0.0651 -0.5269  0.8068
   87MOL   H25934831   2.687   1.706   7.225  1.0617  0.3191 -0.9425
   87MOL   H26034832   2.362   1.742   7.534 -2.5927 -0.1293 -2.6379
   87MOL   H26134833   2.425   1.885   7.469 -2.1078 -0.5735  0.7167
   87MOL   C26234834   2.581   1.746   7.530  0.0882 -0.0758 -0.3077
   87MOL   C26334835   2.618   1.602   7.548 -0.0557 -0.2560 -0.5082
   87MOL   C26434836   2.749   1.568   7.541 -0.1598 -0.2233  0.5534
   87MOL   C26534837   2.784   1.433   7.529 -0.0232  0.2474  0.5200
   87MOL   C26634838   2.688   1.329   7.550 -0.0102 -0.2133  0.4547
   87MOL   O26734839   2.724   1.197   7.561 -0.4153  0.4950 -0.7852
   87MOL   C26834840   2.845   1.153   7.519 -0.7354  0.4898  0.1213
   87MOL   C26934841   2.553   1.362   7.575  0.0369 -0.0195 -0.7396
   87MOL   C27034842   2.519   1.502   7.568  0.1125  0.0307  0.5668
   87MOL   C27134843   2.618   1.831   7.654 -0.7320 -0.4544  0.4520
   87MOL   H27234844   2.654   1.774   7.454  1.6988  0.2520  1.3383
   87MOL   H27334845   2.823   1.644   7.518 -1.9629  1.4953  0.3201
   87MOL   H27434846   2.890   1.417   7.523 -0.0149  0.1013  1.0735
   87MOL   H27534847   2.920   1.185   7.592 -1.0430 -0.8877  1.0536
   87MOL   H27634848   2.880   1.189   7.422 -0.0932  0.2990  0.2815
   87MOL   H27734849   2.850   1.045   7.509 -1.3445  0.5296 -0.6646
   87MOL   H27834850   2.483   1.283   7.597 -0.1126 -0.2572 -2.0718
   87MOL   H27934851   2.418   1.538   7.580 -0.3901 -1.0246 -0.3808
   87MOL   H28034852   2.532   1.824   7.720 -1.3813 -1.3038 -0.4805
   87MOL   H28134853   2.707   1.780   7.692 -0.8551 -2.7670 -2.1801
   87MOL   C28234854   2.651   1.981   7.625 -0.7492 -0.5056  0.0134
   87MOL   C28334855   2.772   1.993   7.532 -0.7181 -0.5135  0.3163
   87MOL   C28434856   2.760   2.059   7.402  0.4275  0.3163 -0.6377
   87MOL   C28534857   2.878   2.089   7.331 -0.2305  0.2284  0.3549
   87MOL   C28634858   3.004   2.051   7.374  0.1220 -0.3336 -0.0731
   87MOL   O28734859   3.119   2.082   7.310  0.5950  0.1058 -0.3090
   87MOL   C28834860   3.122   2.200   7.239  0.1445 -0.0587  0.4590
   87MOL   C28934861   3.012   1.971   7.490  0.4144 -0.0393  0.3165
   87MOL   C29034862   2.905   1.948   7.576  0.1319  0.5290 -0.2932
   87MOL   C29134863   2.684   2.055   7.754 -0.9309  0.2432 -0.1201
   87MOL   H29234864   2.575   2.031   7.564 -0.6949  0.1699  0.4986
   87MOL   H29334865   2.661   2.080   7.364  1.1128  0.5391 -2.3336
   87MOL   H29434866   2.876   2.126   7.229 -0.7447  0.3255  0.4018
   87MOL   H29534867   3.221   2.246   7.241  1.3927 -2.6575 -0.0147
   87MOL   H29634868   3.102   2.184   7.133  0.1714 -1.4480  0.6488
   87MOL   H29734869   3.050   2.275   7.269  0.6740  1.8433 -2.7926
   87MOL   H29834870   3.110   1.934   7.519  1.4513  2.3519 -0.0529
   87MOL   H29934871   2.922   1.892   7.667 -1.4175 -0.5413 -0.6302
   87MOL   H30034872   2.763   2.008   7.813  0.5242  2.7669 -0.0137
   87MOL   H30134873   2.726   2.147   7.716 -1.1148  0.2361 -0.3429
   87MOL   C30234874   2.569   2.082   7.849  0.1785 -0.1552 -0.7863
   87MOL   C30334875   2.618   2.146   7.975  0.2251 -0.2779  0.0397
   87MOL   C30434876   2.618   2.077   0.063 -0.0625  0.3011 -0.2726
   87MOL   C30534877   2.656   2.138   0.184  0.7723 -0.4384 -0.3572
   87MOL   C30634878   2.711   2.272   0.175 -0.1780  0.5312 -0.2160
   87MOL   O30734879   2.760   2.345   0.279  0.3792 -0.1819 -0.2701
   87MOL   C30834880   2.676   2.340   0.397 -0.0292  0.0705  0.0443
   87MOL   C30934881   2.728   2.337   0.048 -0.6070  0.2149  0.6252
   87MOL   C31034882   2.672   2.280   7.969  0.7290 -0.0214  0.5960
   87MOL   C31134883   2.456   2.171   7.788 -0.0288 -0.1175  0.3631
   87MOL   H31234884   2.519   1.990   7.877  0.0827 -0.0809 -0.7131
   87MOL   H31334885   2.577   1.977   0.066  2.0260 -0.5372  0.9814
   87MOL   H31434886   2.645   2.077   0.273 -1.4026  0.1731 -0.1637
   87MOL   H31534887   2.714   2.253   0.450  0.7983 -0.1567 -0.8979
   87MOL   H31634888   2.570   2.349   0.377  0.1723  0.8118 -0.7176
   87MOL   H31734889   2.716   2.430   0.445 -2.1164  1.0851 -0.0904
   87MOL   H31834890   2.772   2.436   0.047 -1.2014  0.5377  2.8413
   87MOL   H31934891   2.664   2.338   7.878 -1.4669 -1.0008  0.1372
   87MOL   H32034892   2.426   2.119   7.697 -1.1123  2.8672 -1.0557
   87MOL   H32134893   2.487   2.266   7.743 -1.2563  0.1371  0.0410
   87MOL   C32234894   2.334   2.193   7.882  0.2064 -0.1432 -0.2281
   87MOL   C32334895   2.275   2.066   7.945  0.3417 -0.2210  0.1586
   87MOL   C32434896   2.298   2.039   0.037  0.0109  0.2914 -0.3628
   87MOL   C32534897   2.255   1.922   0.093 -0.4002 -0.2831  0.3606
   87MOL   C32634898   2.179   1.831   0.015  0.1663 -0.7769 -0.0299
   87MOL   O32734899   2.142   1.712   0.063  0.4647 -0.5420  0.4918
   87MOL   C32834900   2.040   1.733   0.166  0.2231 -0.0132 -0.2034
   87MOL   C32934901   2.163   1.853   7.918 -0.7622  0.4461 -0.5824
   87MOL   C33034902   2.208   1.974   7.864 -0.1145  0.5495 -0.4801
   87MOL   C33134903   2.226   2.270   7.796  0.1992  0.5294  0.6274
   87MOL   H33234904   2.364   2.256   7.966  2.2122 -1.5379  0.1314
   87MOL   H33334905   2.342   2.111   0.104 -0.5569  0.1417  0.1766
   87MOL   H33434906   2.278   1.903   0.197 -0.2919 -1.4083  0.1383
   87MOL   H33534907   2.004   1.635   0.198 -1.1204  0.7513  0.6763
   87MOL   H33634908   1.965   1.809   0.147  0.2640 -0.2493 -1.3308
   87MOL   H33734909   2.092   1.775   0.252  1.6404  1.9499 -1.9615
   87MOL   H33834910   2.098   1.790   7.859 -0.7490  0.7242 -0.8957
   87MOL   H33934911   2.208   1.989   7.757 -0.1544 -0.9984 -0.7033
   87MOL   H34034912   2.202   2.208   7.709 -0.9348  0.6554  0.8380
   87MOL   H34134913   2.128   2.266   7.843  0.5141 -0.5188  1.2043
   87MOL   C34234914   2.266   2.412   7.750  0.5394 -0.1482  0.4662
   87MOL   C34334915   2.324   2.495   7.867 -0.2498  0.3689 -0.4648
   87MOL   C34434916   2.243   2.526   7.978 -0.2607 -0.3122 -0.3493
   87MOL   C34534917   2.295   2.577   0.060  0.0382  0.2080 -0.4542
   87MOL   C34634918   2.431   2.610   0.059 -0.8589  0.6916 -0.1492
   87MOL   O34734919   2.481   2.650   0.180 -0.5704  0.5840 -0.5088
   87MOL   C34834920   2.607   2.719   0.172  0.1169 -0.7554  0.6065
   87MOL   C34934921   2.514   2.589   7.984 -0.7876 -0.1643  0.3476
   87MOL   C35034922   2.457   2.540   7.867  0.2640  0.3101  0.7569
   87MOL   C35134923   2.158   2.487   7.670 -0.1225 -0.2564  0.3870
   87MOL   H35234924   2.347   2.397   7.679 -0.5014 -0.8425 -0.5870
   87MOL   H35334925   2.137   2.506   7.965  0.2389 -1.1245 -3.6571
   87MOL   H35434926   2.226   2.590   0.142  0.3516  2.0693 -0.4723
   87MOL   H35534927   2.697   2.662   0.151  0.4699 -0.3635  1.0356
   87MOL   H35634928   2.606   2.804   0.104 -0.6733 -1.5665 -0.4093
   87MOL   H35734929   2.621   2.758   0.273  1.6016  1.8031 -0.5599
   87MOL   H35834930   2.618   2.616   7.975 -0.8333  0.4285  1.4724
   87MOL   H35934931   2.528   2.530   7.785  0.7706 -0.9921  1.3394
   87MOL   H36034932   2.068   2.495   7.731 -0.6434 -3.7170  0.1474
   87MOL   H36134933   2.189   2.589   7.645 -0.3436  0.1804  1.8546
   87MOL   C36234934   2.116   2.418   7.537 -0.8013 -0.4418  0.3266
   87MOL   C36334935   2.234   2.394   7.439 -0.4083 -0.3342  0.0161
   87MOL   C36434936   2.220   2.310   7.328  0.7471  0.3581 -0.4462
   87MOL   C36534937   2.318   2.306   7.228  0.3179 -0.2333 -0.0032
   87MOL   C36634938   2.439   2.385   7.237 -0.6554  0.1366  0.0690
   87MOL   O36734939   2.525   2.385   7.127  0.3798 -0.3719  0.4094
   87MOL   C36834940   2.657   2.371   7.158  0.3444  0.3276  0.1422
   87MOL   C36934941   2.454   2.468   7.346 -0.6645 -0.0941 -0.2872
   87MOL   C37034942   2.352   2.472   7.443 -0.6217  0.6741 -0.1454
   87MOL   C37134943   2.001   2.495   7.466  0.5406 -0.7919  0.4594
   87MOL   H37234944   2.078   2.319   7.563  1.7849 -1.2704  1.1290
   87MOL   H37334945   2.124   2.264   7.310  1.6999 -1.7782 -0.1609
   87MOL   H37434946   2.308   2.242   7.142 -1.9416  0.0280  0.0531
   87MOL   H37534947   2.705   2.467   7.179  0.5235  1.2647 -4.1334
   87MOL   H37634948   2.686   2.295   7.230 -0.1089 -1.7882 -1.8673
   87MOL   H37734949   2.701   2.354   7.060 -0.8628  0.6246 -0.4535
   87MOL   H37834950   2.532   2.541   7.358  0.3268 -1.2113  0.0675
   87MOL   H37934951   2.368   2.541   7.525  2.0441  1.5430 -1.3316
   87MOL   H38034952   2.034   2.594   7.435 -2.3541 -0.2028 -0.8250
   87MOL   H38134953   1.988   2.430   7.380  3.6428 -0.1655 -0.5676
   87MOL   C38234954   1.861   2.512   7.542  0.0077 -0.3630 -0.3654
   87MOL   C38334955   1.797   2.375   7.558  0.3166  0.8896  0.0144
   87MOL   C38434956   1.759   2.294   7.447 -0.5045 -0.5521  0.2980
   87MOL   C38534957   1.686   2.177   7.453 -0.6059  0.8925  0.0736
   87MOL   C38634958   1.654   2.127   7.579 -0.6247 -0.8045 -0.4349
   87MOL   O38734959   1.584   2.009   7.572  0.3909  0.2559 -1.4927
   87MOL   C38834960   1.506   1.974   7.688  0.5232 -0.2713 -0.1923
   87MOL   C38934961   1.702   2.191   7.691 -0.4326 -1.1064  0.8433
   87MOL   C39034962   1.767   2.314   7.682 -0.3675  0.2750 -0.3978
   87MOL   C39134963   1.772   2.610   7.467 -0.2622 -0.1813  0.0214
   87MOL   H39234964   1.873   2.551   7.643  2.5228 -1.3936 -0.2187
   87MOL   H39334965   1.779   2.340   7.351 -3.6264 -2.1012 -1.1733
   87MOL   H39434966   1.651   2.122   7.367  4.1948 -1.1989 -0.7144
   87MOL   H39534967   1.427   1.906   7.658 -0.3320  0.2040  0.9305
   87MOL   H39634968   1.458   2.056   7.741  0.7784 -0.1173 -0.1965
   87MOL   H39734969   1.565   1.918   7.761  0.6905  0.9361  0.6102
   87MOL   H39834970   1.687   2.163   7.794  1.1018 -2.3131  0.7609
   87MOL   H39934971   1.799   2.357   7.777 -0.4858  2.8964 -1.4934
   87MOL   H40034972   1.835   2.695   7.442  2.6595 -1.9758  1.0472
   87MOL   H40134973   1.685   2.638   7.527 -0.8017 -1.2010 -0.2741
   87MOL   H40234974   1.736   2.562   7.376 -0.9967 -1.1742  0.8109
   88MOL     C134975   7.892   5.610   5.462 -0.0935  1.3729 -0.2293
   88MOL     C234976   7.955   5.514   5.562  0.4947  0.4823  0.2306
   88MOL     C334977   7.872   5.415   5.624  0.5842  0.0687  0.2157
   88MOL     C434978   7.928   5.328   5.723 -0.2736 -0.0464  0.0654
   88MOL     C534979   0.027   5.344   5.761  0.4758  0.1379  0.2547
   88MOL     O634980   0.071   5.255   5.862 -0.0893 -0.1924 -0.5679
   88MOL     C734981   0.207   5.261   5.905 -0.0240  0.4532  0.4887
   88MOL     C834982   0.104   5.439   5.693  0.0362  0.0833  0.0747
   88MOL     C934983   0.047   5.528   5.594  0.2521  0.2896  0.5760
   88MOL    C1034984   7.800   5.540   5.364  0.2548  0.2872 -0.3178
   88MOL    H1134985   7.971   5.656   5.403  0.8983 -1.9745 -1.6571
   88MOL    H1234986   7.771   5.402   5.590  0.6436 -1.3416  0.5334
   88MOL    H1334987   7.873   5.252   5.776  1.8849 -1.1016  0.8292
   88MOL    H1434988   0.274   5.215   5.832 -1.3165 -1.6755  0.6018
   88MOL    H1534989   0.241   5.363   5.921 -0.4330  0.3716  1.9436
   88MOL    H1634990   0.232   5.206   5.996  2.6984  2.1621  0.8315
   88MOL    H1734991   0.211   5.431   5.712  0.3107  1.1646 -0.9582
   88MOL    H1834992   0.113   5.610   5.568 -2.6285  2.6922  0.6349
   88MOL    H1934993   7.857   5.470   5.303  1.2844 -1.2461  2.3471
   88MOL    H2034994   7.724   5.477   5.408 -0.0362  0.4704 -0.5565
   88MOL    H2134995   7.856   5.696   5.520 -0.1737  1.0798  0.1611
   88MOL    C2234996   7.724   5.652   5.276  0.7750  0.0013  0.9002
   88MOL    C2334997   7.817   5.745   5.190 -0.5087  0.0077 -0.1985
   88MOL    C2434998   7.916   5.679   5.111  0.3503 -0.0621 -0.5561
   88MOL    C2534999   8.007   5.753   5.035  0.0695  0.0255  0.4224
   88MOL    C2635000   7.997   5.899   5.038 -0.0477 -0.7934  0.4806
   88MOL    O2735001   0.045   5.967   4.959 -0.6905  0.1266  0.8466
   88MOL    C2835002   0.023   6.107   4.934 -0.1194  0.0878  0.8032
   88MOL    C2935003   7.903   5.964   5.126  0.0147  0.4404  0.7140
   88MOL    C3035004   7.818   5.886   5.210 -0.0650 -0.2462  0.1721
   88MOL    C3135005   7.604   5.601   5.197  0.0852 -0.0070  0.3984
   88MOL    H3235006   7.683   5.723   5.348 -0.2860 -0.8696  1.1840
   88MOL    H3335007   7.924   5.571   5.105  0.2300 -0.2260  1.8432
   88MOL    H3435008   0.043   5.700   4.979  1.7990  1.5739  1.2049
   88MOL    H3535009   0.098   6.136   4.861 -0.8374 -0.1903 -0.0498
   88MOL    H3635010   0.060   6.171   5.014 -0.8117  2.1866 -0.5194
   88MOL    H3735011   7.966   6.137   4.896  0.0491  0.0068  0.3086
   88MOL    H3835012   7.897   6.072   5.130 -0.2878  0.4308  0.5759
   88MOL    H3935013   7.746   5.928   5.278  1.7967  2.6312  0.4460
   88MOL    H4035014   7.652   5.548   5.114 -0.6457  1.0984 -0.7470
   88MOL    H4135015   7.553   5.523   5.254 -0.8770  1.3868  1.4653
   88MOL    C4235016   7.504   5.707   5.141  0.3391 -0.7859  1.0403
   88MOL    C4335017   7.386   5.736   5.234  0.2643 -0.2605 -0.1484
   88MOL    C4435018   7.374   5.860   5.299 -0.1052 -1.0680 -0.7723
   88MOL    C4535019   7.257   5.895   5.376  0.0343  0.1995  0.3361
   88MOL    C4635020   7.156   5.800   5.400 -0.6180 -0.1003  0.5351
   88MOL    O4735021   7.048   5.812   5.484 -0.1928  0.1372  0.0082
   88MOL    C4835022   7.054   5.914   5.586 -0.6267 -0.1941  0.7373
   88MOL    C4935023   7.169   5.679   5.324  0.6216  0.2451 -0.1984
   88MOL    C5035024   7.277   5.648   5.241  0.1429  0.0314  0.5421
   88MOL    C5135025   7.471   5.693   4.989 -0.3959 -0.6670 -0.1287
   88MOL    H5235026   7.559   5.801   5.146 -1.8254  0.5088  1.4660
   88MOL    H5335027   7.444   5.938   5.276  0.3429 -1.9675 -2.5678
   88MOL    H5435028   7.242   5.991   5.424 -1.9250 -0.5714  1.2809
   88MOL    H5535029   6.963   5.914   5.646 -0.2632  0.3666  1.2966
   88MOL    H5635030   7.137   5.904   5.656 -1.1163  1.7415  1.6361
   88MOL    H5735031   7.057   6.007   5.530  2.7994  0.0051  1.1236
   88MOL    H5835032   7.090   5.606   5.326  0.9145 -0.0753 -0.3036
   88MOL    H5935033   7.287   5.558   5.182 -2.6696 -0.3401  0.5915
   88MOL    H6035034   7.397   5.614   4.978  0.2854 -1.2854 -0.2897
   88MOL    H6135035   7.555   5.662   4.928  0.0525 -0.8600  0.5792
   88MOL    C6235036   7.414   5.824   4.933  0.1015  0.2473  0.7062
   88MOL    C6335037   7.314   5.800   4.818  0.2004 -0.4858 -0.0138
   88MOL    C6435038   7.353   5.746   4.696 -0.0830  0.1142 -0.1380
   88MOL    C6535039   7.254   5.730   4.593 -0.2404 -0.0443  0.4371
   88MOL    C6635040   7.126   5.780   4.606  0.5614 -0.2143 -0.2609
   88MOL    O6735041   7.028   5.774   4.505  0.0293 -0.7856 -0.1362
   88MOL    C6835042   7.081   5.772   4.370 -0.1946  0.2855  0.1199
   88MOL    C6935043   7.086   5.839   4.732  0.1039  0.1395 -0.0785
   88MOL    C7035044   7.182   5.841   4.835  0.3821 -0.7298 -0.4698
   88MOL    C7135045   7.525   5.928   4.896 -0.3946  0.4953 -0.2381
   88MOL    H7235046   7.355   5.865   5.015 -1.1222 -3.1516  1.6092
   88MOL    H7335047   7.450   5.710   4.669 -0.7208 -1.9849  0.3203
   88MOL    H7435048   7.283   5.695   4.495 -0.2876  0.9540  0.0593
   88MOL    H7535049   7.118   5.673   4.344  0.5228  0.7785 -0.7372
   88MOL    H7635050   7.169   5.835   4.365 -0.1940  0.3041  0.3412
   88MOL    H7735051   7.005   5.806   4.300  0.5869  2.4020  0.2703
   88MOL    H7835052   6.986   5.876   4.749  0.1571  0.1266  0.2713
   88MOL    H7935053   7.150   5.891   4.925 -1.7455  0.4665 -1.8503
   88MOL    H8035054   7.599   5.915   4.976  0.6650  2.3824 -0.8947
   88MOL    H8135055   7.578   5.884   4.811 -0.5747  0.6470 -0.4272
   88MOL    C8235056   7.500   6.074   4.867  0.4085  1.2711 -0.0114
   88MOL    C8335057   7.466   6.151   4.993 -0.5705 -0.1097  0.5008
   88MOL    C8435058   7.537   6.132   5.113  0.9800  0.3572 -0.3155
   88MOL    C8535059   7.506   6.211   5.229 -1.1359  0.1804  0.1733
   88MOL    C8635060   7.413   6.311   5.229  0.2757  0.3467  0.1204
   88MOL    O8735061   7.385   6.381   5.344  0.0357  0.0242 -0.0360
   88MOL    C8835062   7.283   6.471   5.348  0.3760  0.1706 -0.0307
   88MOL    C8935063   7.341   6.331   5.108  0.0042  0.3685  0.3107
   88MOL    C9035064   7.363   6.249   4.990  0.7556 -0.2072  0.0318
   88MOL    C9135065   7.607   6.143   4.786  0.2111  0.1410  0.2723
   88MOL    H9235066   7.404   6.072   4.815 -0.5660 -3.8399  1.6732
   88MOL    H9335067   7.617   6.060   5.111  0.1419 -0.6387  1.2962
   88MOL    H9435068   7.554   6.181   5.321 -2.7484  2.6178  1.8697
   88MOL    H9535069   7.255   6.522   5.440  0.9382  0.2395  0.1023
   88MOL    H9635070   7.186   6.429   5.320 -0.6779  1.9701  0.7983
   88MOL    H9735071   7.296   6.548   5.272  0.2494  0.5399  0.3187
   88MOL    H9835072   7.264   6.406   5.097 -1.9456 -1.4704  1.1498
   88MOL    H9935073   7.306   6.264   4.899  0.0507  1.6859  0.7615
   88MOL   H10035074   7.615   6.247   4.816 -1.3183 -0.3760  2.5943
   88MOL   H10135075   7.705   6.100   4.806  1.0555  0.7488 -2.2910
   88MOL   C10235076   7.585   6.124   4.632  0.6042  0.4925  0.3708
   88MOL   C10335077   7.460   6.197   4.587 -0.1441 -0.2251 -0.0882
   88MOL   C10435078   7.455   6.337   4.600 -0.4223 -0.4680  0.2723
   88MOL   C10535079   7.328   6.403   4.593  0.3671 -0.5609 -0.1556
   88MOL   C10635080   7.208   6.336   4.561 -0.2256  0.0897 -0.2366
   88MOL   O10735081   7.086   6.400   4.546  0.1866 -0.5780  0.4064
   88MOL   C10835082   7.073   6.540   4.563  0.7088  0.3258 -0.7747
   88MOL   C10935083   7.217   6.199   4.533 -0.7451 -0.1517 -0.7251
   88MOL   C11035084   7.339   6.128   4.559 -0.1983  0.3881 -0.1051
   88MOL   C11135085   7.714   6.160   4.552  0.5357 -0.4390  0.5952
   88MOL   H11235086   7.566   6.018   4.615  3.0768  0.4175 -2.2816
   88MOL   H11335087   7.544   6.390   4.633  0.3856 -0.8630 -1.2441
   88MOL   H11435088   7.328   6.509   4.615 -1.3752 -0.7392  0.8235
   88MOL   H11535089   7.131   6.589   4.485  1.7962 -0.2821 -0.3525
   88MOL   H11635090   6.968   6.565   4.547 -0.0429 -1.8091  0.6113
   88MOL   H11735091   7.114   6.565   4.661 -1.9718 -0.0491  0.4718
   88MOL   H11835092   7.128   6.151   4.496 -2.4776  1.0440  1.7422
   88MOL   H11935093   7.340   6.023   4.538  0.4678  0.6263 -1.3106
   88MOL   H12035094   7.746   6.258   4.587 -0.6258  0.7510 -1.5658
   88MOL   H12135095   7.806   6.112   4.586  1.4242  0.0493 -1.0494
   88MOL   C12235096   7.714   6.163   4.400 -0.1397 -0.5944  0.5273
   88MOL   C12335097   7.621   6.071   4.319 -0.2489 -0.0747 -0.1529
   88MOL   C12435098   7.631   5.931   4.344 -0.3555  0.2828 -0.3223
   88MOL   C12535099   7.533   5.843   4.298 -0.0507  0.0378  0.4499
   88MOL   C12635100   7.447   5.896   4.194  0.2496 -0.1241 -0.0292
   88MOL   O12735101   7.365   5.803   4.135 -0.2815  0.2813  0.4102
   88MOL   C12835102   7.315   5.835   4.001  0.2725  0.7744 -0.5313
   88MOL   C12935103   7.445   6.034   4.161  0.3020  0.1597  0.2867
   88MOL   C13035104   7.531   6.119   4.225 -0.2577  0.4384  0.6884
   88MOL   C13135105   7.866   6.157   4.351  0.3280 -0.0281  0.0293
   88MOL   H13235106   7.682   6.265   4.379  0.1201  0.1934  3.6597
   88MOL   H13335107   7.710   5.904   4.413 -0.2056  0.4612 -0.4262
   88MOL   H13435108   7.523   5.739   4.325  0.0979  0.1114  0.7863
   88MOL   H13535109   7.278   5.936   3.986 -1.1735  0.2158 -0.7870
   88MOL   H13635110   7.401   5.816   3.935  0.7677  1.1049  0.0157
   88MOL   H13735111   7.242   5.765   3.961 -0.5268  1.0801  0.3807
   88MOL   H13835112   7.365   6.080   4.105 -0.1716  0.8914  1.5265
   88MOL   H13935113   7.536   6.223   4.197  2.2191  0.1418 -0.0708
   88MOL   H14035114   7.917   6.061   4.366  2.3992  1.1047  0.4792
   88MOL   H14135115   7.927   6.227   4.408  0.8126 -0.8572  0.5402
   88MOL   C14235116   7.895   6.190   4.202 -0.4932 -0.2341 -0.3639
   88MOL   C14335117   7.917   6.341   4.157  0.3757 -0.2534  0.3399
   88MOL   C14435118   0.007   6.399   4.142  0.1868 -0.0351  0.3375
   88MOL   C14535119   0.018   6.536   4.101 -0.5157 -0.4914  0.7096
   88MOL   C14635120   7.939   6.609   4.069  0.7201  0.5703  0.0104
   88MOL   O14735121   7.942   6.737   4.017  0.6353 -0.1491  0.1743
   88MOL   C14835122   0.015   6.775   3.931 -0.2939  0.8125  0.0996
   88MOL   C14935123   7.814   6.544   4.081  0.1335  0.7738 -0.6325
   88MOL   C15035124   7.800   6.413   4.123  0.7246  0.9754  0.4662
   88MOL   C15135125   8.007   6.097   4.149  0.4910  0.3216 -0.1203
   88MOL   H15235126   7.813   6.160   4.136 -0.4094 -1.5193  0.1094
   88MOL   H15335127   0.096   6.344   4.169 -0.1517 -0.9109 -0.3350
   88MOL   H15435128   0.116   6.578   4.085 -1.6671  1.2431 -2.3075
   88MOL   H15535129   8.027   6.866   3.878 -1.0711 -0.6501 -2.0814
   88MOL   H15635130   0.110   6.801   3.978  0.4558 -0.4909 -0.6688
   88MOL   H15735131   0.020   6.698   3.854 -2.9449  0.9648 -0.2805
   88MOL   H15835132   7.723   6.596   4.054 -0.4624 -0.0776 -0.3022
   88MOL   H15935133   7.697   6.380   4.122  1.0488 -0.0540 -0.3217
   88MOL   H16035134   0.047   6.108   4.222 -0.1072  1.5203  0.3661
   88MOL   H16135135   8.037   6.141   4.054 -1.9916 -0.1166 -1.1454
   88MOL   C16235136   7.983   5.948   4.113  0.3874 -0.4276 -0.0277
   88MOL   C16335137   0.073   5.876   4.099 -0.1121 -0.6545 -0.1979
   88MOL   C16435138   0.119   5.801   4.205 -0.5609 -0.7575 -0.4512
   88MOL   C16535139   0.226   5.714   4.193 -1.2904  0.6974  0.1163
   88MOL   C16635140   0.301   5.708   4.072 -0.2092  0.5990  0.1288
   88MOL   O16735141   0.405   5.621   4.075 -0.3348 -0.0554 -0.3906
   88MOL   C16835142   0.513   5.632   3.990  0.7353  0.3574 -0.0931
   88MOL   C16935143   0.257   5.785   3.958  0.1637  0.6330 -0.8243
   88MOL   C17035144   0.145   5.869   3.976 -0.4142 -0.6727  0.4727
   88MOL   C17135145   7.900   5.947   3.986  0.6156  0.4208 -0.2367
   88MOL   H17235146   7.925   5.897   4.190 -0.3548  1.6161  0.8027
   88MOL   H17335147   0.071   5.822   4.300  0.4236  0.2991 -0.1640
   88MOL   H17435148   0.256   5.663   4.283 -0.2714  0.7941 -0.1627
   88MOL   H17535149   0.479   5.605   3.889 -0.7847  1.0035  0.2389
   88MOL   H17635150   0.597   5.564   4.005  1.2093  0.9772  0.0979
   88MOL   H17735151   0.559   5.731   3.983  0.3420  0.4472 -1.8657
   88MOL   H17835152   0.307   5.771   3.864  1.4734 -0.1351 -0.0394
   88MOL   H17935153   0.124   5.934   3.892 -1.7502 -1.7960 -0.0779
   88MOL   H18035154   7.954   5.994   3.904  4.2705 -2.6017  0.3231
   88MOL   H18135155   7.801   5.991   3.992  1.6554  2.6317  1.5774
   88MOL   C18235156   7.870   5.805   3.929 -0.3435 -0.0565  0.4467
   88MOL   C18335157   7.863   5.811   3.780  0.1602  0.0201 -0.5438
   88MOL   C18435158   7.758   5.873   3.709 -0.9384  0.5464  0.6573
   88MOL   C18535159   7.757   5.869   3.569  0.6655  0.8432 -0.2760
   88MOL   C18635160   7.852   5.796   3.494  0.1006 -0.1459 -0.6684
   88MOL   O18735161   7.834   5.791   3.359  0.3358  0.1453 -0.2166
   88MOL   C18835162   7.926   5.711   3.290 -0.0706  0.2570  0.3445
   88MOL   C18935163   7.961   5.740   3.564  0.8062  0.3988  0.0525
   88MOL   C19035164   7.964   5.737   3.705  0.1762 -0.1898  0.9741
   88MOL   C19135165   7.751   5.728   3.988  0.2011  0.8046 -0.4455
   88MOL   H19235166   7.964   5.753   3.946 -1.0770 -1.4887  0.1779
   88MOL   H19335167   7.678   5.912   3.770 -0.5909  2.6507 -0.2058
   88MOL   H19435168   7.673   5.901   3.510  0.4124  0.0186 -0.3654
   88MOL   H19535169   8.030   5.742   3.295  0.3555 -1.1416  0.3014
   88MOL   H19635170   7.894   5.715   3.186  1.5578  2.4223 -0.1094
   88MOL   H19735171   7.916   5.613   3.338  2.9085  1.3609  3.4180
   88MOL   H19835172   0.004   5.696   3.510 -1.2072 -1.6100 -1.5112
   88MOL   H19935173   8.037   5.680   3.761  0.2356 -2.7860 -1.6220
   88MOL   H20035174   7.723   5.752   4.090 -0.7644  0.8950 -0.7262
   88MOL   H20135175   7.663   5.743   3.926 -0.1374  1.0196  0.0915
   88MOL   C20235176   7.771   5.573   3.995  0.3919 -0.1139  0.0018
   88MOL   C20335177   7.635   5.498   4.013 -0.3809 -0.2425  0.0824
   88MOL   C20435178   7.583   5.406   3.914  0.1573  0.2273  0.4407
   88MOL   C20535179   7.460   5.350   3.934  0.1513 -0.2497  0.4285
   88MOL   C20635180   7.385   5.373   4.053  0.2997 -0.2200 -0.5182
   88MOL   O20735181   7.264   5.312   4.067 -0.8675  0.7006 -0.3064
   88MOL   C20835182   7.184   5.347   4.178  0.4135 -0.2705 -0.2560
   88MOL   C20935183   7.440   5.468   4.147 -0.7159  0.4824  0.0263
   88MOL   C21035184   7.568   5.519   4.134 -0.6743 -0.3887  0.3380
   88MOL   C21135185   7.863   5.533   4.112  0.6951 -0.5564  0.6232
   88MOL   H21235186   7.808   5.533   3.901  3.4412  1.1902  0.5735
   88MOL   H21335187   7.643   5.373   3.831 -0.4814 -1.9363  0.8065
   88MOL   H21435188   7.412   5.275   3.872 -1.7702  0.5272  0.9214
   88MOL   H21535189   7.230   5.310   4.270 -0.9991 -1.5386 -0.0547
   88MOL   H21635190   7.164   5.454   4.169  0.3742 -0.2021  0.5397
   88MOL   H21735191   7.089   5.296   4.171 -0.0979  0.8008 -1.2715
   88MOL   H21835192   7.398   5.492   4.244  0.2966 -0.0414  0.6090
   88MOL   H21935193   7.595   5.587   4.214  0.5152 -0.9041  0.3937
   88MOL   H22035194   7.810   5.574   4.199 -2.7691 -0.9438 -1.1870
   88MOL   H22135195   7.957   5.585   4.096  1.3180 -1.8088  0.1998
   88MOL   C22235196   7.886   5.381   4.124  0.0335 -0.8813 -0.3548
   88MOL   C22335197   7.965   5.312   4.004  0.0191 -0.3024 -0.4034
   88MOL   C22435198   0.039   5.372   3.952 -0.2848  0.4519 -0.2723
   88MOL   C22535199   0.103   5.319   3.841  0.1992 -0.0963  0.1796
   88MOL   C22635200   0.058   5.192   3.793  0.2498 -0.6741  0.3414
   88MOL   O22735201   0.125   5.145   3.686 -0.2852 -0.1362 -0.7551
   88MOL   C22835202   0.089   5.017   3.623  0.3845  0.7254  0.1501
   88MOL   C22935203   7.988   5.126   3.852  0.2360 -0.2087  0.3831
   88MOL   C23035204   7.918   5.187   3.960 -0.4180 -0.6672  0.7251
   88MOL   C23135205   7.971   5.369   4.248  0.0844 -0.2138  0.9485
   88MOL   H23235206   7.794   5.329   4.147 -0.3279  0.0956  0.4293
   88MOL   H23335207   0.085   5.460   3.995  0.3995  1.5443 -3.0948
   88MOL   H23435208   0.183   5.375   3.794  0.4828 -1.9225 -1.5807
   88MOL   H23535209   0.160   5.012   3.541 -1.5395 -2.7559 -1.3801
   88MOL   H23635210   0.113   4.927   3.680 -1.3627 -0.7026 -1.3311
   88MOL   H23735211   8.026   5.016   3.588  0.1272 -1.6836  0.9320
   88MOL   H23835212   7.954   5.032   3.812 -0.6234  1.3216 -2.7346
   88MOL   H23935213   7.835   5.141   4.011  0.0577  0.1444  2.2806
   88MOL   H24035214   8.011   5.268   4.260 -1.4086 -0.8907  0.4624
   88MOL   H24135215   0.022   5.427   4.233  0.8887 -1.8810 -0.9035
   88MOL   C24235216   7.913   5.404   4.393  0.1078  0.4672 -0.2689
   88MOL   C24335217   7.769   5.361   4.421 -0.1472 -0.7773 -0.3869
   88MOL   C24435218   7.677   5.449   4.480 -0.6081 -0.0725  0.9229
   88MOL   C24535219   7.553   5.411   4.508 -0.5322 -0.5646  0.3790
   88MOL   C24635220   7.510   5.281   4.485 -0.9012 -0.6978 -0.2530
   88MOL   O24735221   7.377   5.255   4.509 -0.2792 -0.0397 -0.4063
   88MOL   C24835222   7.323   5.129   4.477  0.1049  0.1442  0.6596
   88MOL   C24935223   7.600   5.190   4.421  0.5981 -0.5833 -0.1133
   88MOL   C25035224   7.731   5.233   4.400  0.6512 -0.2626 -0.2963
   88MOL   C25135225   8.013   5.356   4.504  0.2876  0.5572  0.0693
   88MOL   H25235226   7.905   5.509   4.419 -1.3944 -0.0733  1.5240
   88MOL   H25335227   7.698   5.552   4.507 -0.9498  0.2771 -0.0902
   88MOL   H25435228   7.485   5.478   4.559  0.8525  0.1125  1.3461
   88MOL   H25535229   7.382   5.050   4.523 -0.4673 -0.7013 -0.0244
   88MOL   H25635230   7.221   5.109   4.511  0.0082  1.9310  1.4575
   88MOL   H25735231   7.339   5.104   4.372 -0.8355 -0.0030  0.5444
   88MOL   H25835232   7.575   5.090   4.390 -1.2374 -0.7737  1.8015
   88MOL   H25935233   7.808   5.167   4.362  3.1658  2.3968 -0.0449
   88MOL   H26035234   0.076   5.374   4.473  0.1787 -2.0737 -2.0233
   88MOL   H26135235   8.007   5.249   4.521  1.4632  0.6055  0.8317
   88MOL   C26235236   7.982   5.412   4.650 -0.1560  0.2572  0.0245
   88MOL   C26335237   7.998   5.567   4.644  0.0963 -0.0899 -0.1044
   88MOL   C26435238   7.894   5.651   4.686  0.3466 -0.1084  0.0938
   88MOL   C26535239   7.901   5.790   4.670  0.3544  0.0025  0.6723
   88MOL   C26635240   8.021   5.847   4.619  0.5000 -0.4589  0.4469
   88MOL   O26735241   8.029   5.981   4.607  0.2314  0.6537  0.1454
   88MOL   C26835242   0.116   6.033   4.569 -0.4067 -0.6016 -0.5254
   88MOL   C26935243   0.081   5.759   4.574 -0.6613  0.4715  0.1155
   88MOL   C27035244   0.076   5.621   4.588 -0.4094  0.6321 -0.0024
   88MOL   C27135245   0.032   5.365   4.771 -0.2649  0.3560  0.1645
   88MOL   H27235246   7.879   5.386   4.674  1.4239 -2.3428  4.6747
   88MOL   H27335247   7.802   5.604   4.716  0.7509 -0.7083  0.4128
   88MOL   H27435248   7.815   5.848   4.701 -0.3146  0.0310 -1.1740
   88MOL   H27535249   0.125   6.139   4.595  0.6110 -1.5410  3.3736
   88MOL   H27635250   0.128   6.027   4.461 -0.5085  0.9309 -0.6368
   88MOL   H27735251   0.200   6.002   4.632  0.7083  1.4263 -0.9815
   88MOL   H27835252   0.168   5.801   4.526  0.9167 -1.8205  0.8917
   88MOL   H27935253   0.164   5.561   4.577 -2.6101 -2.6787 -0.2033
   88MOL   H28035254   0.135   5.400   4.767 -0.3517  0.3970 -3.2012
   88MOL   H28135255   8.018   5.416   4.850  1.4763 -0.1943  1.7534
   88MOL   C28235256   0.022   5.213   4.798  0.3005 -0.3452 -0.6813
   88MOL   C28335257   8.024   5.177   4.938 -0.4048  0.1156 -0.4459
   88MOL   C28435258   7.916   5.096   4.959  0.0555 -0.3841 -0.3779
   88MOL   C28535259   7.876   5.068   5.093  0.0226 -0.0100 -0.3023
   88MOL   C28635260   7.952   5.113   5.204  0.4478  0.1531 -0.1935
   88MOL   O28735261   7.908   5.070   5.333  0.6578  0.2901 -0.2517
   88MOL   C28835262   7.973   5.134   5.437  0.9315 -0.4313  0.0007
   88MOL   C28935263   0.020   5.203   5.182  0.2731 -0.2328  0.2015
   88MOL   C29035264   0.057   5.231   5.048 -0.1939 -0.0167  0.1507
   88MOL   C29135265   0.156   5.152   4.754  0.6767 -0.7149 -0.1279
   88MOL   H29235266   7.978   5.180   4.737 -0.8908  0.7374  0.3444
   88MOL   H29335267   7.859   5.060   4.874  0.8227 -1.2514 -0.5298
   88MOL   H29435268   7.795   4.999   5.109 -0.0430 -0.0634 -0.8715
   88MOL   H29535269   0.033   5.093   5.451  0.3905 -2.4656 -2.0104
   88MOL   H29635270   7.983   5.243   5.433 -0.0880 -0.3750 -1.0058
   88MOL   H29735271   7.922   5.111   5.531  1.1729  3.4800  1.2130
   88MOL   H29835272   0.085   5.239   5.260 -1.1649 -0.7282  1.6541
   88MOL   H29935273   0.143   5.295   5.030 -1.0126  1.6195  1.8493
   88MOL   H30035274   0.180   5.202   4.660  3.6285 -1.4081  0.2087
   88MOL   H30135275   0.240   5.190   4.812  0.3053 -0.5767  0.3105
   88MOL   C30235276   0.161   5.000   4.732  0.0543  0.0969  0.0448
   88MOL   C30335277   0.050   4.963   4.631 -0.5603 -0.9764  0.2404
   88MOL   C30435278   0.055   5.005   4.495 -0.2482  0.0802  0.3019
   88MOL   C30535279   7.986   4.966   4.403 -0.1999 -0.6461  0.1652
   88MOL   C30635280   7.871   4.901   4.457 -0.0614  0.5932  0.0366
   88MOL   O30735281   7.772   4.875   4.360  0.9404 -0.3896 -0.4641
   88MOL   C30835282   7.659   4.789   4.394 -0.4219 -0.8298  0.3298
   88MOL   C30935283   7.867   4.863   4.591  0.6904  0.0984 -0.3774
   88MOL   C31035284   7.981   4.889   4.672  0.6586  0.2893  0.1069
   88MOL   C31135285   0.301   4.961   4.686  0.5156  0.3362  0.0623
   88MOL   H31235286   0.145   4.950   4.827 -0.0063 -0.2854 -0.1682
   88MOL   H31335287   0.138   5.062   4.458  0.0992  0.0320  1.0039
   88MOL   H31435288   7.995   4.994   4.299 -0.8652 -0.2920  0.2055
   88MOL   H31535289   7.589   4.837   4.462 -0.9074  1.1174 -1.5024
   88MOL   H31635290   7.682   4.687   4.427 -0.8404 -0.7658  0.8335
   88MOL   H31735291   7.604   4.768   4.302 -1.3839  1.4651  0.3561
   88MOL   H31835292   7.788   4.800   4.629 -0.2496  0.1062 -2.2561
   88MOL   H31935293   7.978   4.858   4.776  0.6857  3.1012  0.9858
   88MOL   H32035294   0.379   4.992   4.755  0.3272 -0.5535  0.6837
   88MOL   H32135295   0.327   5.021   4.599  0.7884  1.2664  0.7736
   88MOL   C32235296   0.317   4.810   4.647  0.4965 -0.1152  0.0185
   88MOL   C32335297   0.275   4.710   4.759 -0.3936 -0.6681  0.2440
   88MOL   C32435298   0.152   4.634   4.744  0.0674 -0.3780  0.4449
   88MOL   C32535299   0.101   4.543   4.837  0.1645 -0.4815 -0.6434
   88MOL   C32635300   0.169   4.529   4.961  0.5936 -0.0876 -1.1062
   88MOL   O32735301   0.115   4.454   5.063 -0.1822  0.0764  0.3237
   88MOL   C32835302   0.004   4.374   5.049 -0.1215  0.3888 -0.0221
   88MOL   C32935303   0.293   4.602   4.977  0.0258 -0.4080  0.1939
   88MOL   C33035304   0.345   4.683   4.875 -0.0449  0.0150  0.2905
   88MOL   C33135305   0.456   4.779   4.580  0.1496  0.1073  0.6820
   88MOL   H33235306   0.251   4.805   4.560  0.4035 -0.8452  0.1318
   88MOL   H33335307   0.094   4.656   4.656  0.5161  0.3907  0.3315
   88MOL   H33435308   0.001   4.504   4.825 -0.6755  1.8111 -1.3217
   88MOL   H33535309   0.002   4.341   4.945  1.1622 -1.0353  0.3895
   88MOL   H33635310   7.947   4.422   5.063  0.9837  2.7509 -0.2192
   88MOL   H33735311   0.008   4.277   5.099 -0.6016 -0.8700 -2.2905
   88MOL   H33835312   0.347   4.594   5.070  0.8585 -1.4446 -0.3726
   88MOL   H33935313   0.436   4.740   4.892  0.3609  0.0846 -1.9684
   88MOL   H34035314   0.493   4.863   4.521  0.5641 -0.3885  0.2266
   88MOL   H34135315   0.528   4.764   4.660 -3.0821 -0.0854  3.6396
   88MOL   C34235316   0.446   4.665   4.478  0.6110 -0.4144 -0.6027
   88MOL   C34335317   0.582   4.596   4.467 -0.1306  0.4203  0.6620
   88MOL   C34435318   0.594   4.464   4.513 -1.0085  0.2117  0.3939
   88MOL   C34535319   0.715   4.390   4.499  0.0459 -0.9410  0.3738
   88MOL   C34635320   0.827   4.461   4.444 -0.1779 -0.0165 -0.0292
   88MOL   O34735321   0.954   4.415   4.418  0.2026 -0.6544 -0.2553
   88MOL   C34835322   0.980   4.277   4.460  0.0728  0.1772  0.1387
   88MOL   C34935323   0.815   4.592   4.403 -0.2066 -0.2474 -0.1189
   88MOL   C35035324   0.694   4.660   4.410 -0.0079  0.2287 -0.4536
   88MOL   C35135325   0.393   4.715   4.340 -0.3178 -0.1141  0.0164
   88MOL   H35235326   0.374   4.598   4.525  1.1336 -1.6062 -1.4722
   88MOL   H35335327   0.515   4.408   4.562 -2.0881 -1.3442 -2.9850
   88MOL   H35435328   0.725   4.289   4.537  2.6874 -1.5488 -1.7597
   88MOL   H35535329   0.920   4.214   4.394  0.9440  0.6302 -1.1009
   88MOL   H35635330   1.087   4.264   4.441 -0.1058  0.1873 -0.9067
   88MOL   H35735331   0.962   4.261   4.567  1.2891  0.1563  0.3454
   88MOL   H35835332   0.903   4.645   4.372  0.5068 -1.1967  0.2670
   88MOL   H35935333   0.689   4.765   4.384  3.5763  1.5944  3.8530
   88MOL   H36035334   0.343   4.809   4.363  0.1761  0.8009 -2.4441
   88MOL   H36135335   0.474   4.753   4.277  0.3111 -1.0340  0.2490
   88MOL   C36235336   0.293   4.620   4.262 -0.3735 -0.5053 -0.6135
   88MOL   C36335337   0.339   4.474   4.267 -0.6781 -0.5803  0.0469
   88MOL   C36435338   0.451   4.433   4.188  0.2313 -0.4771 -0.0306
   88MOL   C36535339   0.501   4.308   4.206 -0.0599 -0.1395 -0.4827
   88MOL   C36635340   0.443   4.219   4.300 -0.1428  0.6522 -0.1782
   88MOL   O36735341   0.497   4.095   4.333 -0.0918 -0.3797 -0.2923
   88MOL   C36835342   0.594   4.042   4.242  0.2998 -0.1609 -0.2309
   88MOL   C36935343   0.334   4.258   4.374  0.2787  0.1762 -0.7178
   88MOL   C37035344   0.278   4.382   4.359 -0.2851 -0.9537  0.1337
   88MOL   C37135345   0.251   4.667   4.125  0.4593 -0.4554 -0.4241
   88MOL   H37235346   0.197   4.626   4.314 -0.9330 -1.6043 -1.5049
   88MOL   H37335347   0.493   4.505   4.119  0.9324 -0.4667  0.3988
   88MOL   H37435348   0.592   4.279   4.155 -0.7741 -0.7962 -1.4032
   88MOL   H37535349   0.541   4.040   4.147 -1.3291  1.0876  0.6213
   88MOL   H37635350   0.689   4.096   4.249  0.6835 -1.0238  1.2350
   88MOL   H37735351   0.597   3.937   4.268  0.5139 -0.2198 -0.4963
   88MOL   H37835352   0.282   4.198   4.447  1.2118  0.4960  0.2069
   88MOL   H37935353   0.186   4.403   4.411  0.0300  2.5689 -0.6343
   88MOL   H38035354   0.330   4.660   4.050  0.3664 -1.8846 -0.4099
   88MOL   H38135355   0.187   4.588   4.085  0.8280 -1.4155  0.8667
   88MOL   C38235356   0.152   4.795   4.118 -0.2731  0.7736 -0.2283
   88MOL   C38335357   0.039   4.776   4.011 -0.3466 -0.3675  0.9062
   88MOL   C38435358   7.947   4.802   4.045  0.4673  0.3984 -0.8237
   88MOL   C38535359   7.844   4.784   3.948  0.1633  0.9055  0.5320
   88MOL   C38635360   7.880   4.750   3.817 -0.4763  0.4984  0.4660
   88MOL   O38735361   7.770   4.741   3.736 -0.0464  0.3008 -0.0135
   88MOL   C38835362   7.773   4.806   3.609 -0.0514 -0.0014  0.5437
   88MOL   C38935363   8.014   4.733   3.782 -0.2417 -0.6391  0.6118
   88MOL   C39035364   0.074   4.742   3.879 -0.0956  0.2936  0.5322
   88MOL   C39135365   0.218   4.935   4.110  0.0683 -0.0224 -0.0532
   88MOL   H39235366   0.099   4.800   4.213 -1.2905  0.2271 -0.7537
   88MOL   H39335367   7.919   4.833   4.144  1.5137 -0.2241 -0.3299
   88MOL   H39435368   7.739   4.790   3.973 -0.3484 -2.6760 -0.5415
   88MOL   H39535369   7.833   4.896   3.622  2.1719 -1.3983  0.2918
   88MOL   H39635370   7.679   4.834   3.561 -0.7721  0.7505  2.3562
   88MOL   H39735371   7.834   4.747   3.541  0.2251 -0.4824  1.1994
   88MOL   H39835372   0.008   4.712   3.681  0.9971 -1.0064  1.0996
   88MOL   H39935373   0.178   4.736   3.851 -0.2513 -0.0728  0.0016
   88MOL   H40035374   0.281   4.953   4.197 -2.2439 -3.5175  2.5083
   88MOL   H40135375   0.139   5.010   4.106 -0.1736 -0.2628  0.1534
   88MOL   H40235376   0.277   4.933   4.019 -1.6991 -1.3444 -1.1956
   89MOL     C135377   1.434   7.317   4.657 -0.2059  0.2477 -0.0735
   89MOL     C235378   1.529   7.293   4.549 -0.9308 -0.1455  0.1513
   89MOL     C335379   1.652   7.356   4.551  0.1158  0.2346  0.4712
   89MOL     C435380   1.742   7.359   4.439 -0.4979  0.4765  0.0889
   89MOL     C535381   1.702   7.282   4.324 -0.6599 -0.4221  0.1035
   89MOL     O635382   1.776   7.260   4.209 -0.0115  0.0421  0.4013
   89MOL     C735383   1.916   7.294   4.220 -0.5813  0.0001 -0.5175
   89MOL     C835384   1.576   7.217   4.328  0.4316 -0.6755  0.6463
   89MOL     C935385   1.490   7.225   4.435  0.0317  0.0045  0.6226
   89MOL    C1035386   1.454   7.240   4.794  0.2833 -0.1710  0.2962
   89MOL    H1135387   1.331   7.314   4.620 -0.2123 -0.3433 -0.0144
   89MOL    H1235388   1.700   7.402   4.637 -1.5324  1.7251  0.6066
   89MOL    H1335389   1.841   7.402   4.446 -2.1328  4.2457  1.5400
   89MOL    H1435390   1.968   7.302   4.125 -2.3704  2.6304 -1.3224
   89MOL    H1535391   1.930   7.397   4.251 -0.0079  0.1768 -1.3389
   89MOL    H1635392   1.977   7.226   4.279  0.2764  0.0019 -1.3797
   89MOL    H1735393   1.532   7.163   4.246  1.0974  1.0368 -0.8600
   89MOL    H1835394   1.391   7.182   4.434 -0.2841  0.7469 -0.1439
   89MOL    H1935395   1.479   7.136   4.775 -3.8549 -1.0562 -0.8295
   89MOL    H2035396   1.541   7.272   4.852 -0.2883  0.1884  0.9636
   89MOL    H2135397   1.450   7.422   4.683  0.7475  0.1926 -0.4424
   89MOL    C2235398   1.326   7.253   4.886  0.3128 -0.1624  0.9570
   89MOL    C2335399   1.207   7.168   4.831 -0.4387  0.4350 -0.2258
   89MOL    C2435400   1.098   7.229   4.768 -0.4098 -0.5102  0.0149
   89MOL    C2535401   0.988   7.151   4.715 -0.3104 -0.0626 -0.5133
   89MOL    C2635402   0.993   7.012   4.720 -0.0339  0.1038  0.7976
   89MOL    O2735403   0.896   6.947   4.652 -1.1170 -0.1706 -0.9271
   89MOL    C2835404   0.936   6.834   4.579  0.2065 -0.2178 -0.8833
   89MOL    C2935405   1.097   6.948   4.788  0.1134 -0.2730 -0.2337
   89MOL    C3035406   1.205   7.026   4.839 -0.3120 -0.2587  0.2439
   89MOL    C3135407   1.350   7.220   5.035 -0.5646 -0.3071 -0.0489
   89MOL    H3235408   1.289   7.356   4.886 -0.3464 -0.3604 -1.6309
   89MOL    H3335409   1.101   7.337   4.769  0.1444 -0.5024 -1.7619
   89MOL    H3435410   0.910   7.201   4.659 -0.1487  1.7099  0.8132
   89MOL    H3535411   0.850   6.785   4.534  1.5738 -2.2028 -1.3845
   89MOL    H3635412   0.988   6.757   4.635 -0.8798  1.7636  3.0971
   89MOL    H3735413   0.977   6.868   4.484  1.0105  0.7748 -0.1886
   89MOL    H3835414   1.109   6.842   4.801  0.9637 -0.3882 -1.9534
   89MOL    H3935415   1.285   6.982   4.896 -0.0561 -0.7052 -0.4579
   89MOL    H4035416   1.385   7.116   5.037 -0.0270 -0.1570 -1.1333
   89MOL    H4135417   1.433   7.281   5.071 -0.3962 -0.6163  0.0898
   89MOL    C4235418   1.227   7.215   5.130  0.1349 -0.2508 -0.6559
   89MOL    C4335419   1.147   7.339   5.132  0.5197 -0.9422  0.5237
   89MOL    C4435420   1.217   7.461   5.136 -0.2320 -0.1480  0.5787
   89MOL    C4535421   1.141   7.580   5.151  0.3412  0.3124 -0.6402
   89MOL    C4635422   0.995   7.576   5.151 -0.2942 -0.3512  0.7698
   89MOL    O4735423   0.934   7.696   5.170 -0.8516 -0.4025  0.1100
   89MOL    C4835424   0.798   7.708   5.149 -0.0870  0.3756 -0.1257
   89MOL    C4935425   0.928   7.455   5.120 -0.2145  0.0508 -0.0905
   89MOL    C5035426   1.004   7.339   5.121  0.4853  0.1197 -0.3178
   89MOL    C5135427   1.272   7.174   5.278  0.3348 -0.5313  0.0434
   89MOL    H5235428   1.165   7.134   5.091  1.5735 -0.8721 -1.7207
   89MOL    H5335429   1.325   7.462   5.131 -0.3230  0.1809 -1.7482
   89MOL    H5435430   1.210   7.659   5.175  1.2451 -0.7558  0.3772
   89MOL    H5535431   0.751   7.806   5.151  0.3132  0.6204 -1.7903
   89MOL    H5635432   0.778   7.650   5.059 -1.3883 -0.2591  0.5563
   89MOL    H5735433   0.747   7.646   5.222 -0.9841 -0.7303 -1.6537
   89MOL    H5835434   0.821   7.444   5.125 -0.2319  1.4477  4.5300
   89MOL    H5935435   0.959   7.242   5.133  2.1880 -0.3832  2.3416
   89MOL    H6035436   1.337   7.253   5.314 -0.0046  0.2613 -1.0536
   89MOL    H6135437   1.331   7.082   5.275  1.6312  0.3406 -1.9628
   89MOL    C6235438   1.156   7.158   5.378  0.6607 -0.2942 -0.5915
   89MOL    C6335439   1.217   7.153   5.520 -0.4562 -0.0892 -0.1747
   89MOL    C6435440   1.319   7.058   5.537  0.7615 -0.1370 -0.5686
   89MOL    C6535441   1.376   7.042   5.669  0.2953 -0.2325  0.4776
   89MOL    C6635442   1.327   7.117   5.782 -0.3714  0.3644 -0.4003
   89MOL    O6735443   1.383   7.092   5.915 -0.1185  0.2217  0.1501
   89MOL    C6835444   1.386   7.204   6.004  0.4348  0.2814  0.9846
   89MOL    C6935445   1.225   7.217   5.761  0.1218 -0.7332  0.4038
   89MOL    C7035446   1.177   7.237   5.626 -0.2387  0.7957 -0.7428
   89MOL    C7135447   1.068   7.047   5.348  0.2867  0.2025  0.6954
   89MOL    H7235448   1.100   7.250   5.359 -0.7365 -0.9309  0.3656
   89MOL    H7335449   1.343   6.984   5.462 -0.2020  0.5804 -1.6092
   89MOL    H7435450   1.439   6.957   5.691  0.3668 -1.2016 -3.1330
   89MOL    H7535451   1.461   7.276   5.973 -0.7284  1.0309 -0.1350
   89MOL    H7635452   1.413   7.164   6.102  0.7714  0.4298  0.9533
   89MOL    H7735453   1.288   7.250   6.018  1.2942  2.1511  0.9413
   89MOL    H7835454   1.188   7.275   5.844 -0.0863 -2.9482  1.9157
   89MOL    H7935455   1.104   7.312   5.602  0.3933  1.5325 -0.3686
   89MOL    H8035456   1.029   7.061   5.247  3.3361  1.0894 -0.3943
   89MOL    H8135457   1.125   6.954   5.349 -0.1289 -0.0709 -0.7207
   89MOL    C8235458   0.932   7.028   5.427  0.0448  0.3582  0.2215
   89MOL    C8335459   0.850   7.155   5.423  0.9122 -0.2251 -0.1772
   89MOL    C8435460   0.845   7.239   5.538  0.2943 -0.3582  0.0136
   89MOL    C8535461   0.762   7.348   5.534  0.7497  1.0410 -0.3458
   89MOL    C8635462   0.688   7.387   5.424 -0.2515 -0.0854  0.6750
   89MOL    O8735463   0.610   7.509   5.402 -0.2893 -0.3261 -0.0380
   89MOL    C8835464   0.595   7.594   5.514 -0.3862 -0.0256  0.3259
   89MOL    C8935465   0.696   7.305   5.311  0.0887  0.5351  0.3161
   89MOL    C9035466   0.771   7.186   5.312 -0.4130  0.7208  0.5940
   89MOL    C9135467   0.863   6.894   5.393 -0.2547  0.4934  0.3361
   89MOL    H9235468   0.958   7.012   5.532 -0.4563 -0.2606  0.2550
   89MOL    H9335469   0.902   7.216   5.627 -0.4416 -3.1271 -0.1619
   89MOL    H9435470   0.751   7.403   5.626 -0.1352 -0.9604  0.7831
   89MOL    H9535471   0.688   7.648   5.537 -0.3395 -0.3100  0.8027
   89MOL    H9635472   0.563   7.545   5.606  1.3339 -0.9447  0.4706
   89MOL    H9735473   0.527   7.676   5.492 -0.9887 -0.6425 -0.1232
   89MOL    H9835474   0.641   7.340   5.225  2.7292  2.5494 -0.5925
   89MOL    H9935475   0.754   7.114   5.234 -0.0260  2.1962 -0.8948
   89MOL   H10035476   0.769   6.880   5.444 -1.1037  0.7982 -1.1110
   89MOL   H10135477   0.842   6.890   5.286 -1.4335 -1.5293  0.6110
   89MOL   C10235478   0.942   6.772   5.434 -0.1358  0.3879 -0.8879
   89MOL   C10335479   0.985   6.766   5.577  0.6255 -0.2793  0.0300
   89MOL   C10435480   1.118   6.761   5.618 -0.1857 -1.1176 -0.8276
   89MOL   C10535481   1.152   6.756   5.755  0.0782 -0.4514  0.8265
   89MOL   C10635482   1.053   6.735   5.848  0.3678  0.2907 -0.7347
   89MOL   O10735483   1.073   6.720   5.984  1.1556  0.5523 -0.4284
   89MOL   C10835484   1.204   6.707   6.045  0.0143 -0.0613  0.1328
   89MOL   C10935485   0.915   6.736   5.810  0.3317  0.9028 -0.5118
   89MOL   C11035486   0.882   6.759   5.679  0.1534 -0.0911 -0.5020
   89MOL   C11135487   0.884   6.643   5.386 -0.6454 -0.0419  0.1862
   89MOL   H11235488   1.034   6.768   5.376  0.0269 -1.9035 -0.5135
   89MOL   H11335489   1.201   6.764   5.549  0.2176 -0.0190 -0.3197
   89MOL   H11435490   1.254   6.738   5.784  0.6333 -0.9252 -1.3188
   89MOL   H11535491   1.194   6.705   6.154 -0.4388 -0.0496  0.0920
   89MOL   H11635492   1.241   6.611   6.008  3.3435  1.4907 -0.8100
   89MOL   H11735493   1.266   6.791   6.014 -1.2571  0.4931 -0.9457
   89MOL   H11835494   0.843   6.728   5.890 -0.1492  3.8237 -0.5945
   89MOL   H11935495   0.782   6.744   5.641 -1.0739  1.3219  2.0640
   89MOL   H12035496   0.929   6.561   5.443 -2.4689 -2.3804 -1.6112
   89MOL   H12135497   0.780   6.638   5.418 -0.5094 -1.3827  0.4571
   89MOL   C12235498   0.901   6.610   5.234  0.0989 -0.1761 -0.0707
   89MOL   C12335499   0.806   6.677   5.140 -0.7703  0.2712 -0.6152
   89MOL   C12435500   0.845   6.767   5.047 -0.0260 -0.0081  0.7060
   89MOL   C12535501   0.754   6.823   4.954  0.0485 -0.3167  0.2602
   89MOL   C12635502   0.615   6.792   4.952 -0.2759  0.0403 -0.1040
   89MOL   O12735503   0.520   6.830   4.857  0.4087  0.2487  0.2929
   89MOL   C12835504   0.563   6.920   4.753 -0.2688 -0.0893  0.1699
   89MOL   C12935505   0.566   6.704   5.053 -0.0500 -0.4911 -0.6211
   89MOL   C13035506   0.662   6.642   5.142 -0.2808  0.2636 -0.5159
   89MOL   C13135507   0.905   6.451   5.221  0.0322  0.3161 -0.1954
   89MOL   H13235508   1.000   6.646   5.207  0.4470  1.5277  3.2035
   89MOL   H13335509   0.948   6.798   5.035  0.0296 -0.0277  1.1083
   89MOL   H13435510   0.805   6.896   4.893  1.9397 -1.5982  0.2598
   89MOL   H13535511   0.650   6.876   4.704  3.2813  3.5130  2.8157
   89MOL   H13635512   0.481   6.955   4.690  1.1606  1.1454 -1.0361
   89MOL   H13735513   0.605   7.011   4.796 -1.9435  1.8399 -2.1599
   89MOL   H13835514   0.464   6.668   5.053 -0.5953  0.9713  1.8565
   89MOL   H13935515   0.631   6.567   5.213  0.8080  0.2418 -0.0575
   89MOL   H14035516   0.807   6.408   5.244  0.1075 -0.0661 -0.5627
   89MOL   H14135517   0.969   6.413   5.300 -0.8400  2.0361  1.3914
   89MOL   C14235518   0.936   6.390   5.075  0.3408 -0.3320  0.2158
   89MOL   C14335519   1.076   6.441   5.029  0.5524 -0.9345 -1.0106
   89MOL   C14435520   1.080   6.521   4.911  0.0755  0.2307  0.4437
   89MOL   C14535521   1.207   6.579   4.865  0.3980  0.0261  0.0053
   89MOL   C14635522   1.321   6.570   4.947  0.4906  0.0737 -0.8567
   89MOL   O14735523   1.437   6.636   4.909  0.0361  0.0279 -0.7721
   89MOL   C14835524   1.531   6.682   5.008  0.4546  0.3366  0.6595
   89MOL   C14935525   1.312   6.486   5.064  0.3737  0.2432  0.0037
   89MOL   C15035526   1.193   6.429   5.103  0.1644  0.0457  0.7047
   89MOL   C15135527   0.938   6.235   5.072  0.6888 -0.0941 -0.2035
   89MOL   H15235528   0.868   6.435   5.002 -1.1999 -0.4526  1.5483
   89MOL   H15335529   0.991   6.544   4.855 -0.7107  1.7631  2.2691
   89MOL   H15435530   1.213   6.641   4.777  1.4874  0.7162  0.5520
   89MOL   H15535531   1.585   6.771   4.973 -0.3790  0.3403 -0.6586
   89MOL   H15635532   1.470   6.717   5.091 -1.1719 -0.8721  0.0060
   89MOL   H15735533   1.597   6.608   5.053  0.5399  1.0163  1.6571
   89MOL   H15835534   1.393   6.465   5.134 -0.0050 -1.0052  0.0850
   89MOL   H15935535   1.187   6.379   5.199 -0.5553 -1.7795 -0.2689
   89MOL   H16035536   1.000   6.206   5.156 -0.3623  1.1031  1.0310
   89MOL   H16135537   0.988   6.211   4.978 -0.9449 -0.7545 -0.9205
   89MOL   C16235538   0.793   6.170   5.078  0.0545 -0.0210  0.1038
   89MOL   C16335539   0.788   6.025   5.106  0.1572  0.0505 -0.2213
   89MOL   C16435540   0.895   5.938   5.062  0.0590  0.3707 -0.0929
   89MOL   C16535541   0.890   5.796   5.092  0.1877  0.0893  0.3115
   89MOL   C16635542   0.772   5.742   5.152 -0.0216 -0.6367 -0.4213
   89MOL   O16735543   0.754   5.605   5.149  0.1508 -0.6066  0.3867
   89MOL   C16835544   0.650   5.565   5.238  0.0380  0.4463  0.1995
   89MOL   C16935545   0.670   5.831   5.195 -0.3923  0.7638  0.4044
   89MOL   C17035546   0.677   5.968   5.166  0.3791  0.4420  0.7418
   89MOL   C17135547   0.708   6.208   4.955  0.0433 -0.1894 -0.5843
   89MOL   H17235548   0.747   6.211   5.167 -1.0331 -2.2363  0.6023
   89MOL   H17335549   0.981   5.979   5.010  0.7345 -2.7563 -1.5735
   89MOL   H17435550   0.963   5.725   5.057 -1.3500 -1.3692  0.0055
   89MOL   H17535551   0.551   5.583   5.196  0.3956  0.6550 -0.5572
   89MOL   H17635552   0.654   5.614   5.335 -0.7338 -0.6981  0.8137
   89MOL   H17735553   0.672   5.462   5.264  0.4510 -0.2833 -2.8535
   89MOL   H17835554   0.581   5.797   5.246 -0.7712  0.7271 -0.2780
   89MOL   H17935555   0.600   6.031   5.206 -2.0268 -2.6446  1.1630
   89MOL   H18035556   0.726   6.310   4.921 -0.8997 -0.5723 -2.2816
   89MOL   H18135557   0.603   6.207   4.986  0.1618 -0.2593 -0.1852
   89MOL   C18235558   0.718   6.117   4.835  0.1036  0.1517  0.1819
   89MOL   C18335559   0.856   6.100   4.768 -0.5156 -0.1161 -0.2842
   89MOL   C18435560   0.926   6.214   4.734  0.0414 -0.5070 -0.0699
   89MOL   C18535561   1.042   6.210   4.656  0.5423 -0.3244  0.2162
   89MOL   C18635562   1.081   6.077   4.615 -0.7282 -0.9582  0.2962
   89MOL   O18735563   1.192   6.084   4.532 -0.3718 -0.2470  0.3301
   89MOL   C18835564   1.260   5.971   4.493  0.2808 -0.1573  0.1827
   89MOL   C18935565   1.018   5.957   4.664 -0.8527 -0.0123 -0.1106
   89MOL   C19035566   0.899   5.973   4.734 -0.7437  0.0036  0.2377
   89MOL   C19135567   0.617   6.164   4.728  0.0923 -0.2428  0.7517
   89MOL   H19235568   0.684   6.016   4.856  0.2711  0.0167 -0.1892
   89MOL   H19335569   0.889   6.315   4.741 -0.8877 -0.7561 -1.1908
   89MOL   H19435570   1.098   6.298   4.630  0.2111 -0.4827 -1.0307
   89MOL   H19535571   1.196   5.894   4.451  3.0059 -2.5004  0.2089
   89MOL   H19635572   1.305   5.926   4.582  2.6277  0.3168 -0.7265
   89MOL   H19735573   1.352   5.998   4.441 -0.1429  0.2760 -0.3477
   89MOL   H19835574   1.048   5.857   4.636  0.3361 -0.1410  1.5563
   89MOL   H19935575   0.850   5.882   4.767 -0.4970  0.1403  1.0044
   89MOL   H20035576   0.623   6.273   4.716 -1.3620 -0.2071  0.2960
   89MOL   H20135577   0.662   6.130   4.634  2.6914  0.7540  1.6002
   89MOL   C20235578   0.470   6.117   4.722  0.3687 -0.0183  0.0747
   89MOL   C20335579   0.384   6.220   4.793  0.8767  0.5419 -0.5039
   89MOL   C20435580   0.330   6.331   4.720 -0.1080  0.0335  0.7644
   89MOL   C20535581   0.291   6.443   4.798 -0.8543  0.0607  0.2299
   89MOL   C20635582   0.284   6.443   4.941  0.6281  0.0613  0.0504
   89MOL   O20735583   0.245   6.557   5.007  0.0133 -0.3142 -0.0739
   89MOL   C20835584   0.202   6.675   4.939 -0.0642  0.4528  0.1543
   89MOL   C20935585   0.327   6.324   5.009  0.6179  0.1066  0.1254
   89MOL   C21035586   0.374   6.220   4.934  0.2642 -0.3294  0.6126
   89MOL   C21135587   0.450   5.971   4.779  0.4405  0.2814 -0.1777
   89MOL   H21235588   0.442   6.133   4.618  1.0793  0.3423 -0.0569
   89MOL   H21335589   0.327   6.327   4.612  1.7331  0.3754  0.6948
   89MOL   H21435590   0.268   6.535   4.746 -0.8072 -0.9006 -1.5092
   89MOL   H21535591   0.122   6.656   4.868 -0.6829  0.6214  0.8015
   89MOL   H21635592   0.175   6.748   5.015 -3.1070 -1.0556  0.6090
   89MOL   H21735593   0.285   6.711   4.878  0.6787 -2.9195 -0.9470
   89MOL   H21835594   0.311   6.332   5.115 -0.0421 -0.4399  0.0747
   89MOL   H21935595   0.416   6.143   4.996 -0.3439 -0.9857  0.2065
   89MOL   H22035596   0.344   5.952   4.794  0.2666  0.1939 -1.4593
   89MOL   H22135597   0.483   5.961   4.882 -1.1527 -1.7874  0.1627
   89MOL   C22235598   0.514   5.857   4.694  0.3295 -0.0511  0.3597
   89MOL   C22335599   0.496   5.731   4.774  0.2283 -0.1324 -0.2444
   89MOL   C22435600   0.607   5.647   4.802 -0.4627 -0.3729 -0.5049
   89MOL   C22535601   0.590   5.519   4.866 -0.0313  0.2145 -0.7510
   89MOL   C22635602   0.460   5.474   4.898  0.1709  0.3280  0.1400
   89MOL   O22735603   0.426   5.353   4.958 -0.7534  0.5754 -0.3624
   89MOL   C22835604   0.529   5.266   4.994 -0.5685  0.1159 -0.3753
   89MOL   C22935605   0.352   5.560   4.862  0.3853 -0.5462  0.6627
   89MOL   C23035606   0.369   5.681   4.802 -0.2585 -0.1898 -0.5668
   89MOL   C23135607   0.457   5.841   4.552 -0.1882  0.0475 -0.2086
   89MOL   H23235608   0.621   5.871   4.680  0.2060 -0.1252 -0.7034
   89MOL   H23335609   0.706   5.682   4.776 -0.0982 -0.9501  0.0956
   89MOL   H23435610   0.677   5.461   4.891 -0.1874  0.6200  0.7518
   89MOL   H23535611   0.590   5.312   5.072  0.3770 -1.3575 -0.2075
   89MOL   H23635612   0.483   5.180   5.043  0.7520  1.0097  2.5606
   89MOL   H23735613   0.598   5.229   4.918 -0.1799  1.0961 -0.5031
   89MOL   H23835614   0.254   5.519   4.884 -1.0649  2.6894  0.4225
   89MOL   H23935615   0.281   5.741   4.785  0.2225  0.5603 -0.4123
   89MOL   H24035616   0.436   5.735   4.541  1.7119 -0.2847 -0.7514
   89MOL   H24135617   0.364   5.895   4.535 -0.2277 -0.6155 -2.3214
   89MOL   C24235618   0.554   5.895   4.445 -0.2742 -0.5149 -0.5774
   89MOL   C24335619   0.657   5.792   4.416 -0.0090  1.1207 -0.0748
   89MOL   C24435620   0.796   5.823   4.420  0.3871 -0.8103 -0.2443
   89MOL   C24535621   0.890   5.734   4.361  0.8395 -0.3479  0.1641
   89MOL   C24635622   0.849   5.615   4.310 -0.1639 -0.3318  0.2308
   89MOL   O24735623   0.956   5.539   4.273  0.3444  0.4450  0.1539
   89MOL   C24835624   0.929   5.405   4.225 -0.1695 -0.6392 -0.2404
   89MOL   C24935625   0.711   5.573   4.309 -0.1321 -0.0155  0.3489
   89MOL   C25035626   0.618   5.669   4.358 -0.2414 -1.2815 -0.8688
   89MOL   C25135627   0.491   5.941   4.309  0.6817 -0.0217  0.2894
   89MOL   H25235628   0.610   5.978   4.490 -1.3441 -0.2473  0.2815
   89MOL   H25335629   0.822   5.918   4.464 -0.9442 -1.2521  1.5929
   89MOL   H25435630   0.991   5.769   4.350  1.0178 -1.1215 -0.7135
   89MOL   H25535631   0.888   5.346   4.307 -1.8253 -2.2428 -2.1685
   89MOL   H25635632   0.856   5.422   4.146 -0.6042  0.6702  0.4252
   89MOL   H25735633   1.021   5.361   4.186  0.7315 -0.2132  1.3629
   89MOL   H25835634   0.681   5.474   4.276  0.7174 -0.3463  0.5572
   89MOL   H25935635   0.514   5.647   4.341 -0.6132  1.2699 -2.2764
   89MOL   H26035636   0.391   5.980   4.329  1.0115  1.3382 -0.6530
   89MOL   H26135637   0.472   5.854   4.246 -2.8309 -0.2687  1.5803
   89MOL   C26235638   0.565   6.042   4.224  0.3800  0.0915 -0.5927
   89MOL   C26335639   0.601   6.166   4.309 -0.0969  0.8369 -0.7736
   89MOL   C26435640   0.732   6.198   4.338 -0.2132  0.0945  0.0083
   89MOL   C26535641   0.765   6.321   4.400 -0.7438 -0.6446 -0.2707
   89MOL   C26635642   0.665   6.406   4.446  0.0383 -0.3486 -0.2602
   89MOL   O26735643   0.698   6.527   4.513 -0.5401  0.4662  0.6703
   89MOL   C26835644   0.604   6.556   4.615  0.5953  0.2967  0.6859
   89MOL   C26935645   0.526   6.378   4.418  0.5248  0.3545  0.0812
   89MOL   C27035646   0.493   6.254   4.348  0.5642  0.3386 -0.8028
   89MOL   C27135647   0.465   6.072   4.109 -0.3702 -0.0181 -0.0323
   89MOL   H27235648   0.654   5.998   4.180 -0.3505  0.0457 -2.0945
   89MOL   H27335649   0.815   6.142   4.299  0.3425 -0.4172  1.8973
   89MOL   H27435650   0.867   6.354   4.414 -0.3243 -1.7703 -0.6117
   89MOL   H27535651   0.637   6.622   4.695 -0.9292  1.4158  0.4392
   89MOL   H27635652   0.573   6.461   4.657  3.1723 -1.1516 -0.5623
   89MOL   H27735653   0.512   6.598   4.574  0.4715  1.3905  2.0568
   89MOL   H27835654   0.444   6.439   4.451 -1.9271 -1.8571 -1.6658
   89MOL   H27935655   0.391   6.229   4.323  0.1459  0.1351  1.0425
   89MOL   H28035656   0.424   5.981   4.065 -0.4167 -0.0268  0.0268
   89MOL   H28135657   0.371   6.116   4.143  0.9477  1.4829  1.7498
   89MOL   C28235658   0.532   6.148   3.993 -0.0650  0.4336  0.1990
   89MOL   C28335659   0.430   6.201   3.903  0.0276  1.0483 -0.1118
   89MOL   C28435660   0.389   6.331   3.914  0.4981 -0.4042 -0.2243
   89MOL   C28535661   0.270   6.375   3.851  0.5364 -0.1446  0.0465
   89MOL   C28635662   0.200   6.288   3.769 -0.4298  0.7719 -0.0250
   89MOL   O28735663   0.089   6.334   3.698 -0.2505 -0.2026  0.5693
   89MOL   C28835664   8.025   6.373   3.781  0.1214 -0.1568  0.6211
   89MOL   C28935665   0.233   6.158   3.754  0.0051  0.7642 -0.4296
   89MOL   C29035666   0.347   6.115   3.824  0.2242  0.7035  0.0985
   89MOL   C29135667   0.640   6.066   3.914  0.2869  0.6464  0.2946
   89MOL   H29235668   0.577   6.233   4.043 -0.9100  0.0328  1.6569
   89MOL   H29335669   0.436   6.402   3.981  0.5669  1.4740 -2.2048
   89MOL   H29435670   0.245   6.480   3.843 -0.6523 -0.5487 -1.7478
   89MOL   H29535671   7.998   6.286   3.841 -0.7815 -0.2144  0.1427
   89MOL   H29635672   8.038   6.471   3.827 -0.5121 -0.6968  1.9585
   89MOL   H29735673   7.942   6.385   3.711  1.0299 -1.3609 -0.6922
   89MOL   H29835674   0.177   6.087   3.696 -0.7416  2.1594 -1.4441
   89MOL   H29935675   0.371   6.010   3.819 -1.2551  0.3177  0.6213
   89MOL   H30035676   0.707   6.012   3.981  0.5642 -0.4076 -0.8034
   89MOL   H30135677   0.592   5.987   3.857  1.1001  0.6091 -0.3426
   89MOL   C30235678   0.736   6.142   3.822  0.3254 -0.0287  0.3443
   89MOL   C30335679   0.801   6.259   3.893 -0.2572 -0.3214  0.1555
   89MOL   C30435680   0.764   6.398   3.871 -0.0322  0.7259 -0.1674
   89MOL   C30535681   0.812   6.502   3.956 -0.1340  0.4799  0.6541
   89MOL   C30635682   0.896   6.468   4.065  0.6086  0.3769  0.3847
   89MOL   O30735683   0.940   6.568   4.150 -0.0499 -0.5383  0.1201
   89MOL   C30835684   1.033   6.545   4.249 -0.3811 -0.4823 -0.1813
   89MOL   C30935685   0.923   6.329   4.093 -0.1060 -0.0363  0.2070
   89MOL   C31035686   0.882   6.231   4.007  0.6378 -0.5149  0.2400
   89MOL   C31135687   0.846   6.043   3.771  0.2237 -0.2182 -0.0531
   89MOL   H31235688   0.682   6.179   3.735 -0.1098 -1.0683  0.1580
   89MOL   H31335689   0.705   6.423   3.784 -0.9616  1.0737  0.5546
   89MOL   H31435690   0.785   6.604   3.935  0.8397  0.4536 -0.8234
   89MOL   H31535691   1.023   6.455   4.310 -0.6963 -1.0686 -1.0776
   89MOL   H31635692   1.046   6.638   4.303 -2.0176  0.3437 -1.1473
   89MOL   H31735693   1.127   6.524   4.199  0.0110  0.7045  0.0400
   89MOL   H31835694   0.985   6.296   4.174 -0.3670 -1.4682 -0.1707
   89MOL   H31935695   0.890   6.128   4.038 -0.6086 -0.3899  0.9917
   89MOL   H32035696   0.793   5.972   3.708  0.1658  1.3753 -1.8590
   89MOL   H32135697   0.879   5.985   3.856  3.4689  1.2200 -0.2610
   89MOL   C32235698   0.974   6.100   3.702 -0.2687  0.2183 -0.1624
   89MOL   C32335699   0.938   6.194   3.592 -0.4306  0.1223  0.3960
   89MOL   C32435700   0.948   6.333   3.612  0.2063  0.0893 -0.1994
   89MOL   C32535701   0.919   6.422   3.506  0.0694 -0.6610 -0.3510
   89MOL   C32635702   0.893   6.377   3.376  0.8881 -0.1010  0.1531
   89MOL   O32735703   0.862   6.465   3.277 -0.1944 -0.1593 -0.5161
   89MOL   C32835704   0.748   6.430   3.200  0.4662  0.2169  0.1256
   89MOL   C32935705   0.894   6.235   3.352 -0.4899  0.1984  0.0446
   89MOL   C33035706   0.916   6.151   3.461 -0.3752 -0.1172 -0.1516
   89MOL   C33135707   1.065   5.981   3.655 -0.0599  0.0976  0.3764
   89MOL   H33235708   1.030   6.159   3.775  1.3377 -2.8819  1.1836
   89MOL   H33335709   0.980   6.378   3.704 -0.5299  0.2607 -0.0237
   89MOL   H33435710   0.918   6.527   3.530 -1.1568 -0.8014  0.2322
   89MOL   H33535711   0.766   6.379   3.105  1.0989 -1.5718  1.1904
   89MOL   H33635712   0.716   6.532   3.176  3.6181  1.4469  0.9426
   89MOL   H33735713   0.669   6.381   3.257  2.6375 -1.2820  1.9084
   89MOL   H33835714   0.874   6.199   3.251  0.9447 -1.1003  0.2038
   89MOL   H33935715   0.900   6.046   3.438  0.5755 -0.0709 -1.0539
   89MOL   H34035716   1.017   5.910   3.589 -0.9173 -0.2452  1.3621
   89MOL   H34135717   1.154   6.013   3.600  1.3808  1.3422  3.2492
   89MOL   C34235718   1.119   5.900   3.773  0.3028  0.0658  0.4386
   89MOL   C34335719   1.184   5.993   3.876 -0.7343  0.3238 -0.9362
   89MOL   C34435720   1.286   6.074   3.830  0.4276  0.4699 -0.7330
   89MOL   C34535721   1.340   6.171   3.913  0.1118 -0.3086  0.4709
   89MOL   C34635722   1.295   6.179   4.047  0.4506  1.0698  0.2881
   89MOL   O34735723   1.353   6.276   4.124  0.1046  0.2672  0.0371
   89MOL   C34835724   1.326   6.269   4.265 -0.1728  0.4608  0.0054
   89MOL   C34935725   1.194   6.090   4.093  0.3002  0.5619  0.0334
   89MOL   C35035726   1.133   6.003   4.005 -0.4204 -0.1555 -0.3068
   89MOL   C35135727   1.217   5.781   3.731 -0.5561  0.7363  0.1208
   89MOL   H35235728   1.033   5.857   3.823 -1.3390  1.3423 -1.2097
   89MOL   H35335729   1.319   6.062   3.728 -0.5658 -0.0308 -0.9974
   89MOL   H35435730   1.408   6.246   3.875  0.7044 -1.1057 -0.0328
   89MOL   H35535731   1.225   6.304   4.284 -0.3358  0.7379 -1.3263
   89MOL   H35635732   1.345   6.169   4.304  1.0403 -0.0744 -1.9251
   89MOL   H35735733   1.396   6.333   4.320  0.8833 -2.2790  2.0006
   89MOL   H35835734   1.149   6.094   4.191 -2.0587 -0.1696 -0.9947
   89MOL   H35935735   1.044   5.951   4.037 -1.3211  1.0571 -0.8031
   89MOL   H36035736   1.300   5.832   3.682 -0.4854  0.4545 -0.0578
   89MOL   H36135737   1.266   5.732   3.815 -2.0505  0.6959  0.9895
   89MOL   C36235738   1.158   5.676   3.639  0.2900  0.2369 -0.5692
   89MOL   C36335739   1.032   5.616   3.695  0.6648  0.2681  0.1704
   89MOL   C36435740   0.912   5.632   3.624 -0.4778  0.0463 -0.2467
   89MOL   C36535741   0.800   5.556   3.655  0.3348  0.3210  0.7571
   89MOL   C36635742   0.808   5.456   3.750 -0.2767  0.5567 -0.2032
   89MOL   O36735743   0.700   5.370   3.782  0.2561 -0.6168  0.4901
   89MOL   C36835744   0.592   5.369   3.694  0.3127  0.2589 -0.4128
   89MOL   C36935745   0.925   5.443   3.831  0.2973 -0.2077 -0.7688
   89MOL   C37035746   1.040   5.527   3.802  0.5526 -0.4680  0.5345
   89MOL   C37135747   1.272   5.570   3.604 -0.3616 -0.2224  0.7729
   89MOL   H37235748   1.130   5.714   3.541 -2.4970 -2.1636 -0.7811
   89MOL   H37335749   0.891   5.696   3.540 -1.8846 -1.0120 -0.7344
   89MOL   H37435750   0.717   5.575   3.589  0.5604  1.9286  0.9213
   89MOL   H37535751   0.524   5.289   3.723 -0.3211  1.1783  0.6541
   89MOL   H37635752   0.535   5.460   3.706 -0.8568 -0.6253  0.8558
   89MOL   H37735753   0.630   5.352   3.593 -1.5841 -2.7428 -0.6805
   89MOL   H37835754   0.942   5.366   3.904  2.3626  0.6346 -0.3250
   89MOL   H37935755   1.132   5.512   3.857  1.9397 -2.4881 -2.2214
   89MOL   H38035756   1.343   5.629   3.545 -1.5438  1.1433  0.6961
   89MOL   H38135757   1.334   5.539   3.688  2.0711 -0.1114 -0.8977
   89MOL   C38235758   1.216   5.448   3.529  0.1019 -0.4306 -0.3331
   89MOL   C38335759   1.327   5.346   3.501 -0.8909  1.1565 -0.0549
   89MOL   C38435760   1.326   5.224   3.567 -0.8609  0.1030  0.1663
   89MOL   C38535761   1.434   5.138   3.562 -0.9629  1.2764  0.2427
   89MOL   C38635762   1.555   5.175   3.489 -0.0573  0.5539 -0.0860
   89MOL   O38735763   1.661   5.092   3.472 -0.5414  0.2021  0.5279
   89MOL   C38835764   1.668   4.979   3.562 -0.5085  0.2271 -0.9650
   89MOL   C38935765   1.548   5.287   3.405 -0.3640  0.8304 -0.5158
   89MOL   C39035766   1.435   5.370   3.411 -0.3841  0.4088  0.1488
   89MOL   C39135767   1.137   5.484   3.405 -0.1841  0.0896  0.0041
   89MOL   H39235768   1.145   5.402   3.598  1.2422  0.7110  1.6458
   89MOL   H39335769   1.236   5.202   3.623  0.0172  0.4886  1.7523
   89MOL   H39435770   1.437   5.043   3.615 -1.9435  1.3462  0.4167
   89MOL   H39535771   1.670   4.998   3.669  2.5420 -2.2737 -0.5087
   89MOL   H39635772   1.742   4.901   3.547 -1.2281 -0.5688 -0.4193
   89MOL   H39735773   1.571   4.931   3.551 -0.8676  0.8843 -0.7042
   89MOL   H39835774   1.631   5.311   3.341  0.0243  0.2901 -0.2132
   89MOL   H39935775   1.435   5.462   3.354 -3.0194 -0.0656 -0.6512
   89MOL   H40035776   1.188   5.537   3.325 -2.4608  1.1671 -0.7588
   89MOL   H40135777   1.048   5.542   3.424 -0.2176 -0.0228  0.1929
   89MOL   H40235778   1.112   5.392   3.352  1.6006 -0.5484  0.2234
   90MOL     C135779   4.953   4.987   3.382 -0.6401 -0.2751 -0.3093
   90MOL     C235780   4.853   4.876   3.425 -0.8059 -0.7866 -0.2322
   90MOL     C335781   4.877   4.798   3.541 -0.6675 -0.3533 -0.2931
   90MOL     C435782   4.802   4.689   3.569  0.0222 -0.7104  0.6258
   90MOL     C535783   4.706   4.644   3.472  0.1206  0.6097 -0.0367
   90MOL     O635784   4.645   4.519   3.484  0.3312 -0.7735  0.0737
   90MOL     C735785   4.674   4.441   3.601 -0.6164  0.3293  0.3045
   90MOL     C835786   4.688   4.711   3.352 -0.3634 -0.1578 -0.2523
   90MOL     C935787   4.751   4.838   3.334  0.6380  0.3249  0.3281
   90MOL    C1035788   4.904   5.132   3.422 -0.0926  0.5638  0.1784
   90MOL    H1135789   4.954   4.981   3.273 -1.4776 -0.0514 -0.3336
   90MOL    H1235790   4.962   4.827   3.602 -0.3611  0.2433 -0.9949
   90MOL    H1335791   4.830   4.623   3.650  0.7032 -0.3470  0.6840
   90MOL    H1435792   4.782   4.421   3.604 -0.5297  0.3773 -1.7761
   90MOL    H1535793   4.650   4.509   3.683 -0.7125  0.2399  0.3502
   90MOL    H1635794   4.628   4.343   3.606 -3.8662  1.7893 -0.0081
   90MOL    H1735795   4.615   4.672   3.282 -1.0809 -1.4572  1.1745
   90MOL    H1835796   4.734   4.889   3.241  0.5078  2.2631  1.3857
   90MOL    H1935797   4.799   5.148   3.399 -0.1394  2.4551  1.5364
   90MOL    H2035798   4.917   5.146   3.530  0.8922  0.9534  0.0119
   90MOL    H2135799   5.053   4.972   3.424  0.1125  1.9026 -1.2331
   90MOL    C2235800   4.969   5.252   3.345 -0.5025  0.2299 -0.1220
   90MOL    C2335801   4.872   5.370   3.358  0.4239 -0.1889  0.2764
   90MOL    C2435802   4.824   5.434   3.241  0.0955  0.3522  0.0654
   90MOL    C2535803   4.733   5.547   3.243 -0.4198  0.3569  0.0318
   90MOL    C2635804   4.697   5.598   3.370 -0.3366 -0.0873 -0.3111
   90MOL    O2735805   4.619   5.713   3.367 -0.4704  0.0714 -0.3425
   90MOL    C2835806   4.621   5.795   3.485  0.0396  0.0460  0.1499
   90MOL    C2935807   4.744   5.533   3.488 -0.3811  0.1578  0.0282
   90MOL    C3035808   4.825   5.418   3.482 -0.0354 -0.2718  0.1156
   90MOL    C3135809   5.118   5.270   3.390 -0.5256 -0.2788 -0.2308
   90MOL    H3235810   4.963   5.227   3.239  0.6267 -0.5324 -0.0201
   90MOL    H3335811   4.857   5.393   3.146 -0.8196  2.5986 -1.2532
   90MOL    H3435812   4.691   5.583   3.150 -0.9771 -1.1930 -0.3178
   90MOL    H3535813   4.722   5.807   3.526 -0.3961  0.2446  1.1843
   90MOL    H3635814   4.579   5.730   3.562  0.6107 -1.8379 -1.1034
   90MOL    H3735815   4.584   5.896   3.472 -0.6241 -0.0937  0.9234
   90MOL    H3835816   4.727   5.572   3.587  0.4465 -1.3643  0.7735
   90MOL    H3935817   4.867   5.369   3.569 -0.6930 -0.6769  0.2123
   90MOL    H4035818   5.122   5.267   3.499  1.2709 -1.2289 -0.3187
   90MOL    H4135819   5.177   5.182   3.367 -0.7561 -1.4098  3.2215
   90MOL    C4235820   5.187   5.391   3.332  0.1710  0.5716  0.3057
   90MOL    C4335821   5.334   5.362   3.286  0.3762 -0.0872  0.0698
   90MOL    C4435822   5.381   5.381   3.154  0.4077 -0.2036  0.0258
   90MOL    C4535823   5.516   5.361   3.128 -0.0189  0.1258 -0.0687
   90MOL    C4635824   5.604   5.314   3.224  0.8611 -0.4178  0.0550
   90MOL    O4735825   5.730   5.299   3.180  0.4500 -0.3759  0.2197
   90MOL    C4835826   5.831   5.239   3.254  0.3635 -0.8959  0.7283
   90MOL    C4935827   5.552   5.291   3.351 -0.2632  0.3028  0.7063
   90MOL    C5035828   5.421   5.316   3.381 -0.3066  0.3289 -0.8315
   90MOL    C5135829   5.174   5.510   3.428 -0.2068 -0.3592  0.0025
   90MOL    H5235830   5.134   5.416   3.241  0.4780  0.0528 -0.0140
   90MOL    H5335831   5.322   5.429   3.077  0.5203 -0.0221  0.0529
   90MOL    H5435832   5.547   5.403   3.034  0.0763 -0.6923 -0.4131
   90MOL    H5535833   5.918   5.254   3.191 -1.2040  1.1009 -1.0531
   90MOL    H5635834   5.854   5.281   3.352  1.4846  0.7481 -0.2221
   90MOL    H5735835   5.807   5.133   3.266 -0.9466 -0.8104 -0.9469
   90MOL    H5835836   5.613   5.253   3.432 -0.3675  1.3665  1.2862
   90MOL    H5935837   5.385   5.292   3.480 -1.2520  2.7770 -0.5347
   90MOL    H6035838   5.231   5.477   3.514 -1.3539 -1.6815  0.2747
   90MOL    H6135839   5.074   5.526   3.470  0.5077  0.0363  1.5831
   90MOL    C6235840   5.234   5.634   3.379  0.3391  0.3382  0.8221
   90MOL    C6335841   5.231   5.725   3.501  0.7983  0.0703  0.2137
   90MOL    C6435842   5.119   5.810   3.531 -0.8649 -0.2084  0.5543
   90MOL    C6535843   5.118   5.884   3.647  0.2978 -0.4748 -0.5705
   90MOL    C6635844   5.220   5.867   3.744  0.7338 -0.5422 -1.3160
   90MOL    O6735845   5.235   5.952   3.852 -0.0300  0.4190 -0.3603
   90MOL    C6835846   5.131   6.049   3.881 -0.1531  0.2744  0.1774
   90MOL    C6935847   5.326   5.777   3.716 -0.1221 -0.0315 -0.7087
   90MOL    C7035848   5.333   5.710   3.597 -0.3694  0.1115  0.8574
   90MOL    C7135849   5.162   5.688   3.250 -0.2817  0.6929  0.4721
   90MOL    H7235850   5.340   5.622   3.354  0.4067 -0.4889  1.4901
   90MOL    H7335851   5.033   5.819   3.466 -1.7371  0.4852  1.7791
   90MOL    H7435852   5.039   5.956   3.662 -1.2535 -2.0275 -1.1884
   90MOL    H7535853   5.138   6.123   3.801 -1.1924  0.2536  0.0615
   90MOL    H7635854   5.153   6.117   3.963  0.0865  2.1103 -1.3656
   90MOL    H7735855   5.031   6.007   3.876  0.3139 -0.8652  0.1249
   90MOL    H7835856   5.402   5.761   3.790 -1.2703 -0.1526  0.4767
   90MOL    H7935857   5.406   5.633   3.573 -3.0149 -2.6408  1.3090
   90MOL    H8035858   5.169   5.616   3.168 -2.2904  1.7118 -0.6506
   90MOL    H8135859   5.057   5.702   3.275  0.0260 -1.2755  3.0167
   90MOL    C8235860   5.225   5.815   3.192  0.0322  0.1173  0.0470
   90MOL    C8335861   5.373   5.795   3.151 -0.2888 -0.0663 -0.5010
   90MOL    C8435862   5.421   5.704   3.053 -0.5620 -0.3135 -0.5308
   90MOL    C8535863   5.558   5.691   3.011 -0.1977  0.2106  0.3756
   90MOL    C8635864   5.651   5.771   3.083  0.7131 -1.0450  0.3407
   90MOL    O8735865   5.789   5.767   3.058 -0.6469 -0.1720 -0.5457
   90MOL    C8835866   5.843   5.642   3.018  0.1577 -0.1921  0.2173
   90MOL    C8935867   5.607   5.849   3.191 -0.0883 -0.1408 -0.2820
   90MOL    C9035868   5.471   5.867   3.221 -0.4243  0.5522  0.3926
   90MOL    C9135869   5.153   5.871   3.066 -1.0300 -0.4136 -0.9883
   90MOL    H9235870   5.218   5.899   3.261  2.4437  2.1917 -2.1194
   90MOL    H9335871   5.352   5.642   2.996  0.4182  0.0206 -2.1317
   90MOL    H9435872   5.585   5.634   2.924 -2.9606 -0.3963 -0.1376
   90MOL    H9535873   5.950   5.652   3.031  0.1102 -0.4862  0.8234
   90MOL    H9635874   5.830   5.626   2.911  1.4770  0.3556 -0.0334
   90MOL    H9735875   5.799   5.559   3.074  1.2180  0.0693  1.4377
   90MOL    H9835876   5.679   5.906   3.250  0.0983  0.4814 -1.1016
   90MOL    H9935877   5.429   5.930   3.298 -0.0560 -0.3001  1.2994
   90MOL   H10035878   5.208   5.962   3.042  1.5402 -0.6348  3.4478
   90MOL   H10135879   5.158   5.796   2.987  0.5031  0.1816 -1.4682
   90MOL   C10235880   5.001   5.893   3.084 -0.5549  0.1738  0.3692
   90MOL   C10335881   4.959   6.003   3.178 -0.6085  0.1037  0.0406
   90MOL   C10435882   4.836   5.993   3.241  0.1651  0.3303 -0.4031
   90MOL   C10535883   4.792   6.087   3.345  0.2457 -0.2578 -0.2209
   90MOL   C10635884   4.880   6.189   3.378 -0.7209  0.6684  0.6462
   90MOL   O10735885   4.825   6.282   3.464  0.4488  0.0719 -0.3984
   90MOL   C10835886   4.921   6.368   3.534 -0.0385  0.3618  0.0473
   90MOL   C10935887   5.002   6.203   3.301 -0.5943  0.1361 -0.1440
   90MOL   C11035888   5.045   6.108   3.211  0.2000  0.0286 -0.0210
   90MOL   C11135889   4.916   5.904   2.954 -0.4631  0.2433  0.6373
   90MOL   H11235890   4.966   5.794   3.116 -0.1930  0.3993  1.4811
   90MOL   H11335891   4.760   5.921   3.213  0.3599  0.1196 -0.3867
   90MOL   H11435892   4.698   6.082   3.398 -1.6114 -0.8576 -3.4649
   90MOL   H11535893   5.025   6.336   3.540  0.4825  2.2464  1.6239
   90MOL   H11635894   4.929   6.454   3.467 -1.6031 -0.0806 -0.7033
   90MOL   H11735895   4.895   6.383   3.639  3.1430  1.0292  0.8050
   90MOL   H11835896   5.068   6.288   3.316 -0.7643 -0.0473  1.8240
   90MOL   H11935897   5.139   6.128   3.161 -0.1983  0.0354 -0.7735
   90MOL   H12035898   4.835   5.977   2.964 -0.6268  0.2894 -0.8816
   90MOL   H12135899   4.983   5.956   2.885 -0.9542 -2.7929 -2.2519
   90MOL   C12235900   4.856   5.778   2.885 -0.0896 -0.2495 -0.1627
   90MOL   C12335901   4.973   5.675   2.849  0.2159 -0.2336 -0.1701
   90MOL   C12435902   5.072   5.702   2.748 -0.2765 -0.1455 -0.1510
   90MOL   C12535903   5.182   5.609   2.735  0.0168  0.2758  0.4273
   90MOL   C12635904   5.190   5.491   2.811  0.2513 -0.5622 -0.2396
   90MOL   O12735905   5.295   5.404   2.803  0.6979 -0.3813  0.1654
   90MOL   C12835906   5.424   5.449   2.765  0.5692  0.0493  0.2244
   90MOL   C12935907   5.088   5.467   2.907  0.0828  0.1738  0.0028
   90MOL   C13035908   4.985   5.558   2.932 -0.2387  0.3929 -0.5844
   90MOL   C13135909   4.773   5.819   2.761  0.1985 -0.3502  0.3772
   90MOL   H13235910   4.785   5.718   2.944  0.1112  1.1256  1.5094
   90MOL   H13335911   5.063   5.779   2.673  0.1893  1.4510  1.4046
   90MOL   H13435912   5.260   5.645   2.670  2.2941 -0.5626  2.6263
   90MOL   H13535913   5.433   5.469   2.658 -0.9050  0.1021  0.1006
   90MOL   H13635914   5.455   5.544   2.808  1.1399  0.4466 -1.0521
   90MOL   H13735915   5.484   5.360   2.783 -0.6704 -0.7495  0.4957
   90MOL   H13835916   5.091   5.380   2.971 -0.8857  0.3548  0.3001
   90MOL   H13935917   4.914   5.541   3.012  0.1418 -1.1458 -0.5481
   90MOL   H14035918   4.787   5.749   2.679 -1.3354  0.8042 -0.8979
   90MOL   H14135919   4.815   5.913   2.724 -3.8265  1.0832 -0.8261
   90MOL   C14235920   4.620   5.815   2.800  0.0707 -0.1222  0.0309
   90MOL   C14335921   4.584   5.909   2.914 -0.0463 -0.0043 -0.4668
   90MOL   C14435922   4.534   5.868   3.046 -0.4856  0.7410 -0.2365
   90MOL   C14535923   4.507   5.972   3.139  0.0381 -0.1672  0.5445
   90MOL   C14635924   4.544   6.101   3.117 -0.8911 -0.2406  0.3938
   90MOL   O14735925   4.523   6.189   3.223  0.2375  0.0672 -0.3554
   90MOL   C14835926   4.553   6.324   3.199  0.5551 -0.1683 -0.9354
   90MOL   C14935927   4.588   6.139   2.985 -0.5193  0.7761  0.2566
   90MOL   C15035928   4.590   6.043   2.880 -0.2948 -1.2301  0.1260
   90MOL   C15135929   4.542   5.833   2.668 -0.0986 -0.1030 -0.0862
   90MOL   H15235930   4.593   5.718   2.843 -1.8657  0.0659 -0.7105
   90MOL   H15335931   4.533   5.766   3.079  1.6285  0.1771 -1.8648
   90MOL   H15435932   4.479   5.934   3.236 -2.5591  1.0079  0.2955
   90MOL   H15535933   4.522   6.372   3.292  0.6800 -0.6747 -0.6309
   90MOL   H15635934   4.658   6.348   3.191  0.0801  1.5311 -2.2546
   90MOL   H15735935   4.497   6.368   3.117 -1.8621 -0.2037  0.6130
   90MOL   H15835936   4.600   6.244   2.960 -1.1127  0.8466  0.2593
   90MOL   H15935937   4.614   6.082   2.783 -1.6382 -1.4438 -0.3017
   90MOL   H16035938   4.565   5.748   2.604 -2.5392  1.2467 -2.8187
   90MOL   H16135939   4.570   5.930   2.627 -0.4958  0.2553  0.4773
   90MOL   C16235940   4.387   5.852   2.686 -0.3928 -0.1341 -0.3394
   90MOL   C16335941   4.322   5.716   2.702 -0.1699 -0.8443 -0.1660
   90MOL   C16435942   4.326   5.634   2.591  0.8082  0.5728 -0.1630
   90MOL   C16535943   4.260   5.510   2.606 -0.9186 -0.3074 -0.2832
   90MOL   C16635944   4.217   5.462   2.727 -0.3023  0.2319 -0.0137
   90MOL   O16735945   4.171   5.329   2.717 -0.1103 -0.6446  0.0338
   90MOL   C16835946   4.195   5.250   2.834 -0.3434  0.1524 -0.7466
   90MOL   C16935947   4.227   5.543   2.842 -0.2501 -0.0911  0.0998
   90MOL   C17035948   4.276   5.676   2.829  0.3073  0.1058 -0.3898
   90MOL   C17135949   4.318   5.936   2.573 -0.0730 -0.9568 -0.4256
   90MOL   H17235950   4.365   5.908   2.777  1.9727  0.9137 -0.3816
   90MOL   H17335951   4.366   5.660   2.495  1.7575 -3.3669 -0.9267
   90MOL   H17435952   4.256   5.450   2.516 -0.5464 -0.1166 -0.4280
   90MOL   H17535953   4.114   5.256   2.906  1.1880 -0.4019  1.0700
   90MOL   H17635954   4.279   5.295   2.886 -0.7739  0.2187 -0.1105
   90MOL   H17735955   4.208   5.144   2.810  2.1064  0.4789 -1.0244
   90MOL   H17835956   4.202   5.521   2.945 -0.2609  2.6237  0.7158
   90MOL   H17935957   4.294   5.737   2.917  0.2113 -0.8523  0.2961
   90MOL   H18035958   4.305   5.878   2.482 -0.7221 -1.3542 -0.0799
   90MOL   H18135959   4.386   6.019   2.550 -0.0016  0.0958  3.2244
   90MOL   C18235960   4.191   6.021   2.600  0.5336 -0.4662  0.2844
   90MOL   C18335961   4.203   6.114   2.718 -0.1530 -0.2151 -0.1501
   90MOL   C18435962   4.133   6.093   2.838 -0.0081 -0.0731  0.4102
   90MOL   C18535963   4.143   6.184   2.945 -0.7681  0.4025  0.4410
   90MOL   C18635964   4.220   6.304   2.940 -0.0406 -0.5918 -0.1807
   90MOL   O18735965   4.231   6.382   3.048 -0.1543 -1.0558 -0.2559
   90MOL   C18835966   4.268   6.521   3.044  0.3947  0.0860 -0.2475
   90MOL   C18935967   4.291   6.321   2.820  0.0165 -0.0275 -0.3451
   90MOL   C19035968   4.289   6.230   2.710 -0.3233  0.3689  0.3888
   90MOL   C19135969   4.069   5.929   2.610 -0.1200  0.3624 -0.0019
   90MOL   H19235970   4.186   6.086   2.512  0.7615 -0.0377  0.5810
   90MOL   H19335971   4.068   6.008   2.853  0.1689 -0.4432 -0.9082
   90MOL   H19435972   4.079   6.172   3.031 -0.6762 -0.4359  0.3934
   90MOL   H19535973   4.179   6.579   3.021 -0.2814  0.0108  2.0161
   90MOL   H19635974   4.345   6.540   2.969  0.6076 -0.0198 -0.0568
   90MOL   H19735975   4.317   6.541   3.140  1.2327 -0.4301 -0.5636
   90MOL   H19835976   4.350   6.411   2.812  0.1748 -0.1430 -0.4890
   90MOL   H19935977   4.341   6.254   2.618  0.7648  1.3352  1.2391
   90MOL   H20035978   4.093   5.866   2.695 -1.2962 -0.7816 -0.4932
   90MOL   H20135979   3.983   5.990   2.638  1.9221  3.7000 -0.7614
   90MOL   C20235980   4.035   5.843   2.479  0.4509 -0.0752 -0.1223
   90MOL   C20335981   4.063   5.923   2.354 -0.2928 -0.2132  0.1367
   90MOL   C20435982   4.026   6.061   2.338  0.7100 -0.3988  0.0868
   90MOL   C20535983   4.060   6.130   2.221  0.5398 -0.1934  0.2325
   90MOL   C20635984   4.113   6.064   2.109  0.1752  0.1418 -0.2036
   90MOL   O20735985   4.128   6.135   1.992 -0.5866 -0.1726  0.0938
   90MOL   C20835986   4.184   6.084   1.874 -0.4065 -0.4189 -0.4372
   90MOL   C20935987   4.140   5.925   2.123 -0.0596 -0.7563  0.5236
   90MOL   C21035988   4.120   5.849   2.244 -0.2464 -0.2606 -0.2180
   90MOL   C21135989   3.882   5.805   2.469  0.0880  0.0748 -0.0165
   90MOL   H21235990   4.090   5.749   2.481 -1.3799 -1.1492  1.6469
   90MOL   H21335991   3.976   6.106   2.423 -0.0017  2.2155 -1.6728
   90MOL   H21435992   4.047   6.237   2.215  1.0274 -0.1413  0.0640
   90MOL   H21535993   4.177   6.158   1.794  3.3008  0.0281 -0.4457
   90MOL   H21635994   4.287   6.060   1.900  0.4525  3.1474 -0.3538
   90MOL   H21735995   4.136   5.990   1.844 -2.3050  0.1735  0.6793
   90MOL   H21835996   4.205   5.873   2.055  2.3718  1.8172  0.8173
   90MOL   H21935997   4.134   5.743   2.253 -1.6166 -0.2543  2.1812
   90MOL   H22035998   3.874   5.766   2.367 -0.7488  0.9412 -0.2916
   90MOL   H22135999   3.805   5.882   2.462 -0.3793 -0.2431  1.4535
   90MOL   C22236000   3.833   5.702   2.569 -0.5167 -1.0377 -0.0739
   90MOL   C22336001   3.823   5.755   2.710 -0.6516 -0.8892 -0.3960
   90MOL   C22436002   3.725   5.846   2.740 -0.0217  0.1933 -0.0199
   90MOL   C22536003   3.717   5.897   2.871  0.0773  1.1103  0.5944
   90MOL   C22636004   3.810   5.864   2.973 -0.3140 -0.1539 -0.2247
   90MOL   O22736005   3.786   5.924   3.089  0.6587 -0.9003 -0.1377
   90MOL   C22836006   3.863   5.881   3.192 -0.1296 -0.3353 -0.5261
   90MOL   C22936007   3.902   5.759   2.942  0.0718  0.1434 -0.0483
   90MOL   C23036008   3.919   5.718   2.808 -0.2572  0.4019 -1.4075
   90MOL   C23136009   3.695   5.637   2.528  0.2056  0.5160  0.2715
   90MOL   H23236010   3.917   5.634   2.578  1.3421  1.1619 -0.2040
   90MOL   H23336011   3.658   5.879   2.662  2.6297  2.9093 -1.2616
   90MOL   H23436012   3.629   5.957   2.889 -0.5337  0.9296 -1.5723
   90MOL   H23536013   3.798   5.911   3.274  1.0202  2.7708 -0.6812
   90MOL   H23636014   3.884   5.775   3.207 -0.4529 -0.3154  0.0766
   90MOL   H23736015   3.957   5.934   3.205  1.0588 -2.2368 -1.2186
   90MOL   H23836016   3.974   5.729   3.017 -0.8199  0.4433  0.9444
   90MOL   H23936017   4.002   5.657   2.777 -0.6211 -1.0521  0.3684
   90MOL   H24036018   3.657   5.586   2.616  2.6136  1.3959  1.8544
   90MOL   H24136019   3.625   5.718   2.509  0.5769  0.6291 -0.6700
   90MOL   C24236020   3.689   5.555   2.395 -0.1491  0.0126  0.3914
   90MOL   C24336021   3.808   5.464   2.378  0.2394 -0.3806 -0.0698
   90MOL   C24436022   3.891   5.478   2.268 -0.4245 -0.1356 -0.3687
   90MOL   C24536023   4.014   5.409   2.264  0.3763 -0.0948 -0.2684
   90MOL   C24636024   4.055   5.325   2.362 -0.0532 -0.0629  0.3384
   90MOL   O24736025   4.172   5.262   2.343  0.0623 -0.4401  0.0254
   90MOL   C24836026   4.209   5.152   2.428  0.6518 -0.0609  0.8271
   90MOL   C24936027   3.975   5.302   2.472  0.4218  0.3135  0.2387
   90MOL   C25036028   3.856   5.380   2.481 -0.3086  0.0130 -0.3376
   90MOL   C25136029   3.550   5.478   2.382 -0.3125  0.0095 -0.0694
   90MOL   H25236030   3.695   5.631   2.317  3.1799 -0.6228 -0.0354
   90MOL   H25336031   3.862   5.556   2.199 -0.7918 -0.7458 -0.9166
   90MOL   H25436032   4.079   5.428   2.179  0.6787  1.9234  0.3849
   90MOL   H25536033   4.303   5.106   2.397  0.9071  1.7251 -1.1797
   90MOL   H25636034   4.227   5.182   2.532 -0.4725  0.6032  0.8332
   90MOL   H25736035   4.132   5.077   2.416 -0.3788  1.0720  0.3170
   90MOL   H25836036   4.003   5.230   2.547  1.4766  0.1298 -0.3115
   90MOL   H25936037   3.800   5.367   2.573 -0.4869  1.0183 -0.2933
   90MOL   H26036038   3.464   5.537   2.412  0.3747  0.2111  1.5266
   90MOL   H26136039   3.569   5.402   2.459  0.9898 -0.0376 -0.4182
   90MOL   C26236040   3.512   5.404   2.259 -0.4063  0.3436  0.1160
   90MOL   C26336041   3.445   5.489   2.152  0.4277 -0.0328 -0.1932
   90MOL   C26436042   3.312   5.535   2.157  0.6193  0.0412 -0.7749
   90MOL   C26536043   3.256   5.612   2.056 -0.4569 -0.1153 -0.7866
   90MOL   C26636044   3.329   5.641   1.940  0.2159  0.1189 -0.3378
   90MOL   O26736045   3.265   5.712   1.842 -0.1268  0.6175  0.2678
   90MOL   C26836046   3.348   5.767   1.743  0.4426 -0.2684 -0.5637
   90MOL   C26936047   3.463   5.596   1.936  0.0797  0.6464  1.0120
   90MOL   C27036048   3.516   5.516   2.039  0.1772 -0.5527  0.3155
   90MOL   C27136049   3.426   5.278   2.282 -0.7043  0.4629 -0.3545
   90MOL   H27236050   3.605   5.367   2.216 -0.1792  0.5735  0.4074
   90MOL   H27336051   3.268   5.510   2.253  1.9706  2.5581  0.5643
   90MOL   H27436052   3.152   5.641   2.062 -0.9289 -1.3115 -2.9655
   90MOL   H27536053   3.285   5.838   1.690 -2.2265 -1.2363  1.1570
   90MOL   H27636054   3.391   5.697   1.671  1.4935  0.8334 -1.0085
   90MOL   H27736055   3.431   5.819   1.790  0.2578 -3.3864  3.5723
   90MOL   H27836056   3.525   5.628   1.854 -1.6691 -1.1452 -1.0627
   90MOL   H27936057   3.614   5.471   2.043 -0.4137 -1.8688  0.2646
   90MOL   H28036058   3.369   5.287   2.375 -0.3027  1.4217 -0.2075
   90MOL   H28136059   3.358   5.256   2.200 -0.1398 -1.6768 -0.3028
   90MOL   C28236060   3.509   5.146   2.288 -0.7607  0.8042 -0.1214
   90MOL   C28336061   3.610   5.127   2.171 -0.1486 -0.0102  0.3564
   90MOL   C28436062   3.750   5.114   2.198 -0.6815 -0.5633 -0.5327
   90MOL   C28536063   3.841   5.108   2.093  0.3322  0.0723  0.0818
   90MOL   C28636064   3.794   5.114   1.956 -0.4656 -0.2194 -0.3727
   90MOL   O28736065   3.872   5.124   1.842 -0.1411 -0.2048  0.3375
   90MOL   C28836066   4.005   5.164   1.865 -0.2291 -0.1274 -0.2986
   90MOL   C28936067   3.657   5.122   1.929 -0.2645 -0.2054  0.3427
   90MOL   C29036068   3.568   5.129   2.033  0.3181  0.1493  0.1612
   90MOL   C29136069   3.433   5.015   2.300  0.3790 -0.2298 -0.5297
   90MOL   H29236070   3.569   5.152   2.379  2.1630 -0.7274 -1.8858
   90MOL   H29336071   3.787   5.116   2.299  0.9285 -2.7789 -1.0591
   90MOL   H29436072   3.945   5.105   2.124 -0.0035 -0.3050  1.2156
   90MOL   H29536073   4.011   5.260   1.917  0.9109  0.8418 -2.1666
   90MOL   H29636074   4.062   5.095   1.926 -1.7460 -0.6415  0.5672
   90MOL   H29736075   4.050   5.189   1.769  1.7749 -2.2820  0.0384
   90MOL   H29836076   3.623   5.134   1.827  2.1555  3.8839 -0.0867
   90MOL   H29936077   3.465   5.152   2.009  0.6812  0.6853 -0.9006
   90MOL   H30036078   3.370   5.021   2.389 -1.1732 -2.7744 -1.4036
   90MOL   H30136079   3.358   5.006   2.222  0.6862 -0.9619 -0.7453
   90MOL   C30236080   3.516   4.885   2.313 -0.0523  0.4004  0.3360
   90MOL   C30336081   3.601   4.884   2.439 -0.2866 -0.0925  0.7420
   90MOL   C30436082   3.556   4.931   2.568 -0.0135 -0.4954 -0.3987
   90MOL   C30536083   3.641   4.926   2.679 -0.4570 -0.1276 -0.0479
   90MOL   C30636084   3.771   4.883   2.663  0.1555 -0.6242 -0.9176
   90MOL   O30736085   3.861   4.883   2.770 -0.1511  0.0553  0.3030
   90MOL   C30836086   3.840   4.967   2.882 -0.3205 -0.4104 -0.4833
   90MOL   C30936087   3.822   4.850   2.536 -0.2394  0.0094 -0.3321
   90MOL   C31036088   3.735   4.846   2.425  0.0647  0.0986  0.1756
   90MOL   C31136089   3.429   4.756   2.307  0.0170 -0.7506  0.5357
   90MOL   H31236090   3.585   4.878   2.229 -0.7446 -0.1726 -0.1860
   90MOL   H31336091   3.452   4.958   2.581 -0.1546 -0.9480 -0.5936
   90MOL   H31436092   3.608   4.954   2.778  0.8484 -1.2017  0.6949
   90MOL   H31536093   3.936   4.987   2.929 -0.6437  0.0150 -0.0049
   90MOL   H31636094   3.782   4.914   2.958 -0.2660 -3.2576 -2.3311
   90MOL   H31736095   3.800   5.066   2.861  0.3459 -0.1245 -0.4143
   90MOL   H31836096   3.923   4.822   2.513  0.3840  1.9242 -0.0398
   90MOL   H31936097   3.773   4.830   2.325 -0.8004  2.6414 -0.5787
   90MOL   H32036098   3.347   4.778   2.239 -0.1986  1.1244  1.3674
   90MOL   H32136099   3.366   4.750   2.395 -2.3166  0.2798 -1.0241
   90MOL   C32236100   3.502   4.622   2.282 -0.3552  0.4188 -0.1686
   90MOL   C32336101   3.413   4.523   2.211 -0.9267  0.5098 -0.4871
   90MOL   C32436102   3.298   4.482   2.281  0.1912  0.2035  0.4256
   90MOL   C32536103   3.213   4.386   2.220 -0.3667  1.1971 -0.9871
   90MOL   C32636104   3.247   4.324   2.099  0.3548  0.3972 -0.3123
   90MOL   O32736105   3.166   4.220   2.052  0.0746 -0.1826  0.2678
   90MOL   C32836106   3.224   4.110   1.992 -0.0708  0.0909 -0.0600
   90MOL   C32936107   3.364   4.366   2.032 -0.3264  0.2614  0.5471
   90MOL   C33036108   3.445   4.463   2.089  0.7212 -0.3679 -0.2470
   90MOL   C33136109   3.571   4.557   2.409 -0.0260 -0.3951 -0.1426
   90MOL   H33236110   3.577   4.641   2.205  1.4148 -1.2843  1.0814
   90MOL   H33336111   3.271   4.534   2.372  0.9348 -1.8374  1.8532
   90MOL   H33436112   3.129   4.343   2.273  0.0854 -0.4747 -1.5901
   90MOL   H33536113   3.220   4.124   1.884 -0.1414 -2.2281 -0.3806
   90MOL   H33636114   3.171   4.019   2.018  0.5398 -0.8125 -1.9254
   90MOL   H33736115   3.324   4.099   2.034  0.0444  0.0117 -0.3529
   90MOL   H33836116   3.402   4.327   1.938  0.1570  2.0752 -0.0369
   90MOL   H33936117   3.535   4.486   2.034  0.8099  0.2635  0.1546
   90MOL   H34036118   3.634   4.628   2.462 -0.2407  0.1300 -0.5818
   90MOL   H34136119   3.486   4.525   2.469 -1.3197 -0.1151 -1.7829
   90MOL   C34236120   3.666   4.439   2.374 -0.6139  0.3653  0.1318
   90MOL   C34336121   3.670   4.339   2.488  0.6491 -0.5397  0.1323
   90MOL   C34436122   3.630   4.204   2.468  0.2330 -0.6128  0.5610
   90MOL   C34536123   3.627   4.114   2.575  0.2166 -0.2285  0.4758
   90MOL   C34636124   3.646   4.165   2.703 -0.2425  0.2962 -1.2315
   90MOL   O34736125   3.646   4.068   2.806 -0.2569 -0.0132 -0.6259
   90MOL   C34836126   3.723   4.100   2.919  0.1406 -0.0729  0.4458
   90MOL   C34936127   3.691   4.302   2.726  0.0203  0.5143  0.3650
   90MOL   C35036128   3.705   4.387   2.616 -0.3588 -0.1064  0.3309
   90MOL   C35136129   3.810   4.489   2.339  0.8396 -0.2804 -0.3052
   90MOL   H35236130   3.637   4.382   2.285  1.8630 -0.7515 -0.0056
   90MOL   H35336131   3.600   4.176   2.369  0.3671  0.4081  0.2232
   90MOL   H35436132   3.595   4.011   2.566  1.8053 -0.8208  1.3210
   90MOL   H35536133   3.828   4.128   2.907 -0.0309 -0.0143 -0.9855
   90MOL   H35636134   3.683   4.183   2.977  2.4885  1.0942  0.4504
   90MOL   H35736135   3.728   4.009   2.978  0.0459  0.5913  1.4866
   90MOL   H35836136   3.715   4.334   2.826  0.7772 -0.6591  0.5677
   90MOL   H35936137   3.731   4.491   2.624  0.2767 -0.2835  0.5256
   90MOL   H36036138   3.807   4.561   2.257 -0.1396 -1.0888 -0.9854
   90MOL   H36136139   3.843   4.552   2.421 -1.4753 -1.1112  1.3001
   90MOL   C36236140   3.916   4.387   2.304  0.0016 -0.2885 -0.0484
   90MOL   C36336141   3.879   4.299   2.184 -0.6107  0.6223  0.1669
   90MOL   C36436142   3.852   4.159   2.191 -0.5010 -0.8213 -0.3393
   90MOL   C36536143   3.824   4.077   2.084 -0.4915  0.4295  0.0128
   90MOL   C36636144   3.803   4.136   1.962  0.6689 -0.6791  0.8092
   90MOL   O36736145   3.765   4.070   1.849 -0.6595  0.6981 -0.1590
   90MOL   C36836146   3.684   3.956   1.872  0.2157 -0.2854 -0.2861
   90MOL   C36936147   3.822   4.277   1.946 -0.9255  0.2472 -0.0174
   90MOL   C37036148   3.854   4.356   2.062 -0.3019 -0.3019 -0.0285
   90MOL   C37136149   3.986   4.307   2.416 -0.2583  0.1673  0.1707
   90MOL   H37236150   3.997   4.442   2.258 -0.3770  1.4201  1.2989
   90MOL   H37336151   3.877   4.114   2.286 -1.8571  2.5896  1.7136
   90MOL   H37436152   3.831   3.971   2.104 -0.1157  0.6117  0.8525
   90MOL   H37536153   3.601   3.976   1.804  1.8412  3.1717 -1.3146
   90MOL   H37636154   3.741   3.868   1.844 -1.4285 -0.6562 -2.5994
   90MOL   H37736155   3.641   3.958   1.973 -1.0737  2.3858 -0.8643
   90MOL   H37836156   3.807   4.321   1.848  1.0453  1.0729  0.0147
   90MOL   H37936157   3.870   4.462   2.046 -1.5637 -0.3469 -1.6971
   90MOL   H38036158   3.917   4.238   2.464 -0.3497 -0.2531 -0.5534
   90MOL   H38136159   4.063   4.236   2.387  1.5196  1.3513  1.8451
   90MOL   C38236160   4.051   4.405   2.522 -0.4543  0.5281  0.1092
   90MOL   C38336161   4.130   4.522   2.476  0.1922  0.1299 -1.2395
   90MOL   C38436162   4.127   4.639   2.558 -0.5431 -0.1358  0.2741
   90MOL   C38536163   4.215   4.747   2.540  0.3212  0.1347  0.5815
   90MOL   C38636164   4.298   4.745   2.424  0.0485 -0.5111 -0.5091
   90MOL   O38736165   4.375   4.861   2.401 -0.2861 -0.5256 -0.2250
   90MOL   C38836166   4.469   4.861   2.291 -0.0778  0.1021 -0.7812
   90MOL   C38936167   4.297   4.631   2.342 -0.3459 -0.0674 -0.6234
   90MOL   C39036168   4.219   4.517   2.372 -1.0634 -0.2034 -0.4011
   90MOL   C39136169   4.130   4.326   2.630 -0.2351 -0.3189  0.2590
   90MOL   H39236170   3.963   4.450   2.569  0.8561  3.6977 -0.3551
   90MOL   H39336171   4.055   4.638   2.638  0.3194  0.0474  1.0530
   90MOL   H39436172   4.213   4.830   2.609 -0.5528  1.4809 -1.0452
   90MOL   H39536173   4.422   4.863   2.193  0.2126  1.7091 -0.9029
   90MOL   H39636174   4.535   4.775   2.302 -0.9307 -0.5060 -0.3361
   90MOL   H39736175   4.521   4.954   2.315 -3.5413  1.3505  2.3166
   90MOL   H39836176   4.359   4.609   2.256  1.5196  0.3756  0.5812
   90MOL   H39936177   4.230   4.437   2.300 -1.1594 -1.6088  1.1232
   90MOL   H40036178   4.148   4.386   2.719  2.1174 -0.4162 -0.1094
   90MOL   H40136179   4.229   4.298   2.593 -0.4347 -0.2329 -0.3471
   90MOL   H40236180   4.078   4.235   2.660 -0.1250 -0.4057  0.1881
   91MOL     C136181   2.528   3.240   0.707  0.2501  0.2358 -0.3901
   91MOL     C236182   2.571   3.093   0.714  0.3011 -0.9366  0.2639
   91MOL     C336183   2.517   3.006   0.618  0.4608  0.3627  0.8003
   91MOL     C436184   2.539   2.867   0.625  0.2284  0.4292  0.4664
   91MOL     C536185   2.627   2.822   0.727  0.0843  0.2381 -0.0683
   91MOL     O636186   2.657   2.697   0.745 -0.2370 -0.4404 -0.3306
   91MOL     C736187   2.642   2.609   0.637 -0.2340  0.2294  0.4232
   91MOL     C836188   2.693   2.910   0.819  0.7628 -0.6472  0.0575
   91MOL     C936189   2.661   3.049   0.814 -0.1540  0.2235  0.3477
   91MOL    C1036190   2.645   3.336   0.674  0.2227  0.5102  0.0314
   91MOL    H1136191   2.480   3.272   0.799  1.3114 -0.6566  0.4898
   91MOL    H1236192   2.459   3.035   0.532  1.2635  1.5678  0.6584
   91MOL    H1336193   2.489   2.806   0.552  1.8890 -1.4080  0.8135
   91MOL    H1436194   2.536   2.592   0.620 -0.6394  1.4220  1.7010
   91MOL    H1536195   2.689   2.632   0.541 -1.8954  1.2557 -0.1762
   91MOL    H1636196   2.678   2.508   0.659  0.9175  0.4908 -0.2428
   91MOL    H1736197   2.754   2.863   0.895  0.8672  0.3010  0.5704
   91MOL    H1836198   2.696   3.112   0.894 -1.3208  2.2110 -0.6751
   91MOL    H1936199   2.738   3.317   0.728  0.7439  1.4437 -0.5094
   91MOL    H2036200   2.671   3.316   0.570 -0.8392  1.6415 -0.4606
   91MOL    H2136201   2.452   3.256   0.630  0.2729 -0.6801 -0.6118
   91MOL    C2236202   2.599   3.488   0.681 -0.3002  0.0761 -0.3625
   91MOL    C2336203   2.558   3.530   0.828  0.3312 -0.2348  0.5923
   91MOL    C2436204   2.644   3.524   0.939 -0.0667 -0.0212  0.4508
   91MOL    C2536205   2.607   3.574   1.067  0.5290  0.1949 -0.6807
   91MOL    C2636206   2.476   3.621   1.092  0.3058  0.3076  0.8601
   91MOL    O2736207   2.436   3.655   1.221 -0.2595 -0.7103  0.6690
   91MOL    C2836208   2.299   3.695   1.256  0.6435  0.7992 -0.0266
   91MOL    C2936209   2.389   3.631   0.982  0.1969  0.0640 -0.0892
   91MOL    C3036210   2.428   3.578   0.853 -0.0905  0.3564 -0.7636
   91MOL    C3136211   2.699   3.585   0.624 -0.3439  0.4177 -0.2681
   91MOL    H3236212   2.506   3.505   0.627 -1.4853 -2.3869  0.8358
   91MOL    H3336213   2.742   3.489   0.908 -0.6377 -0.5274 -0.8166
   91MOL    H3436214   2.673   3.575   1.152 -1.2427 -3.5414  0.8321
   91MOL    H3536215   2.267   3.790   1.212 -0.2104  1.2479  1.4905
   91MOL    H3636216   2.302   3.687   1.365 -1.0875  2.0413  0.1412
   91MOL    H3736217   2.228   3.623   1.215  1.5622  0.5269 -1.1542
   91MOL    H3836218   2.286   3.661   0.998  1.0991  2.7221  1.0429
   91MOL    H3936219   2.348   3.561   0.782 -1.7290  0.4544  1.0012
   91MOL    H4036220   2.800   3.548   0.643 -0.1686  0.9844 -0.0826
   91MOL    H4136221   2.690   3.573   0.516 -0.0146  2.1022 -0.5044
   91MOL    C4236222   2.693   3.739   0.669 -0.7207  0.6832  0.0083
   91MOL    C4336223   2.562   3.810   0.646  0.0109 -0.0772 -0.6040
   91MOL    C4436224   2.511   3.891   0.749 -0.5096  0.3663 -0.4249
   91MOL    C4536225   2.395   3.965   0.723  0.1118 -1.0069  0.3809
   91MOL    C4636226   2.311   3.939   0.608  0.0252 -0.3338  0.0199
   91MOL    O4736227   2.198   4.015   0.583 -0.1304  0.4253  0.5657
   91MOL    C4836228   2.112   4.045   0.685 -0.0473  0.3724 -0.7477
   91MOL    C4936229   2.370   3.856   0.500 -0.2087 -0.2622  0.2639
   91MOL    C5036230   2.493   3.789   0.526 -0.4242  0.2575  0.7861
   91MOL    C5136231   2.805   3.829   0.612  0.8555 -0.4808 -0.6396
   91MOL    H5236232   2.714   3.738   0.776 -0.7126  2.2424  0.0202
   91MOL    H5336233   2.567   3.926   0.835 -0.5351 -1.4657  0.3505
   91MOL    H5436234   2.376   4.042   0.796  1.3150  0.3889 -0.7440
   91MOL    H5536235   2.013   4.028   0.644  0.0772 -0.1315 -0.8469
   91MOL    H5636236   2.133   3.996   0.780 -0.9675  3.4695  1.0955
   91MOL    H5736237   2.108   4.153   0.701 -0.4015  0.5223 -1.7866
   91MOL    H5836238   2.316   3.841   0.407  0.6604  3.8386 -0.9926
   91MOL    H5936239   2.540   3.722   0.454  0.5774  1.7098  0.0586
   91MOL    H6036240   2.795   3.931   0.649  0.6343  0.0874 -2.2338
   91MOL    H6136241   2.790   3.830   0.504 -0.5432 -0.8562 -0.4531
   91MOL    C6236242   2.954   3.786   0.635  0.0510 -0.4965 -0.1682
   91MOL    C6336243   2.972   3.731   0.780 -0.5359  0.2363  0.4484
   91MOL    C6436244   2.925   3.803   0.895 -0.1994 -0.4727 -0.2715
   91MOL    C6536245   2.938   3.749   1.025  0.1463  0.2910  0.0112
   91MOL    C6636246   3.010   3.623   1.043 -0.5152  0.6681  0.3809
   91MOL    O6736247   3.037   3.587   1.173 -0.6086  0.0888 -0.3704
   91MOL    C6836248   3.099   3.462   1.199  0.5266  0.3114 -0.1908
   91MOL    C6936249   3.060   3.557   0.931 -0.5391  0.1021 -0.6411
   91MOL    C7036250   3.040   3.610   0.799  0.3290  0.1885  1.1639
   91MOL    C7136251   3.051   3.897   0.587  0.8084  0.6670 -0.2893
   91MOL    H7236252   2.977   3.697   0.576 -1.7036 -2.1688  1.5686
   91MOL    H7336253   2.868   3.893   0.878  0.0340 -0.2285  0.2362
   91MOL    H7436254   2.905   3.798   1.116  0.1976 -0.9951  0.7260
   91MOL    H7536255   3.086   3.442   1.305 -0.6676  0.4633 -0.3022
   91MOL    H7636256   3.205   3.463   1.174  0.6232  1.1309  0.2544
   91MOL    H7736257   3.047   3.388   1.138  1.0803  0.6335 -1.0713
   91MOL    H7836258   3.117   3.465   0.937 -3.2842 -1.7819 -2.1677
   91MOL    H7936259   3.089   3.553   0.721  1.5903 -0.7311  2.5977
   91MOL    H8036260   3.042   3.921   0.481  0.2973  0.8760 -0.2018
   91MOL    H8136261   3.014   3.991   0.627  1.8493  0.1720  1.9024
   91MOL    C8236262   3.199   3.880   0.631 -0.1172 -0.6005  0.3607
   91MOL    C8336263   3.294   3.943   0.528  0.3662  0.5078 -0.8828
   91MOL    C8436264   3.416   3.880   0.514  0.9058  0.0240 -0.4235
   91MOL    C8536265   3.512   3.940   0.431  0.0086 -0.1254 -0.0087
   91MOL    C8636266   3.482   4.057   0.358  0.3328 -0.0283  0.0764
   91MOL    O8736267   3.572   4.133   0.281  0.3335 -0.0857  0.4003
   91MOL    C8836268   3.711   4.092   0.279 -0.2424 -0.2767  0.4810
   91MOL    C8936269   3.353   4.113   0.370 -0.0245  0.5173  0.1618
   91MOL    C9036270   3.263   4.061   0.463 -0.0342  0.4603 -0.4509
   91MOL    C9136271   3.223   3.948   0.766  0.6265  0.2462 -0.5113
   91MOL    H9236272   3.220   3.775   0.648  0.8884 -0.5543 -0.5648
   91MOL    H9336273   3.444   3.796   0.576 -1.4476 -0.7794 -0.4138
   91MOL    H9436274   3.615   3.908   0.437  0.2247  0.8282  1.5469
   91MOL    H9536275   3.766   4.155   0.209  2.8482 -1.0205  2.1303
   91MOL    H9636276   3.715   3.989   0.243 -1.9941  0.1258 -0.9255
   91MOL    H9736277   3.762   4.094   0.375  0.1463 -0.7213  0.2827
   91MOL    H9836278   3.332   4.209   0.325 -0.6760  0.6998  0.8437
   91MOL    H9936279   3.174   4.117   0.489  0.1769 -0.4228  2.3892
   91MOL   H10036280   3.201   4.054   0.754  0.7870  0.1712 -1.5081
   91MOL   H10136281   3.141   3.927   0.835  0.6929  0.3894 -0.3898
   91MOL   C10236282   3.358   3.918   0.836 -0.2367  1.0778  0.0353
   91MOL   C10336283   3.378   4.033   0.934  0.1938  0.0494 -0.4329
   91MOL   C10436284   3.479   4.127   0.922 -0.6858  0.4615 -1.0056
   91MOL   C10536285   3.494   4.235   1.013 -0.4720  0.2996  0.3722
   91MOL   C10636286   3.405   4.242   1.121  0.0841  0.4682  0.6840
   91MOL   O10736287   3.417   4.348   1.212  0.7220  0.1769  0.7828
   91MOL   C10836288   3.543   4.402   1.240  0.5349 -0.1912 -0.0984
   91MOL   C10936289   3.309   4.145   1.142  0.4702 -0.3413 -0.8181
   91MOL   C11036290   3.296   4.038   1.053  0.4624 -0.3377  0.4490
   91MOL   C11136291   3.368   3.771   0.881  0.1823  0.0901 -0.0473
   91MOL   H11236292   3.439   3.936   0.766 -1.4041  1.4752 -1.2454
   91MOL   H11336293   3.549   4.129   0.839 -0.3912 -0.9274 -0.8077
   91MOL   H11436294   3.576   4.304   1.003  0.7189 -1.2031 -0.3868
   91MOL   H11536295   3.624   4.332   1.257  1.2971  1.3809  3.2149
   91MOL   H11636296   3.566   4.486   1.174 -1.3332  1.9969  1.9202
   91MOL   H11736297   3.535   4.443   1.341  0.6613  1.3931 -0.7025
   91MOL   H11836298   3.241   4.142   1.225  0.8437 -1.7897 -0.5404
   91MOL   H11936299   3.221   3.964   1.073 -1.1257  1.3429  0.8378
   91MOL   H12036300   3.274   3.734   0.922 -1.1905  2.7773 -0.6975
   91MOL   H12136301   3.403   3.707   0.799  2.1980 -0.3855  1.1367
   91MOL   C12236302   3.463   3.749   1.002 -0.6832 -0.7966  0.1393
   91MOL   C12336303   3.604   3.791   0.971  0.2130  0.2361 -0.1355
   91MOL   C12436304   3.668   3.745   0.855  0.5821 -0.0039  0.0282
   91MOL   C12536305   3.800   3.779   0.833 -0.4281 -0.0329 -0.4025
   91MOL   C12636306   3.873   3.854   0.931 -0.4694 -0.0409 -0.0950
   91MOL   O12736307   4.001   3.903   0.920 -0.5088 -0.2532 -0.1288
   91MOL   C12836308   4.085   3.855   0.820 -0.0344  0.2776 -0.1894
   91MOL   C12936309   3.811   3.892   1.045 -0.2313  0.3689 -0.1008
   91MOL   C13036310   3.674   3.871   1.062 -0.2543 -0.2185 -0.1875
   91MOL   C13136311   3.459   3.610   1.067 -1.3205  0.4548  0.4555
   91MOL   H13236312   3.432   3.819   1.079  0.2208 -0.5529  0.2939
   91MOL   H13336313   3.623   3.683   0.778 -0.8887  1.3638 -0.2467
   91MOL   H13436314   3.844   3.726   0.750 -0.7892  0.5525 -0.9755
   91MOL   H13536315   4.184   3.890   0.850  0.2831 -0.6187 -0.1607
   91MOL   H13636316   4.084   3.747   0.807  0.7754  0.5036 -2.4128
   91MOL   H13736317   4.063   3.905   0.726  1.6304  3.7661  1.1984
   91MOL   H13836318   3.864   3.950   1.119  0.6573 -2.9489  1.9663
   91MOL   H13936319   3.622   3.903   1.152  0.8630  0.7538  0.1277
   91MOL   H14036320   3.486   3.531   0.996  2.3084  1.3525  0.7422
   91MOL   H14136321   3.353   3.590   1.078 -1.0046 -2.7808 -1.4874
   91MOL   C14236322   3.537   3.590   1.204 -0.4286 -0.4279 -0.2536
   91MOL   C14336323   3.504   3.700   1.306  0.2065  0.6357  0.0049
   91MOL   C14436324   3.601   3.748   1.394 -0.1024 -0.1080 -0.2965
   91MOL   C14536325   3.570   3.853   1.482  0.4285 -0.1936  0.9340
   91MOL   C14636326   3.444   3.909   1.503  0.1693  0.4057 -0.1036
   91MOL   O14736327   3.428   4.017   1.588  0.5886  0.1749  0.0663
   91MOL   C14836328   3.310   4.090   1.584  0.1709  0.3347 -0.7300
   91MOL   C14936329   3.342   3.854   1.417 -0.3137 -0.7198  0.0012
   91MOL   C15036330   3.370   3.750   1.319 -0.4470 -0.1816 -0.4245
   91MOL   C15136331   3.528   3.444   1.266  0.0546  0.3940  0.2428
   91MOL   H15236332   3.640   3.608   1.174 -0.8320  1.2123 -0.6792
   91MOL   H15336333   3.703   3.711   1.386  1.0072  2.7538  0.1033
   91MOL   H15436334   3.652   3.889   1.543 -0.1983  0.5714  1.3354
   91MOL   H15536335   3.336   4.161   1.662 -0.6282 -2.1628  1.8861
   91MOL   H15636336   3.296   4.142   1.489 -1.8950 -0.1318 -0.6971
   91MOL   H15736337   3.218   4.035   1.605 -0.1447  1.2564  0.3379
   91MOL   H15836338   3.246   3.903   1.426 -0.3334 -1.0366  1.6518
   91MOL   H15936339   3.293   3.711   1.254 -0.2387  0.4414 -1.0559
   91MOL   H16036340   3.430   3.416   1.229  0.4837  0.5579 -1.0403
   91MOL   H16136341   3.518   3.451   1.375 -2.5418  2.6002 -0.0917
   91MOL   C16236342   3.642   3.355   1.211  0.3628  1.3316  0.1502
   91MOL   C16336343   3.597   3.210   1.214 -0.1406  0.0792  0.5197
   91MOL   C16436344   3.514   3.162   1.321  0.1701  0.1969  0.3236
   91MOL   C16536345   3.485   3.029   1.326  0.3984  0.8954  0.0228
   91MOL   C16636346   3.514   2.944   1.219  0.5743 -0.3961 -0.2800
   91MOL   O16736347   3.472   2.811   1.233  0.2601  0.2844  0.5954
   91MOL   C16836348   3.492   2.726   1.125 -0.0397  0.3818 -0.2950
   91MOL   C16936349   3.581   2.990   1.105 -0.4897  0.0644 -0.4872
   91MOL   C17036350   3.628   3.125   1.106  0.0556 -0.0755 -0.1253
   91MOL   C17136351   3.775   3.377   1.279 -0.4581 -0.0518  0.3434
   91MOL   H17236352   3.657   3.370   1.105 -0.9783 -0.0467 -0.2553
   91MOL   H17336353   3.489   3.224   1.406 -2.1470  1.2608 -1.0694
   91MOL   H17436354   3.440   2.982   1.412 -0.1089  0.5125 -0.4507
   91MOL   H17536355   3.449   2.747   1.026 -0.8313 -1.3236 -0.3307
   91MOL   H17636356   3.458   2.624   1.138 -1.7556  0.7240 -1.8650
   91MOL   H17736357   3.600   2.713   1.114 -0.0886 -0.8433  0.6367
   91MOL   H17836358   3.617   2.924   1.027 -1.5519  0.4227 -1.2970
   91MOL   H17936359   3.684   3.159   1.019  1.0411  0.2076  0.6123
   91MOL   H18036360   3.760   3.335   1.378  0.4595 -0.6285  0.2455
   91MOL   H18136361   3.793   3.484   1.284 -0.8461  0.0270  0.0857
   91MOL   C18236362   3.898   3.305   1.211  0.4574  0.0099 -0.4521
   91MOL   C18336363   4.018   3.312   1.305  0.1387  0.3261 -0.0175
   91MOL   C18436364   4.074   3.193   1.348 -0.3010  0.3931  0.2835
   91MOL   C18536365   4.198   3.185   1.419  0.8770  0.1647 -0.7664
   91MOL   C18636366   4.267   3.302   1.451 -0.7024 -1.0899  0.5056
   91MOL   O18736367   4.373   3.292   1.536  0.6421  0.2001  0.0056
   91MOL   C18836368   4.401   3.403   1.627 -0.7405 -0.3307 -0.8138
   91MOL   C18936369   4.212   3.426   1.405 -0.5724  0.6754 -0.1296
   91MOL   C19036370   4.086   3.429   1.345 -0.2524  0.4937  0.4501
   91MOL   C19136371   3.935   3.348   1.069  0.0292  0.1812 -0.0393
   91MOL   H19236372   3.859   3.203   1.218 -1.5790  0.7016 -1.4979
   91MOL   H19336373   4.032   3.094   1.332  0.1681  0.0063  1.4043
   91MOL   H19436374   4.231   3.090   1.459 -0.6272 -0.7098 -1.5571
   91MOL   H19536375   4.344   3.401   1.719 -0.6234  1.8391 -0.6671
   91MOL   H19636376   4.402   3.500   1.577  0.2914 -0.0366 -0.2382
   91MOL   H19736377   4.503   3.387   1.664 -0.6070  2.2155  0.0384
   91MOL   H19836378   4.263   3.520   1.419 -1.7773  1.6271 -1.9541
   91MOL   H19936379   4.042   3.526   1.325  0.7310  1.0918  1.1283
   91MOL   H20036380   3.855   3.342   0.995 -0.2246  2.1668  0.0358
   91MOL   H20136381   3.952   3.455   1.084 -0.2921  0.1372  0.6426
   91MOL   C20236382   4.050   3.270   1.007 -0.1408  1.0483  0.1616
   91MOL   C20336383   4.113   3.359   0.903 -0.6618 -0.6547  0.1484
   91MOL   C20436384   4.240   3.421   0.926  0.1021  0.2507 -0.2131
   91MOL   C20536385   4.301   3.508   0.833 -0.7988  0.2958  0.7915
   91MOL   C20636386   4.240   3.532   0.708  0.2632 -0.2449 -0.4089
   91MOL   O20736387   4.285   3.616   0.601 -0.7350  0.2133 -0.1744
   91MOL   C20836388   4.411   3.678   0.606  0.4615 -0.1070 -0.0617
   91MOL   C20936389   4.121   3.464   0.684  1.2320  0.2017 -0.3212
   91MOL   C21036390   4.051   3.389   0.781  0.1344 -0.2783  0.7514
   91MOL   C21136391   4.006   3.132   0.952  0.2342 -0.4058  0.7033
   91MOL   H21236392   4.121   3.251   1.087  0.0166 -1.8381 -0.5927
   91MOL   H21336393   4.291   3.419   1.022  0.1964  0.0694 -0.2663
   91MOL   H21436394   4.387   3.567   0.858  0.3015 -1.8722  2.3781
   91MOL   H21536395   4.427   3.736   0.697  1.7438  2.3263 -1.7681
   91MOL   H21636396   4.499   3.616   0.593  1.6958  1.7229 -0.6671
   91MOL   H21736397   4.423   3.759   0.534  0.2150  1.3818  1.5152
   91MOL   H21836398   4.071   3.493   0.593 -0.8406  1.3476  1.1212
   91MOL   H21936399   3.950   3.358   0.758  0.2437 -2.4934  3.0645
   91MOL   H22036400   4.004   3.127   0.843  0.8349  0.3273  0.6548
   91MOL   H22136401   3.908   3.107   0.993 -0.6068  1.3272 -0.2146
   91MOL   C22236402   4.100   3.022   1.002 -0.1538 -0.3675 -0.6055
   91MOL   C22336403   4.030   2.887   1.034  0.1867 -0.3363 -0.3712
   91MOL   C22436404   3.946   2.875   1.149  0.0531  0.2693  0.0200
   91MOL   C22536405   3.881   2.751   1.176  0.9991 -0.2255  0.4664
   91MOL   C22636406   3.906   2.637   1.100 -0.1515 -0.1187  0.2498
   91MOL   O22736407   3.850   2.516   1.122  0.1493  0.5094  0.2041
   91MOL   C22836408   3.761   2.499   1.228 -0.1305  0.0170 -0.6267
   91MOL   C22936409   3.991   2.645   0.988 -0.5767 -0.0431 -0.1007
   91MOL   C23036410   4.043   2.771   0.951  0.6083  0.4044 -0.1355
   91MOL   C23136411   4.234   3.016   0.922 -0.2246  0.2685  0.3086
   91MOL   H23236412   4.119   3.048   1.106 -0.1118  0.3527 -0.7891
   91MOL   H23336413   3.923   2.962   1.208 -0.0148  0.2973 -0.0487
   91MOL   H23436414   3.815   2.755   1.262  2.1293  0.8294  1.3198
   91MOL   H23536415   3.768   2.399   1.269 -0.7380  0.1323 -0.2307
   91MOL   H23636416   3.792   2.556   1.315  0.1710  0.5301 -1.0647
   91MOL   H23736417   3.657   2.509   1.197 -0.6274 -0.3729  0.8726
   91MOL   H23836418   4.001   2.557   0.925 -1.0751 -0.0960 -0.1109
   91MOL   H23936419   4.094   2.784   0.856 -0.8767  0.4671 -0.9468
   91MOL   H24036420   4.214   2.988   0.818 -0.0015  0.2862  0.2595
   91MOL   H24136421   4.276   3.117   0.913 -0.2206  0.4608  2.2560
   91MOL   C24236422   4.348   2.934   0.972 -0.7153  0.0796  0.2498
   91MOL   C24336423   4.443   2.898   0.859  0.4419  0.0348 -0.1379
   91MOL   C24436424   4.448   2.761   0.822 -0.3748  0.0538  0.6408
   91MOL   C24536425   4.536   2.726   0.719 -0.8742 -0.3946 -0.1783
   91MOL   C24636426   4.609   2.824   0.647  0.2828 -0.1003  0.0680
   91MOL   O24736427   4.680   2.779   0.537 -0.6979  0.1222 -0.0359
   91MOL   C24836428   4.709   2.865   0.433 -0.0844  0.4638  0.6219
   91MOL   C24936429   4.591   2.959   0.684  0.3196 -0.3417  0.4913
   91MOL   C25036430   4.518   2.996   0.793 -0.3952  0.0748  0.1719
   91MOL   C25136431   4.417   2.980   1.106  0.6404 -0.8827  0.0249
   91MOL   H25236432   4.305   2.838   0.999  1.4510 -0.9659  0.0782
   91MOL   H25336433   4.374   2.690   0.857 -2.0477 -0.3785 -3.4557
   91MOL   H25436434   4.532   2.621   0.695 -1.2643 -0.1938 -1.0021
   91MOL   H25536435   4.763   2.799   0.365 -1.3689 -1.5062  1.4633
   91MOL   H25636436   4.631   2.906   0.369 -0.0497 -0.4569 -0.0172
   91MOL   H25736437   4.764   2.952   0.470 -0.8535  1.5079 -0.6683
   91MOL   H25836438   4.642   3.043   0.638  1.5654 -1.1933  0.2851
   91MOL   H25936439   4.514   3.102   0.813 -0.7162  0.3170 -1.1568
   91MOL   H26036440   4.336   3.024   1.164  0.9598 -0.7601  0.3822
   91MOL   H26136441   4.472   3.073   1.095  1.5156 -1.1030  2.3818
   91MOL   C26236442   4.490   2.878   1.194 -0.3195  0.1695 -0.1184
   91MOL   C26336443   4.413   2.757   1.225  0.8743  0.2981 -0.3200
   91MOL   C26436444   4.291   2.773   1.295  0.3971 -0.1119 -0.1257
   91MOL   C26536445   4.211   2.661   1.335 -0.1763 -0.2047  0.0739
   91MOL   C26636446   4.256   2.527   1.295  0.3975  0.4693  0.2684
   91MOL   O26736447   4.191   2.408   1.320 -0.3673 -0.4669  0.4869
   91MOL   C26836448   4.093   2.414   1.429  0.1229 -0.7723 -0.3572
   91MOL   C26936449   4.372   2.511   1.211  0.2517  0.3298  0.2590
   91MOL   C27036450   4.452   2.627   1.180 -0.0909 -0.0737  0.1549
   91MOL   C27136451   4.552   2.950   1.319 -0.7547  0.2670 -0.1400
   91MOL   H27236452   4.577   2.837   1.143 -0.1588 -1.7985  1.6820
   91MOL   H27336453   4.261   2.873   1.325  0.6106  0.4576 -1.7841
   91MOL   H27436454   4.118   2.671   1.388 -1.6277 -1.9915 -2.0411
   91MOL   H27536455   4.080   2.315   1.474 -1.2792  0.8660  2.9951
   91MOL   H27636456   4.000   2.467   1.408  0.0258 -0.5405  0.6449
   91MOL   H27736457   4.149   2.464   1.509 -0.0691 -2.8963  1.1484
   91MOL   H27836458   4.396   2.418   1.163  0.1896  0.1023  0.6702
   91MOL   H27936459   4.538   2.611   1.117  0.7317  0.4074  1.1349
   91MOL   H28036460   4.475   3.015   1.360 -0.6324 -1.4079  2.8542
   91MOL   H28136461   4.576   2.880   1.400  1.6845  1.9578  0.6495
   91MOL   C28236462   4.677   3.042   1.291 -0.0389  0.5318  0.6609
   91MOL   C28336463   4.808   2.970   1.247  0.6781  0.9859 -0.4106
   91MOL   C28436464   4.847   2.853   1.311 -0.3891 -0.0587 -0.5746
   91MOL   C28536465   4.957   2.776   1.270  0.0620 -0.3040  1.1405
   91MOL   C28636466   5.031   2.820   1.156  0.2513 -0.3603 -0.1668
   91MOL   O28736467   5.145   2.750   1.127  0.4376  0.8716  0.0569
   91MOL   C28836468   5.225   2.781   1.013 -0.4726  0.0853 -0.8533
   91MOL   C28936469   4.985   2.929   1.083  1.0347 -0.5807  0.1354
   91MOL   C29036470   4.873   3.008   1.128 -0.4290  0.7124 -0.0132
   91MOL   C29136471   4.698   3.139   1.409 -0.6400  0.5289 -0.5735
   91MOL   H29236472   4.666   3.115   1.211 -0.0184  1.1343  1.2050
   91MOL   H29336473   4.783   2.819   1.391  2.1154  1.6261  2.2155
   91MOL   H29436474   4.995   2.687   1.319 -2.0573 -2.4211 -0.9325
   91MOL   H29536475   5.166   2.750   0.927  1.9600  0.4647 -2.6803
   91MOL   H29636476   5.247   2.888   1.005 -0.6909  0.3262  1.3153
   91MOL   H29736477   5.314   2.718   1.014 -1.1298 -0.9383  3.2782
   91MOL   H29836478   5.031   2.955   0.988  1.1203 -0.6436  0.1594
   91MOL   H29936479   4.838   3.091   1.068  1.5100  4.0800  3.2907
   91MOL   H30036480   4.599   3.158   1.452  0.6274  2.6188  1.5086
   91MOL   H30136481   4.752   3.075   1.479  0.0050  0.1577 -1.4073
   91MOL   C30236482   4.780   3.268   1.384  0.6223 -0.7543  0.3640
   91MOL   C30336483   4.728   3.343   1.264 -0.0716 -0.2214 -0.5182
   91MOL   C30436484   4.825   3.395   1.172 -0.3947 -0.1538 -0.1435
   91MOL   C30536485   4.792   3.484   1.068 -0.0719 -0.3032  0.0708
   91MOL   C30636486   4.655   3.523   1.055  0.0347 -0.7864  0.8598
   91MOL   O30736487   4.616   3.609   0.962  0.0157 -0.2374  0.3891
   91MOL   C30836488   4.714   3.700   0.903  0.3707  0.8922  0.3579
   91MOL   C30936489   4.562   3.467   1.141  0.7994 -0.5546 -0.7644
   91MOL   C31036490   4.597   3.380   1.244 -0.0908 -0.6664 -0.8714
   91MOL   C31136491   4.785   3.353   1.516 -0.0763  0.2339 -0.0227
   91MOL   H31236492   4.879   3.228   1.364  0.1049 -1.4187 -0.9027
   91MOL   H31336493   4.931   3.373   1.178  0.7792  5.0236 -0.0681
   91MOL   H31436494   4.874   3.536   1.020  1.1140  0.3178  2.6922
   91MOL   H31536495   4.789   3.652   0.841  1.2963  0.7504  1.5594
   91MOL   H31636496   4.757   3.764   0.979 -0.0384 -0.7330  2.0062
   91MOL   H31736497   4.662   3.777   0.846  0.5636  0.4024 -0.4845
   91MOL   H31836498   4.460   3.488   1.114  0.8017  1.1930  0.4750
   91MOL   H31936499   4.524   3.327   1.303 -1.3233  2.7062  0.7259
   91MOL   H32036500   4.834   3.284   1.584 -0.7100 -0.4573 -0.2676
   91MOL   H32136501   4.689   3.354   1.568 -0.7521 -1.5691 -1.1785
   91MOL   C32236502   4.847   3.492   1.531  0.4575 -0.7705  0.7656
   91MOL   C32336503   4.894   3.524   1.672 -0.2537  0.2194  0.5959
   91MOL   C32436504   4.805   3.536   1.777 -0.0277  0.4045  0.0754
   91MOL   C32536505   4.851   3.581   1.903  0.1099  0.3613 -0.3385
   91MOL   C32636506   4.988   3.600   1.926 -0.1310  0.1978 -0.0525
   91MOL   O32736507   5.038   3.659   2.038  0.0024  0.2564 -0.0418
   91MOL   C32836508   4.995   3.603   2.163  0.3293 -0.4169 -0.1611
   91MOL   C32936509   5.082   3.577   1.821 -0.1754  0.8470 -0.5821
   91MOL   C33036510   5.032   3.532   1.695  0.0716 -0.3110 -0.1246
   91MOL   C33136511   4.747   3.597   1.476  0.8914  0.7822  0.6640
   91MOL   H33236512   4.936   3.498   1.469 -0.6185  2.7995 -0.5475
   91MOL   H33336513   4.699   3.534   1.760 -0.3578  1.1802  1.9467
   91MOL   H33436514   4.788   3.612   1.985  1.7952  1.2100  0.6714
   91MOL   H33536515   5.030   3.669   2.242  0.2913 -1.3537  0.6472
   91MOL   H33636516   5.031   3.501   2.175  0.0157 -0.3432  1.4617
   91MOL   H33736517   4.886   3.606   2.162  0.3689  2.7633 -0.8449
   91MOL   H33836518   5.188   3.590   1.835 -0.5750  1.0724  2.6833
   91MOL   H33936519   5.099   3.512   1.613 -1.7435 -5.4549 -0.4935
   91MOL   H34036520   4.726   3.570   1.372  0.0548  0.1844  0.9843
   91MOL   H34136521   4.655   3.582   1.532 -0.6430  1.7837 -1.5049
   91MOL   C34236522   4.795   3.744   1.479 -0.2872  0.7453  0.2778
   91MOL   C34336523   4.681   3.842   1.432 -0.4903  0.5179 -0.1153
   91MOL   C34436524   4.603   3.827   1.318  0.3111 -0.1800 -0.2170
   91MOL   C34536525   4.509   3.926   1.275 -1.1106  0.4149  0.0853
   91MOL   C34636526   4.486   4.038   1.358  0.0147 -0.4614 -0.4116
   91MOL   O34736527   4.387   4.132   1.348  0.2642 -0.0871 -0.0923
   91MOL   C34836528   4.306   4.134   1.227 -0.6061 -0.3117 -0.6331
   91MOL   C34936529   4.566   4.055   1.474  0.1178 -0.1926 -0.0743
   91MOL   C35036530   4.662   3.956   1.507 -0.2793  0.3530 -0.1294
   91MOL   C35136531   4.921   3.757   1.390 -0.1260  0.3931  0.0251
   91MOL   H35236532   4.825   3.780   1.577 -1.7635 -0.5675  1.2616
   91MOL   H35336533   4.620   3.746   1.249 -0.3586 -0.7720  0.3062
   91MOL   H35436534   4.452   3.904   1.186  0.0190 -0.4776 -0.4287
   91MOL   H35536535   4.243   4.045   1.218 -1.0955 -0.1875  1.2742
   91MOL   H35636536   4.232   4.214   1.229 -0.4688 -0.1692  3.8006
   91MOL   H35736537   4.359   4.146   1.133 -0.9692  1.3058 -0.6343
   91MOL   H35836538   4.530   4.124   1.549 -0.4295  0.8444 -1.2742
   91MOL   H35936539   4.715   3.983   1.597 -0.3872 -1.6058  0.5308
   91MOL   H36036540   4.997   3.688   1.427  1.1058  1.8984  0.3552
   91MOL   H36136541   4.895   3.712   1.294 -2.9651  1.0976  0.4286
   91MOL   C36236542   4.978   3.904   1.374  0.8575  0.6390 -0.0191
   91MOL   C36336543   4.953   3.961   1.232  0.6627 -0.5908  0.4620
   91MOL   C36436544   4.849   4.053   1.203  0.3048  0.1947  0.3685
   91MOL   C36536545   4.819   4.089   1.074  0.1695  0.7690  0.0965
   91MOL   C36636546   4.893   4.029   0.966  0.1675 -0.5549 -0.6415
   91MOL   O36736547   4.853   4.038   0.837  0.1768 -0.1262  0.4397
   91MOL   C36836548   4.749   4.117   0.794 -0.0834  0.0433  0.0730
   91MOL   C36936549   4.998   3.940   0.989 -0.3937  0.3681 -0.1745
   91MOL   C37036550   5.028   3.910   1.122 -0.1758  0.4471  0.6850
   91MOL   C37136551   5.132   3.926   1.406  0.0354 -0.0307  0.0582
   91MOL   H37236552   4.914   3.965   1.438  0.5025 -1.0065  1.2450
   91MOL   H37336553   4.797   4.094   1.288  0.4150  0.5214  0.2809
   91MOL   H37436554   4.737   4.154   1.046  0.7471  1.8298  0.8325
   91MOL   H37536555   4.659   4.107   0.855 -0.9016  1.5623 -0.8644
   91MOL   H37636556   4.777   4.220   0.819  3.1798 -1.2317  1.9101
   91MOL   H37736557   4.724   4.102   0.689 -1.6059  0.3245  0.3752
   91MOL   H37836558   5.054   3.887   0.913  0.8833 -1.1780  1.8081
   91MOL   H37936559   5.106   3.837   1.139 -0.4597 -0.0710 -0.1800
   91MOL   H38036560   5.197   3.852   1.359  1.1047  1.0977 -0.2515
   91MOL   H38136561   5.165   4.016   1.354 -0.8026 -1.3205 -2.7693
   91MOL   C38236562   5.158   3.932   1.562 -0.5055  0.6401  0.1781
   91MOL   C38336563   5.106   4.059   1.624  0.1960  0.8214 -0.0180
   91MOL   C38436564   5.182   4.182   1.613  0.0875 -0.0096  0.0490
   91MOL   C38536565   5.131   4.298   1.666  1.0991 -0.3764 -0.5745
   91MOL   C38636566   5.003   4.295   1.743  0.2824 -0.0364 -1.3832
   91MOL   O38736567   4.959   4.399   1.821  0.4307  0.3666 -0.3024
   91MOL   C38836568   5.026   4.522   1.830 -0.7315 -0.9564 -0.4305
   91MOL   C38936569   4.929   4.176   1.749 -0.7132 -0.2000 -0.4012
   91MOL   C39036570   4.980   4.058   1.690 -0.0836  0.4154 -0.1418
   91MOL   C39136571   5.306   3.893   1.600  0.1202  0.0744  0.4365
   91MOL   H39236572   5.085   3.863   1.603  0.0039  0.7760  1.3157
   91MOL   H39336573   5.281   4.181   1.568  0.3599 -0.1883  0.6498
   91MOL   H39436574   5.188   4.389   1.677  0.5317 -0.2330  1.3929
   91MOL   H39536575   5.049   4.582   1.742 -0.7916 -1.6262 -0.9066
   91MOL   H39636576   5.119   4.512   1.886 -1.7577  1.7835  1.8910
   91MOL   H39736577   4.962   4.583   1.894  3.2309  1.5567  1.3650
   91MOL   H39836578   4.832   4.174   1.796 -0.3210 -1.7913  0.3565
   91MOL   H39936579   4.923   3.966   1.696 -0.4662  0.6150 -0.6839
   91MOL   H40036580   5.324   3.925   1.703 -0.6786 -0.7597  0.8496
   91MOL   H40136581   5.387   3.941   1.547 -1.0357  1.9296  0.3186
   91MOL   H40236582   5.307   3.784   1.602 -0.7365  0.0337 -0.6874
   92MOL     C136583   5.835   2.938   4.394 -0.0998 -0.2956  0.3875
   92MOL     C236584   5.891   2.800   4.363  0.2438  0.4177  0.3660
   92MOL     C336585   6.031   2.775   4.369  0.2629  0.2069 -0.4072
   92MOL     C436586   6.084   2.655   4.321  0.7007  0.3489 -0.0792
   92MOL     C536587   5.989   2.555   4.288 -0.2970 -0.5210  0.1443
   92MOL     O636588   6.038   2.430   4.242 -0.5398  0.6638 -0.4666
   92MOL     C736589   5.945   2.318   4.222  0.3409 -0.1328  0.5057
   92MOL     C836590   5.855   2.577   4.291  0.4018  0.0215  0.0012
   92MOL     C936591   5.801   2.697   4.332 -0.1638  0.3171  0.5599
   92MOL    C1036592   5.789   2.950   4.541  0.0484  0.4306  0.1000
   92MOL    H1136593   5.755   2.954   4.322  1.9634  0.4825 -1.8080
   92MOL    H1236594   6.095   2.860   4.392 -0.7004  1.1080 -1.0091
   92MOL    H1336595   6.191   2.651   4.322  0.6530 -0.8718  0.4523
   92MOL    H1436596   5.904   2.268   4.310 -1.8795 -0.2563 -0.5563
   92MOL    H1536597   5.859   2.346   4.162  0.7178 -1.2835 -0.5725
   92MOL    H1636598   5.985   2.251   4.147  0.9672 -0.6079  1.2557
   92MOL    H1736599   5.783   2.499   4.274  0.0520  0.7585 -2.0273
   92MOL    H1836600   5.693   2.707   4.332 -0.2681 -0.5904 -1.3217
   92MOL    H1936601   5.719   3.031   4.564 -0.2705  0.4440 -0.9019
   92MOL    H2036602   5.733   2.864   4.578  0.2434  0.0801 -0.4194
   92MOL    H2136603   5.898   3.024   4.373 -0.6639 -1.0010 -4.7216
   92MOL    C2236604   5.906   2.975   4.642 -0.2041 -0.1720 -0.8392
   92MOL    C2336605   5.974   3.108   4.606 -0.0270  0.5735 -0.0012
   92MOL    C2436606   6.113   3.106   4.577  0.2690  0.6918 -0.7869
   92MOL    C2536607   6.177   3.221   4.530  0.3716  0.0524  0.0351
   92MOL    C2636608   6.108   3.343   4.507  0.5703  0.2607  0.2334
   92MOL    O2736609   6.182   3.445   4.459  0.1159 -0.2336  0.2763
   92MOL    C2836610   6.107   3.550   4.398 -0.2584  0.0169 -0.1789
   92MOL    C2936611   5.973   3.348   4.547 -0.7104 -0.7305  0.4298
   92MOL    C3036612   5.903   3.233   4.598  0.3871 -0.3617 -1.1140
   92MOL    C3136613   5.868   2.983   4.795 -0.6924  1.0960 -0.2586
   92MOL    H3236614   5.975   2.892   4.626 -0.0798 -0.2348 -0.0175
   92MOL    H3336615   6.163   3.011   4.592  1.2077  1.1233 -1.1424
   92MOL    H3436616   6.280   3.222   4.499  0.7238  1.4081  1.1708
   92MOL    H3536617   6.179   3.608   4.339  1.6990 -1.9128  0.2321
   92MOL    H3636618   6.039   3.609   4.459  1.3210  1.8869 -0.1634
   92MOL    H3736619   6.037   3.494   4.337  1.0871 -0.4348 -1.3305
   92MOL    H3836620   5.918   3.441   4.541  1.3805  0.4434 -1.0729
   92MOL    H3936621   5.801   3.231   4.632  0.5426  1.3505 -0.4936
   92MOL    H4036622   5.824   3.082   4.808  0.0626  1.3623  0.3389
   92MOL    H4136623   5.788   2.915   4.826 -0.4735  0.5061 -0.9791
   92MOL    C4236624   5.985   2.979   4.894  0.2088  0.1465  0.0979
   92MOL    C4336625   6.025   2.831   4.910 -0.1520  0.8825  0.1026
   92MOL    C4436626   5.950   2.750   4.992  0.2907 -0.2962  0.0258
   92MOL    C4536627   5.986   2.617   5.007  0.1993 -0.6479  0.2898
   92MOL    C4636628   6.093   2.560   4.935 -0.1197 -0.3517  0.0119
   92MOL    O4736629   6.124   2.422   4.921 -0.4381 -0.3128 -0.1288
   92MOL    C4836630   6.041   2.334   4.996  0.5760  0.0146  0.7253
   92MOL    C4936631   6.176   2.647   4.860  0.0195  0.4515 -0.3386
   92MOL    C5036632   6.139   2.779   4.850 -0.1843  0.4172 -0.7382
   92MOL    C5136633   5.951   3.045   5.023  0.2708  0.0058  0.7571
   92MOL    H5236634   6.068   3.039   4.855  1.3172 -1.5393 -0.1953
   92MOL    H5336635   5.860   2.785   5.041  0.8687 -0.5633  1.2963
   92MOL    H5436636   5.922   2.552   5.066 -1.2405  0.4914  0.0142
   92MOL    H5536637   6.045   2.350   5.104  1.9854  1.5664  0.4641
   92MOL    H5636638   5.935   2.343   4.970  1.1551 -0.5001 -1.9825
   92MOL    H5736639   6.065   2.231   4.970 -0.3802  0.5443 -2.5160
   92MOL    H5836640   6.265   2.614   4.808  0.6940  1.7676 -0.0325
   92MOL    H5936641   6.194   2.842   4.782  0.2802  1.1995  0.3566
   92MOL    H6036642   6.027   3.008   5.092  0.4429 -1.0269  0.0315
   92MOL    H6136643   5.854   3.006   5.056 -0.3572 -0.7397 -1.8231
   92MOL    C6236644   5.957   3.200   5.026 -1.2742 -0.7871  0.1715
   92MOL    C6336645   6.094   3.255   4.987 -0.5472 -0.0302  0.1989
   92MOL    C6436646   6.107   3.343   4.881  0.0340 -0.1943 -1.0951
   92MOL    C6536647   6.237   3.388   4.842  0.3824 -0.1143 -0.3858
   92MOL    C6636648   6.347   3.343   4.913 -0.7219  0.7344 -0.0295
   92MOL    O6736649   6.470   3.395   4.861  0.0401 -0.2043 -0.5374
   92MOL    C6836650   6.571   3.299   4.887  0.0717  0.1512  0.1839
   92MOL    C6936651   6.335   3.260   5.027  0.6976 -0.2189 -0.5229
   92MOL    C7036652   6.209   3.217   5.064 -0.0535 -0.3420 -0.1019
   92MOL    C7136653   5.902   3.257   5.155 -0.3385 -0.1841 -0.1686
   92MOL    H7236654   5.892   3.235   4.946  1.4114  0.2936 -1.6137
   92MOL    H7336655   6.023   3.360   4.815 -1.0201  2.5661  0.8773
   92MOL    H7436656   6.254   3.449   4.755 -0.2034 -0.3724 -0.6845
   92MOL    H7536657   6.670   3.330   4.852  0.5885 -0.4361  1.1121
   92MOL    H7636658   6.545   3.205   4.839  2.9344 -0.1239 -0.9560
   92MOL    H7736659   6.594   3.294   4.994  2.9283  0.3128 -0.3836
   92MOL    H7836660   6.422   3.227   5.080  1.0346  1.5639  0.0590
   92MOL    H7936661   6.208   3.140   5.140 -1.3853  0.6658  0.9253
   92MOL    H8036662   5.920   3.181   5.231  0.0205 -0.0013 -0.0704
   92MOL    H8136663   5.958   3.341   5.195 -0.6889 -1.2548  2.6648
   92MOL    C8236664   5.761   3.295   5.136  0.2810  0.6545  0.3056
   92MOL    C8336665   5.669   3.168   5.118  0.2069  0.2745 -0.3549
   92MOL    C8436666   5.644   3.084   5.229 -0.5031  0.7240  0.1581
   92MOL    C8536667   5.585   2.956   5.207 -0.0617  0.5487  0.0895
   92MOL    C8636668   5.543   2.925   5.077  0.1709  0.5181 -0.0065
   92MOL    O8736669   5.486   2.803   5.045 -0.4436  0.0189  0.5099
   92MOL    C8836670   5.444   2.713   5.148 -0.0523 -0.1350  1.0779
   92MOL    C8936671   5.553   3.015   4.973  0.2888 -0.1099 -0.3848
   92MOL    C9036672   5.615   3.138   4.989  0.1386  0.4053 -0.0427
   92MOL    C9136673   5.711   3.383   5.256  0.2044 -0.0217 -0.0166
   92MOL    H9236674   5.749   3.348   5.042 -0.0263 -1.1277 -0.6684
   92MOL    H9336675   5.679   3.105   5.329 -0.6421 -1.6318  0.7382
   92MOL    H9436676   5.574   2.886   5.288  2.4306 -2.8632 -2.3692
   92MOL    H9536677   5.421   2.614   5.109  2.0981 -0.2960  0.1700
   92MOL    H9636678   5.356   2.753   5.199  0.5860  2.1225  0.4620
   92MOL    H9736679   5.530   2.686   5.210  0.6579  2.2938  1.2114
   92MOL    H9836680   5.507   2.992   4.879 -1.6533  0.2618  0.4580
   92MOL    H9936681   5.636   3.206   4.908  0.7369 -1.2318 -1.2917
   92MOL   H10036682   5.612   3.354   5.293  0.4512 -0.7274  0.0946
   92MOL   H10136683   5.761   3.376   5.352 -0.5800  1.6030  0.5257
   92MOL   C10236684   5.708   3.537   5.225 -0.2238  0.3577 -0.6689
   92MOL   C10336685   5.632   3.616   5.329 -0.3168 -0.6279 -0.5439
   92MOL   C10436686   5.526   3.703   5.293 -0.0533 -0.2686  0.0859
   92MOL   C10536687   5.435   3.747   5.386 -0.0130 -0.2700 -0.0167
   92MOL   C10636688   5.444   3.706   5.519 -0.1721  1.0236  0.1111
   92MOL   O10736689   5.357   3.730   5.619  0.2247 -0.4675  0.5358
   92MOL   C10836690   5.265   3.841   5.605 -0.3956  1.0197 -0.2536
   92MOL   C10936691   5.548   3.615   5.552  0.0186 -0.2330 -0.5112
   92MOL   C11036692   5.648   3.580   5.462 -0.7919  0.0625  0.0345
   92MOL   C11136693   5.843   3.594   5.184 -0.6430 -0.3531  0.5256
   92MOL   H11236694   5.655   3.545   5.130 -2.1098 -1.0533  0.2491
   92MOL   H11336695   5.505   3.739   5.193  0.4290  1.8778  0.7369
   92MOL   H11436696   5.365   3.814   5.338 -1.2322 -1.3439  0.2483
   92MOL   H11536697   5.182   3.840   5.675  1.5124  1.7979  2.0740
   92MOL   H11636698   5.308   3.941   5.611 -0.4423  0.9720  0.8541
   92MOL   H11736699   5.209   3.836   5.511 -0.5848 -1.1192 -0.0599
   92MOL   H11836700   5.543   3.586   5.656  1.7876 -0.2664 -0.4184
   92MOL   H11936701   5.726   3.515   5.501  0.8388  0.8413 -1.8606
   92MOL   H12036702   5.912   3.547   5.254 -0.1701  0.0507  0.3260
   92MOL   H12136703   5.876   3.544   5.093 -0.2718  0.7610  0.0461
   92MOL   C12236704   5.858   3.746   5.162 -0.2735 -0.4975  0.5173
   92MOL   C12336705   5.773   3.795   5.042  0.0088 -0.0433 -0.3690
   92MOL   C12436706   5.767   3.718   4.919 -0.2645 -0.1552  0.0459
   92MOL   C12536707   5.684   3.767   4.818  0.7673 -0.0413  0.6798
   92MOL   C12636708   5.621   3.889   4.823 -0.3041 -0.6171  0.4260
   92MOL   O12736709   5.544   3.925   4.713 -0.1132 -0.2890  0.3829
   92MOL   C12836710   5.517   4.058   4.691 -0.7486  0.3199 -0.2092
   92MOL   C12936711   5.640   3.966   4.941 -0.4208 -0.2134 -0.2092
   92MOL   C13036712   5.712   3.921   5.045 -0.2113 -0.7175  0.0088
   92MOL   C13136713   6.009   3.779   5.147  0.2115 -0.9017 -0.5978
   92MOL   H13236714   5.827   3.801   5.251  0.9963 -0.5657  1.0235
   92MOL   H13336715   5.813   3.621   4.905 -1.3756 -0.8425  1.0718
   92MOL   H13436716   5.674   3.704   4.730 -0.1394 -0.0616  0.7960
   92MOL   H13536717   5.450   4.097   4.768 -0.3487  0.7328 -0.0656
   92MOL   H13636718   5.605   4.122   4.684 -0.7353  0.2665 -0.4957
   92MOL   H13736719   5.459   4.051   4.599 -0.8098  0.8979 -0.2131
   92MOL   H13836720   5.591   4.063   4.943 -0.8857 -0.4150 -1.4076
   92MOL   H13936721   5.713   3.986   5.132  1.2404 -0.8682  0.1045
   92MOL   H14036722   6.014   3.883   5.115  0.3562 -1.8261 -3.7311
   92MOL   H14136723   6.058   3.720   5.070  0.8973 -1.9797  0.6565
   92MOL   C14236724   6.104   3.780   5.273  0.3282 -0.2766 -0.2761
   92MOL   C14336725   6.110   3.651   5.350  1.1033 -0.4433 -1.1498
   92MOL   C14436726   6.050   3.652   5.477  0.6946  0.0460  0.0723
   92MOL   C14536727   6.061   3.535   5.555  0.1002  0.1473 -0.1834
   92MOL   C14636728   6.133   3.423   5.513  0.5643  0.1806  0.1798
   92MOL   O14736729   6.133   3.320   5.608  0.0536 -0.0297 -0.4482
   92MOL   C14836730   6.194   3.203   5.567 -1.0086 -0.1117  0.0520
   92MOL   C14936731   6.196   3.421   5.383  0.4634  0.4217 -0.6062
   92MOL   C15036732   6.188   3.537   5.303 -0.6692 -0.7030  0.2647
   92MOL   C15136733   6.254   3.821   5.242 -0.7920  0.2970 -0.0422
   92MOL   H15236734   6.054   3.860   5.329 -0.7005  1.4965 -3.6086
   92MOL   H15336735   6.000   3.741   5.513  1.5004  0.8439 -0.7714
   92MOL   H15436736   6.011   3.546   5.650  0.4160  1.3321 -0.1550
   92MOL   H15536737   6.302   3.197   5.580 -1.1420 -3.3211  0.0970
   92MOL   H15636738   6.161   3.127   5.638  1.2807  0.9690  2.3686
   92MOL   H15736739   6.154   3.176   5.469 -2.0308  0.1750  0.3793
   92MOL   H15836740   6.251   3.341   5.337 -0.7787  0.3935 -2.1115
   92MOL   H15936741   6.227   3.531   5.203  3.0490 -2.1463  1.7439
   92MOL   H16036742   6.251   3.912   5.182  3.3716  0.5223 -0.0764
   92MOL   H16136743   6.304   3.746   5.181 -2.4152 -4.3195  4.0136
   92MOL   C16236744   6.354   3.860   5.359  0.1605 -0.8289 -0.1560
   92MOL   C16336745   6.280   3.940   5.476 -0.2851  0.3804 -0.3427
   92MOL   C16436746   6.273   3.885   5.605 -0.3357 -0.4191 -0.0094
   92MOL   C16536747   6.212   3.956   5.704 -0.2136  0.3763 -0.8933
   92MOL   C16636748   6.176   4.090   5.684 -0.1869  0.5699 -0.0995
   92MOL   O16736749   6.128   4.155   5.798  0.2241 -0.2978  0.0113
   92MOL   C16836750   6.068   4.276   5.777  0.3707 -1.2780 -0.0917
   92MOL   C16936751   6.177   4.148   5.556 -0.1028  0.1417  0.2424
   92MOL   C17036752   6.226   4.070   5.451  0.1070  0.0785 -0.2146
   92MOL   C17136753   6.485   3.930   5.310 -0.6791  0.2477  0.0604
   92MOL   H17236754   6.375   3.761   5.400  2.8266 -0.3313 -0.1980
   92MOL   H17336755   6.305   3.785   5.631  3.6694  1.2114  1.7899
   92MOL   H17436756   6.199   3.908   5.800  3.4034  0.4406 -0.2994
   92MOL   H17536757   5.972   4.259   5.728 -0.0695 -0.4755  0.4601
   92MOL   H17636758   6.128   4.345   5.718  0.0600  0.3467  1.4439
   92MOL   H17736759   6.049   4.327   5.872  1.7683 -0.8644 -0.0280
   92MOL   H17836760   6.133   4.245   5.538  2.6260  1.5358  0.9417
   92MOL   H17936761   6.229   4.120   5.355 -2.5958 -0.5701 -0.6898
   92MOL   H18036762   6.548   3.949   5.397  2.2313  0.2733 -1.9682
   92MOL   H18136763   6.464   4.032   5.277 -0.6280  0.2131 -0.0774
   92MOL   C18236764   6.575   3.850   5.208 -0.3483 -0.3716  0.0083
   92MOL   C18336765   6.606   3.715   5.255 -0.1811  0.0354 -0.6121
   92MOL   C18436766   6.555   3.601   5.189 -0.7284  0.1882  0.4045
   92MOL   C18536767   6.583   3.474   5.241 -0.1379  0.4815  0.4623
   92MOL   C18636768   6.655   3.454   5.355 -0.0139 -0.3339 -0.5914
   92MOL   O18736769   6.681   3.330   5.411 -0.1375  0.0470 -0.1036
   92MOL   C18836770   6.595   3.224   5.357 -0.0915  0.1285 -0.2653
   92MOL   C18936771   6.713   3.569   5.420  0.4487  0.1473 -0.6841
   92MOL   C19036772   6.687   3.697   5.371 -0.3670  0.4282 -0.5238
   92MOL   C19136773   6.697   3.936   5.167  0.0645  0.2444  0.0534
   92MOL   H19236774   6.510   3.840   5.122  1.0229  0.3996 -1.1368
   92MOL   H19336775   6.497   3.615   5.099  3.0039  2.0439 -1.7919
   92MOL   H19436776   6.536   3.403   5.175  0.2829 -0.0653  0.7496
   92MOL   H19536777   6.493   3.259   5.375  0.4153  1.1253  0.7821
   92MOL   H19636778   6.607   3.133   5.415  0.6351 -0.0568 -0.7027
   92MOL   H19736779   6.613   3.201   5.252  0.1854 -1.0974  0.0538
   92MOL   H19836780   6.770   3.569   5.511 -0.9998  0.4154  0.2470
   92MOL   H19936781   6.723   3.790   5.412  0.6932  0.0838 -0.6542
   92MOL   H20036782   6.662   4.024   5.114  0.8239  0.2306 -0.4880
   92MOL   H20136783   6.742   3.972   5.259  0.1102 -0.6210  0.3730
   92MOL   C20236784   6.808   3.860   5.095  0.1487  0.4642 -0.7973
   92MOL   C20336785   6.926   3.948   5.083 -0.2762 -0.4524  0.2345
   92MOL   C20436786   6.917   4.071   5.008 -0.7263 -0.2574 -0.2080
   92MOL   C20536787   7.021   4.168   5.012 -0.4544 -0.8760 -0.0655
   92MOL   C20636788   7.135   4.145   5.088  0.3523  0.2451 -0.0709
   92MOL   O20736789   7.234   4.243   5.084  0.3965  0.5221 -0.3581
   92MOL   C20836790   7.340   4.233   5.174  0.2864  0.4743 -1.2941
   92MOL   C20936791   7.141   4.026   5.162  0.0301 -0.3543  0.6664
   92MOL   C21036792   7.042   3.927   5.155  0.2310 -0.0361 -0.4433
   92MOL   C21136793   6.741   3.806   4.962 -0.0363 -0.1835 -0.4712
   92MOL   H21236794   6.836   3.772   5.153 -1.1074 -0.0366 -0.9309
   92MOL   H21336795   6.831   4.096   4.947  0.3267 -0.3303 -1.7460
   92MOL   H21436796   7.014   4.263   4.961  1.7490  0.6692  2.3578
   92MOL   H21536797   7.398   4.325   5.182 -0.1756  0.6592  0.0194
   92MOL   H21636798   7.311   4.224   5.279 -0.3442 -0.8909 -1.5758
   92MOL   H21736799   7.402   4.149   5.143 -0.2170 -0.6443  0.6653
   92MOL   H21836800   7.229   4.009   5.223  0.5186  0.5534  0.2310
   92MOL   H21936801   7.062   3.838   5.213 -2.5071  0.9648  2.1173
   92MOL   H22036802   6.700   3.890   4.906 -1.6480 -0.9948 -0.5366
   92MOL   H22136803   6.641   3.763   4.975  0.0160 -0.8716 -2.2976
   92MOL   C22236804   6.839   3.728   4.871 -0.0390  0.4625 -0.4150
   92MOL   C22336805   6.918   3.627   4.945 -0.4476 -0.5642 -0.6583
   92MOL   C22436806   7.053   3.644   4.977  0.2576 -0.2563 -0.4387
   92MOL   C22536807   7.128   3.555   5.058 -0.1220  0.4547 -0.3381
   92MOL   C22636808   7.069   3.444   5.114 -0.2853 -0.3634 -0.0818
   92MOL   O22736809   7.132   3.351   5.197  0.1408 -0.5860 -0.1811
   92MOL   C22836810   7.258   3.387   5.257 -0.2007 -0.4888 -0.2995
   92MOL   C22936811   6.933   3.423   5.084  0.3008 -0.1889  0.1035
   92MOL   C23036812   6.859   3.516   5.014 -0.7171 -0.0738 -0.2282
   92MOL   C23136813   6.753   3.677   4.760  0.3558  0.1000 -0.0740
   92MOL   H23236814   6.906   3.808   4.838  3.1721 -1.1279  1.9544
   92MOL   H23336815   7.106   3.732   4.942 -0.3484 -0.6336 -2.3767
   92MOL   H23436816   7.229   3.579   5.087 -0.5215  0.9387  0.7174
   92MOL   H23536817   7.282   3.318   5.338 -1.8821  1.7005  2.1585
   92MOL   H23636818   7.339   3.387   5.185  2.1068  0.9765  2.2061
   92MOL   H23736819   7.253   3.484   5.307 -1.5415 -0.0321 -1.2745
   92MOL   H23836820   6.886   3.336   5.127 -0.4995  0.8912  1.4636
   92MOL   H23936821   6.752   3.505   5.001 -0.5560 -0.7736 -1.0210
   92MOL   H24036822   6.666   3.623   4.798 -2.6093  2.5752 -2.9517
   92MOL   H24136823   6.710   3.764   4.709 -1.8323 -0.6689  0.3734
   92MOL   C24236824   6.820   3.582   4.659 -0.7806  0.4571 -0.4267
   92MOL   C24336825   6.726   3.515   4.556 -0.2720  0.9622 -0.3023
   92MOL   C24436826   6.699   3.376   4.558  0.5232 -0.4442 -0.0939
   92MOL   C24536827   6.621   3.317   4.461  0.0733 -0.0095  0.2406
   92MOL   C24636828   6.556   3.393   4.358  0.3076 -0.1105 -0.1115
   92MOL   O24736829   6.482   3.328   4.266  0.0288 -0.0118 -0.1599
   92MOL   C24836830   6.420   3.418   4.179 -0.5250 -0.5594  0.4971
   92MOL   C24936831   6.581   3.531   4.353  0.0277  0.0996 -0.0909
   92MOL   C25036832   6.662   3.590   4.456  0.3759 -0.9250  0.5021
   92MOL   C25136833   6.936   3.651   4.581 -0.4276 -0.1952 -0.4950
   92MOL   H25236834   6.870   3.494   4.701  0.8993  1.1152 -1.0120
   92MOL   H25336835   6.743   3.317   4.637  2.3590  0.5710 -0.3262
   92MOL   H25436836   6.610   3.210   4.471 -0.8782  0.0931  0.3165
   92MOL   H25536837   6.494   3.460   4.110  0.6008  0.3195  2.1974
   92MOL   H25636838   6.356   3.359   4.114 -1.7393 -0.6571  1.7786
   92MOL   H25736839   6.363   3.500   4.222 -1.0303 -0.6109 -0.0662
   92MOL   H25836840   6.557   3.595   4.269 -2.0453 -0.0797  0.3455
   92MOL   H25936841   6.683   3.696   4.447 -1.6210 -0.6282 -1.0863
   92MOL   H26036842   7.007   3.699   4.649  1.2730  0.9393 -2.9940
   92MOL   H26136843   6.895   3.731   4.519 -1.6553 -0.7193 -0.3624
   92MOL   C26236844   7.013   3.558   4.484  0.5051  0.0103  0.1320
   92MOL   C26336845   7.073   3.441   4.561  0.1936  0.0024 -0.2492
   92MOL   C26436846   7.143   3.456   4.685 -0.0107 -0.5075  0.0024
   92MOL   C26536847   7.207   3.342   4.734  0.3866 -0.0016 -0.0161
   92MOL   C26636848   7.199   3.217   4.669  0.2574  0.3019  0.4067
   92MOL   O26736849   7.263   3.103   4.710  0.0798  0.3506  0.5114
   92MOL   C26836850   7.322   3.091   4.842 -0.4737 -0.0795 -0.0842
   92MOL   C26936851   7.122   3.199   4.555 -0.8688 -0.4467 -0.0863
   92MOL   C27036852   7.058   3.310   4.506  0.6396  0.2251  0.0017
   92MOL   C27136853   7.137   3.638   4.420 -0.3815  0.0376 -0.2407
   92MOL   H27236854   6.949   3.516   4.407  1.6466 -1.8016  0.1445
   92MOL   H27336855   7.175   3.544   4.739  3.3997 -1.0522 -0.9847
   92MOL   H27436856   7.266   3.354   4.823 -1.9209  0.8405  1.4249
   92MOL   H27536857   7.405   3.161   4.855 -0.3032 -0.0817 -1.1587
   92MOL   H27636858   7.374   2.998   4.865  1.4048  1.0489  0.3469
   92MOL   H27736859   7.253   3.118   4.922 -0.5440 -0.6306  0.0433
   92MOL   H27836860   7.109   3.107   4.499  0.2611 -1.1170  0.7316
   92MOL   H27936861   7.004   3.290   4.415  0.9234 -2.3379  0.3458
   92MOL   H28036862   7.192   3.686   4.501  0.5568 -2.1176  0.4396
   92MOL   H28136863   7.204   3.564   4.376 -1.4036  0.0565 -1.8743
   92MOL   C28236864   7.095   3.754   4.322 -0.4335 -1.3145 -0.5345
   92MOL   C28336865   7.019   3.685   4.212 -0.0584 -0.4870  0.2624
   92MOL   C28436866   6.882   3.704   4.193 -0.0249 -0.4350 -0.1747
   92MOL   C28536867   6.814   3.636   4.096  0.6887  0.0922 -0.1740
   92MOL   C28636868   6.875   3.553   4.001 -0.1531  0.2232  0.0043
   92MOL   O28736869   6.809   3.498   3.891 -0.0221 -0.2743 -0.4430
   92MOL   C28836870   6.668   3.520   3.860  0.1164  0.2355  0.2523
   92MOL   C28936871   7.019   3.549   4.009 -0.2289 -0.1619  0.1091
   92MOL   C29036872   7.085   3.614   4.116 -0.2883  0.0391  0.3711
   92MOL   C29136873   7.220   3.834   4.278 -0.5962  0.3438  0.0166
   92MOL   H29236874   7.024   3.821   4.369 -0.4983 -0.3640 -1.9587
   92MOL   H29336875   6.819   3.770   4.251 -1.5814 -1.4804 -0.6173
   92MOL   H29436876   6.709   3.659   4.095  0.3343 -1.3612  0.9179
   92MOL   H29536877   6.623   3.615   3.892  0.1016  1.2104 -2.5259
   92MOL   H29636878   6.649   3.493   3.756 -0.3199  0.3955  0.2871
   92MOL   H29736879   6.605   3.448   3.913  1.4783 -1.1658  0.0026
   92MOL   H29836880   7.085   3.496   3.941  0.4649  0.6109  0.1708
   92MOL   H29936881   7.193   3.614   4.120 -0.2658  1.2647 -0.0013
   92MOL   H30036882   7.246   3.901   4.360  0.5737  0.5253 -0.4903
   92MOL   H30136883   7.305   3.766   4.276 -1.8689 -1.3443  2.3298
   92MOL   C30236884   7.204   3.926   4.151  0.1248 -0.5533 -0.9856
   92MOL   C30336885   7.088   4.030   4.173  0.4921 -0.0823 -1.2456
   92MOL   C30436886   7.085   4.098   4.299  0.0931  0.2657 -0.2758
   92MOL   C30536887   6.972   4.180   4.333  0.3101  0.5534 -0.5305
   92MOL   C30636888   6.872   4.199   4.241  0.2419  0.2884 -0.0311
   92MOL   O30736889   6.772   4.287   4.285 -0.3339  0.1985 -0.1795
   92MOL   C30836890   6.691   4.353   4.195  0.1903  0.0936  0.6161
   92MOL   C30936891   6.879   4.139   4.111 -0.0686  0.2195  0.2087
   92MOL   C31036892   6.982   4.047   4.078 -0.3878  0.3231  0.3131
   92MOL   C31136893   7.333   3.991   4.102  0.0635 -0.6144  0.8840
   92MOL   H31236894   7.172   3.861   4.070 -1.4927 -2.4754  1.1161
   92MOL   H31336895   7.169   4.084   4.366 -1.5298  0.8892  1.9390
   92MOL   H31436896   6.975   4.220   4.433  2.5515 -1.8609  0.4293
   92MOL   H31536897   6.728   4.352   4.092  0.1334  0.4067  0.5942
   92MOL   H31636898   6.688   4.459   4.217  0.9778  0.1431  0.4752
   92MOL   H31736899   6.592   4.306   4.193  0.2262  0.0107  0.7731
   92MOL   H31836900   6.795   4.158   4.046 -1.9097 -1.0331  2.1207
   92MOL   H31936901   6.974   3.995   3.984 -0.4400  0.3183  0.3202
   92MOL   H32036902   7.406   3.910   4.103  1.0927  0.3141  1.5949
   92MOL   H32136903   7.375   4.068   4.167 -0.5321  0.6462 -0.1880
   92MOL   C32236904   7.325   4.048   3.957  0.4521  0.1651 -0.2166
   92MOL   C32336905   7.283   3.931   3.857 -0.1261  0.2780 -0.5167
   92MOL   C32436906   7.319   3.797   3.869  0.1780  0.3554  0.0287
   92MOL   C32536907   7.274   3.702   3.771 -0.8468  0.2761  0.4891
   92MOL   C32636908   7.181   3.738   3.665  0.2733 -0.1357 -0.0075
   92MOL   O32736909   7.141   3.637   3.574  0.7080 -0.1492  0.2633
   92MOL   C32836910   7.003   3.647   3.546  1.2098  0.5588  0.2990
   92MOL   C32936911   7.148   3.874   3.658  0.1154  0.4361 -0.0484
   92MOL   C33036912   7.194   3.969   3.755 -0.2880  0.4726  0.3226
   92MOL   C33136913   7.448   4.128   3.899  0.5223 -0.6200 -0.3596
   92MOL   H33236914   7.239   4.115   3.953  0.4434  0.2270  0.8949
   92MOL   H33336915   7.390   3.769   3.946  0.8906 -0.4496 -0.9061
   92MOL   H33436916   7.307   3.600   3.778  0.2011  0.5980  0.2970
   92MOL   H33536917   6.975   3.590   3.457  0.3392  1.1975  0.1573
   92MOL   H33636918   6.969   3.746   3.517 -3.0197  0.2285  3.7139
   92MOL   H33736919   6.943   3.600   3.623 -0.5245  0.6729 -0.9548
   92MOL   H33836920   7.103   3.906   3.565  3.2750  0.8724 -1.5007
   92MOL   H33936921   7.169   4.074   3.741  2.4028  0.7967 -2.4870
   92MOL   H34036922   7.420   4.167   3.801 -0.2538  0.0040  0.1081
   92MOL   H34136923   7.455   4.217   3.962  0.9099  0.5041 -1.9481
   92MOL   C34236924   7.588   4.062   3.888  0.6718 -0.2714  0.4684
   92MOL   C34336925   7.636   4.016   4.021  0.7031 -0.5715  0.3023
   92MOL   C34436926   7.651   3.876   4.049  1.0084 -0.3397 -0.3544
   92MOL   C34536927   7.695   3.835   4.175  0.4699 -0.5606 -0.2721
   92MOL   C34636928   7.722   3.929   4.277 -0.0925  0.3812  0.2074
   92MOL   O34736929   7.771   3.891   4.393  0.0625 -0.2174  0.4934
   92MOL   C34836930   7.835   3.761   4.398  0.1077 -0.2339  0.3600
   92MOL   C34936931   7.701   4.067   4.249 -0.1532  0.1257 -0.0071
   92MOL   C35036932   7.659   4.109   4.122  0.2618 -0.2527  0.5458
   92MOL   C35136933   7.684   4.156   3.812  0.6208  0.8150 -0.0193
   92MOL   H35236934   7.582   3.975   3.823  1.1607 -0.5739  0.8225
   92MOL   H35336935   7.625   3.801   3.976  3.0454 -1.0903 -0.3229
   92MOL   H35436936   7.698   3.729   4.198 -0.7218 -0.0865  2.2328
   92MOL   H35536937   7.884   3.748   4.494 -1.3454 -0.3742  1.0972
   92MOL   H35636938   7.774   3.671   4.396 -3.5940  2.1793 -1.3052
   92MOL   H35736939   7.915   3.739   4.327 -0.1634  0.4102 -0.1571
   92MOL   H35836940   7.737   4.138   4.323 -0.1858  2.8073 -2.4478
   92MOL   H35936941   7.652   4.217   4.115 -0.3065 -0.3592 -0.6641
   92MOL   H36036942   7.637   4.188   3.719 -1.6145 -2.6944 -0.1908
   92MOL   H36136943   7.688   4.251   3.866 -1.8693  0.9128  0.0468
   92MOL   C36236944   7.827   4.094   3.789 -0.6893 -0.7414  0.5244
   92MOL   C36336945   7.922   4.095   3.910  0.0415 -0.4989  0.3635
   92MOL   C36436946   7.954   3.964   3.957 -0.0372  0.0020  0.1739
   92MOL   C36536947   8.035   3.944   4.071  0.2936 -0.3081 -0.2113
   92MOL   C36636948   0.031   4.062   4.143  0.2695  0.1386 -0.0826
   92MOL   O36736949   0.107   4.045   4.257 -0.6708  0.4811 -0.0202
   92MOL   C36836950   0.045   4.079   4.380 -0.3474  0.1259 -0.1674
   92MOL   C36936951   0.011   4.195   4.091  0.2541  0.5271  0.5093
   92MOL   C37036952   7.980   4.210   3.972  0.1225  0.2213 -0.2882
   92MOL   C37136953   7.895   4.156   3.670  0.2829  0.1046  0.0064
   92MOL   H37236954   7.800   3.992   3.764  0.6038 -1.2243  1.0361
   92MOL   H37336955   7.917   3.876   3.905 -3.6842  2.1035 -1.0334
   92MOL   H37436956   0.025   3.844   4.097 -1.1993 -0.4116  1.2141
   92MOL   H37536957   0.112   4.040   4.456 -1.1669 -1.7281 -0.3779
   92MOL   H37636958   0.046   4.188   4.380  0.8669  0.1624  2.4471
   92MOL   H37736959   7.982   4.042   4.389 -0.2779 -0.6175 -2.1657
   92MOL   H37836960   0.060   4.275   4.144 -0.3609  1.1436  0.1554
   92MOL   H37936961   7.957   4.311   3.941 -2.5768  0.4798  2.3881
   92MOL   H38036962   7.827   4.155   3.586 -1.9035  0.6490  1.7231
   92MOL   H38136963   7.902   4.261   3.697 -2.2565 -0.0648  1.5027
   92MOL   C38236964   8.038   4.111   3.623 -0.7022 -0.1540 -0.3356
   92MOL   C38336965   0.040   4.178   3.491 -0.5186 -0.4384 -0.1801
   92MOL   C38436966   8.003   4.160   3.375  0.4985 -0.4430 -0.2037
   92MOL   C38536967   8.030   4.229   3.257  0.4065 -1.2329  0.2629
   92MOL   C38636968   0.099   4.319   3.244 -0.1443  0.1893 -0.1369
   92MOL   O38736969   0.105   4.396   3.126 -0.4848 -0.3136  0.4348
   92MOL   C38836970   0.223   4.479   3.111  0.2212  0.6656  0.3040
   92MOL   C38936971   0.175   4.342   3.363 -1.2532  0.6695  0.3992
   92MOL   C39036972   0.153   4.263   3.483 -0.2977  0.0034  0.1384
   92MOL   C39136973   0.014   3.961   3.618 -0.1410 -0.7292 -0.4080
   92MOL   H39236974   0.072   4.138   3.698  0.8085  0.7169 -2.1222
   92MOL   H39336975   7.909   4.107   3.383  0.8499 -0.8445  1.4161
   92MOL   H39436976   7.969   4.200   3.173 -0.3075  0.5428  0.1376
   92MOL   H39536977   0.316   4.422   3.108 -0.1518  0.0495  0.3768
   92MOL   H39636978   0.224   4.550   3.193  0.3807 -0.6961  1.5005
   92MOL   H39736979   0.229   4.523   3.011  1.4199 -0.1855 -0.0119
   92MOL   H39836980   0.260   4.408   3.360  0.1461 -1.0964  0.4721
   92MOL   H39936981   0.216   4.287   3.567 -1.3146  0.0613  0.8923
   92MOL   H40036982   8.004   3.896   3.690 -0.3389  0.4771  0.5564
   92MOL   H40136983   0.121   3.937   3.614  0.7348  2.3421  2.2595
   92MOL   H40236984   8.015   3.934   3.520  1.8981  0.3648 -1.5739
   93MOL     C136985   0.931   7.022   0.479  0.0450 -0.9451  0.0716
   93MOL     C236986   0.877   7.095   0.358  0.5652 -0.8766  0.1322
   93MOL     C336987   0.741   7.092   0.322 -0.6907 -0.4679  0.7178
   93MOL     C436988   0.694   7.165   0.209 -0.0295 -0.6947  0.1126
   93MOL     C536989   0.786   7.235   0.127  0.6033  0.0768  0.1823
   93MOL     O636990   0.744   7.296   0.012  0.3164 -0.6706 -0.1400
   93MOL     C736991   0.820   7.405   8.002  0.0233 -0.0120  0.8424
   93MOL     C836992   0.921   7.236   0.166  0.5501 -0.0241 -0.4251
   93MOL     C936993   0.967   7.168   0.275  0.9847 -0.2355  0.1300
   93MOL    C1036994   0.879   6.880   0.490 -0.0414  0.7348  0.0119
   93MOL    H1136995   0.900   7.085   0.562 -1.4704  1.3820 -2.1872
   93MOL    H1236996   0.665   7.054   0.388 -1.4398  1.5621  1.0688
   93MOL    H1336997   0.593   7.146   0.176  0.4902 -0.1367 -1.8268
   93MOL    H1436998   0.767   7.452   7.918 -0.4696  1.0430  1.7260
   93MOL    H1536999   0.824   7.483   0.038  0.8517  0.4588  0.3327
   93MOL    H1637000   0.921   7.374   7.975 -0.7790 -1.6592 -0.3511
   93MOL    H1737001   0.989   7.297   0.109 -0.7494  1.3153 -0.5661
   93MOL    H1837002   1.068   7.178   0.312  0.7272 -0.8678  1.0126
   93MOL    H1937003   0.770   6.886   0.485 -0.1125 -0.3453  0.1905
   93MOL    H2037004   0.901   6.821   0.402 -2.7598 -0.2217 -0.0676
   93MOL    H2137005   1.040   7.018   0.482  0.0226 -0.3927  1.9583
   93MOL    C2237006   0.920   6.812   0.623 -0.6926 -0.0560 -0.3288
   93MOL    C2337007   0.844   6.678   0.646  0.5028 -0.7588 -0.3038
   93MOL    C2437008   0.865   6.567   0.557 -0.2929 -0.1810 -1.0217
   93MOL    C2537009   0.788   6.448   0.577 -0.5943  0.1791  0.9473
   93MOL    C2637010   0.712   6.432   0.697 -0.3368 -0.2628  0.2786
   93MOL    O2737011   0.650   6.314   0.719 -0.2105  0.1237 -0.8901
   93MOL    C2837012   0.694   6.190   0.648 -0.8286  0.1174 -0.0814
   93MOL    C2937013   0.698   6.539   0.781 -0.7050  0.0278 -0.0574
   93MOL    C3037014   0.758   6.661   0.760  0.4347 -0.3000 -0.1126
   93MOL    C3137015   1.073   6.789   0.633  0.1513 -0.2059 -0.0801
   93MOL    H3237016   0.889   6.878   0.704 -1.4760 -2.2148  1.1762
   93MOL    H3337017   0.938   6.570   0.477  1.0524 -0.8522  0.1571
   93MOL    H3437018   0.802   6.364   0.511 -2.4294  0.2676  0.3965
   93MOL    H3537019   0.795   6.156   0.670 -0.4769  2.1594  1.6508
   93MOL    H3637020   0.678   6.199   0.541  2.0083  0.4848 -0.5214
   93MOL    H3737021   0.627   6.113   0.685 -0.5595 -1.3507 -2.5920
   93MOL    H3837022   0.654   6.525   0.879  0.0045 -0.2382  0.2329
   93MOL    H3937023   0.739   6.735   0.836  4.0787 -0.1764  0.7399
   93MOL    H4037024   1.093   6.708   0.562  2.0285 -0.3570  0.5926
   93MOL    H4137025   1.123   6.881   0.604 -1.7840  1.0471  0.4472
   93MOL    C4237026   1.122   6.750   0.779  0.3983  0.1829  0.3491
   93MOL    C4337027   1.080   6.851   0.888  0.0122  0.6081 -0.3640
   93MOL    C4437028   1.140   6.979   0.900 -0.1931 -0.6269  0.3889
   93MOL    C4537029   1.115   7.066   1.006 -0.6042 -0.1088  0.6140
   93MOL    C4637030   1.017   7.027   1.101 -0.3053 -0.0216 -0.3852
   93MOL    O4737031   0.985   7.119   1.198  0.2571 -0.3922 -0.1149
   93MOL    C4837032   0.875   7.089   1.283  0.4623 -0.3915 -0.3127
   93MOL    C4937033   0.961   6.904   1.092 -0.3888 -0.1067  0.0687
   93MOL    C5037034   0.992   6.811   0.990  0.1245 -0.2610 -0.0195
   93MOL    C5137035   1.272   6.725   0.799  0.3019  0.4066 -0.0522
   93MOL    H5237036   1.065   6.662   0.808 -0.4084  0.6754  0.2996
   93MOL    H5337037   1.211   6.999   0.822  1.4835 -2.3369  1.4479
   93MOL    H5437038   1.165   7.161   1.017 -0.7231  0.1271 -0.7777
   93MOL    H5537039   0.785   7.049   1.235 -0.5012 -0.1618  1.2492
   93MOL    H5637040   0.894   7.012   1.358  1.1245  0.6290  0.5793
   93MOL    H5737041   0.850   7.186   1.325 -0.2165 -0.6463 -0.1056
   93MOL    H5837042   0.902   6.870   1.176  0.3586  2.0698  1.5237
   93MOL    H5937043   0.949   6.713   1.001  1.4667 -1.0161 -1.3328
   93MOL    H6037044   1.283   6.719   0.907  2.8178  2.4406 -0.1825
   93MOL    H6137045   1.333   6.812   0.777  0.7664  0.7613  2.4855
   93MOL    C6237046   1.322   6.595   0.733 -0.0134  0.2423 -0.7558
   93MOL    C6337047   1.240   6.470   0.770  0.7384  0.0771  0.6388
   93MOL    C6437048   1.224   6.438   0.901 -0.2201 -0.5300  0.4772
   93MOL    C6537049   1.141   6.327   0.946  0.0260  0.2975  0.2279
   93MOL    C6637050   1.073   6.253   0.851  0.3147  0.4135 -0.5114
   93MOL    O6737051   0.992   6.146   0.874 -0.3790 -0.7097  0.0735
   93MOL    C6837052   0.914   6.159   0.991 -0.8305 -0.2405  0.5991
   93MOL    C6937053   1.089   6.286   0.710 -0.1166 -0.3224  0.4683
   93MOL    C7037054   1.167   6.396   0.666 -0.5380  0.4105  0.5183
   93MOL    C7137055   1.478   6.584   0.765 -0.7207 -0.2052 -0.4557
   93MOL    H7237056   1.291   6.610   0.629 -0.8137  0.1371 -0.5349
   93MOL    H7337057   1.262   6.503   0.978  0.9317 -0.5348 -0.0848
   93MOL    H7437058   1.135   6.317   1.053 -1.6655  0.6897  0.1728
   93MOL    H7537059   0.813   6.120   0.981 -0.3369 -1.1869 -0.8075
   93MOL    H7637060   0.889   6.255   1.035  3.4332  1.2757  0.0179
   93MOL    H7737061   0.951   6.095   1.072 -0.9593 -0.5765  0.3896
   93MOL    H7837062   1.034   6.230   0.636  3.1129  2.4184 -4.2893
   93MOL    H7937063   1.175   6.410   0.559  3.0394  1.6218  0.8874
   93MOL    H8037064   1.515   6.686   0.748 -1.2878 -0.1152 -1.2046
   93MOL    H8137065   1.489   6.561   0.871 -0.7779  1.5746 -0.0414
   93MOL    C8237066   1.555   6.482   0.688 -0.5032  0.4286  0.4040
   93MOL    C8337067   1.707   6.525   0.659 -0.4511 -0.9764 -0.1693
   93MOL    C8437068   1.801   6.530   0.761 -0.4185 -0.1784 -0.0566
   93MOL    C8537069   1.936   6.553   0.723  0.6593 -0.4681 -0.5224
   93MOL    C8637070   1.977   6.570   0.592 -0.3331 -0.5354  0.1144
   93MOL    O8737071   2.112   6.589   0.567 -0.5230  1.0675  0.2355
   93MOL    C8837072   2.179   6.469   0.533 -0.1957  0.2075 -0.0334
   93MOL    C8937073   1.878   6.575   0.491 -0.2803 -0.0163  0.2452
   93MOL    C9037074   1.743   6.550   0.523 -0.3755  0.0526 -0.5833
   93MOL    C9137075   1.541   6.340   0.755 -0.1797  0.5548  0.6390
   93MOL    H9237076   1.520   6.467   0.586 -1.0756 -0.8785  0.7851
   93MOL    H9337077   1.775   6.496   0.860 -0.5438 -2.8470 -0.9631
   93MOL    H9437078   2.009   6.551   0.803  0.2359  0.0873 -0.1203
   93MOL    H9537079   2.207   6.421   0.627 -0.1719  1.3334  0.5541
   93MOL    H9637080   2.259   6.485   0.461  0.4111 -0.9662  0.3768
   93MOL    H9737081   2.114   6.393   0.491  0.8158 -1.9663  2.2037
   93MOL    H9837082   1.916   6.599   0.393  0.5918  1.2432  0.8855
   93MOL    H9937083   1.669   6.556   0.444 -1.3383  1.0964  0.3772
   93MOL   H10037084   1.588   6.344   0.853  0.2598 -1.7987  0.5424
   93MOL   H10137085   1.438   6.318   0.780 -0.8578 -0.5302 -2.8003
   93MOL   C10237086   1.587   6.216   0.671  0.0163 -0.4051  0.5681
   93MOL   C10337087   1.586   6.082   0.756  1.1113 -0.2165 -0.0946
   93MOL   C10437088   1.464   6.043   0.811  1.0184  0.5792  0.4625
   93MOL   C10537089   1.452   5.916   0.873 -0.5047 -0.3396 -0.4959
   93MOL   C10637090   1.563   5.829   0.874  0.3137  0.1147 -0.0583
   93MOL   O10737091   1.557   5.700   0.920  0.4730  0.0474 -0.1616
   93MOL   C10837092   1.442   5.652   0.984  0.2142 -0.0874 -0.3181
   93MOL   C10937093   1.683   5.870   0.815  0.0718 -0.3004 -0.5149
   93MOL   C11037094   1.702   6.002   0.759  0.1383  0.2143 -0.5137
   93MOL   C11137095   1.521   6.195   0.538  0.5117 -0.0774  0.3023
   93MOL   H11237096   1.690   6.248   0.655  1.0061 -3.4168  0.5270
   93MOL   H11337097   1.380   6.111   0.807  0.0751 -0.4607  2.3644
   93MOL   H11437098   1.356   5.884   0.911 -0.5314 -0.9636 -1.0860
   93MOL   H11537099   1.474   5.569   1.046  1.7937  0.0677 -0.8834
   93MOL   H11637100   1.388   5.721   1.048  0.9238  0.6670 -0.5189
   93MOL   H11737101   1.373   5.612   0.909 -0.6107  0.5223  0.1079
   93MOL   H11837102   1.769   5.804   0.809  1.3860  1.2335  0.9173
   93MOL   H11937103   1.799   6.028   0.719  0.4875  1.2265  0.9175
   93MOL   H12037104   1.414   6.197   0.560  0.0123 -2.6388 -1.7173
   93MOL   H12137105   1.535   6.284   0.477 -2.5646  1.1438  1.2949
   93MOL   C12237106   1.536   6.059   0.467  0.0614 -0.4172 -0.3855
   93MOL   C12337107   1.676   6.026   0.433  0.2596  0.4787 -0.0974
   93MOL   C12437108   1.762   6.123   0.386  0.9560  0.1608  0.1282
   93MOL   C12537109   1.898   6.088   0.355  0.8250  0.0061 -0.4189
   93MOL   C12637110   1.937   5.954   0.362  0.3814 -0.1103 -0.0343
   93MOL   O12737111   2.076   5.931   0.343 -0.0736  0.8561 -0.1626
   93MOL   C12837112   2.112   5.794   0.327 -0.0855 -0.8417  0.0068
   93MOL   C12937113   1.849   5.862   0.426  0.0682  0.0547 -0.5538
   93MOL   C13037114   1.717   5.893   0.449 -0.4168 -0.7060  0.2296
   93MOL   C13137115   1.446   6.046   0.345  0.1206 -0.6415 -1.1363
   93MOL   H13237116   1.509   5.991   0.548 -0.1553 -3.5583 -2.9896
   93MOL   H13337117   1.729   6.224   0.366  1.7216  0.4120  0.1229
   93MOL   H13437118   1.960   6.168   0.319  1.8401 -0.3790  0.4316
   93MOL   H13537119   2.029   5.737   0.283 -0.5944  0.6918 -1.0645
   93MOL   H13637120   2.180   5.783   0.242 -1.0034 -3.1715 -0.4900
   93MOL   H13737121   2.147   5.752   0.421  1.6728 -1.4034 -0.8939
   93MOL   H13837122   1.882   5.766   0.463  2.1814  1.6439  1.9426
   93MOL   H13937123   1.657   5.816   0.495 -1.8135 -0.1980 -0.6972
   93MOL   H14037124   1.500   6.091   0.261 -1.8438  1.9811 -1.0200
   93MOL   H14137125   1.353   6.098   0.363  0.3068 -0.2910 -1.1904
   93MOL   C14237126   1.400   5.908   0.307 -0.0868  0.3314  0.4710
   93MOL   C14337127   1.332   5.829   0.424  0.3233 -0.3214  0.1824
   93MOL   C14437128   1.375   5.700   0.451 -0.5495  0.3232 -0.0252
   93MOL   C14537129   1.314   5.621   0.560 -0.6582 -0.1378  0.4513
   93MOL   C14637130   1.216   5.680   0.648 -0.2916 -0.3967  0.4108
   93MOL   O14737131   1.158   5.599   0.741  0.2114  0.3182 -0.0318
   93MOL   C14837132   1.106   5.667   0.859  0.4029 -0.0903  0.2266
   93MOL   C14937133   1.185   5.821   0.629  0.4842 -0.0692  0.0531
   93MOL   C15037134   1.242   5.889   0.515 -0.0683 -0.6914  0.2051
   93MOL   C15137135   1.295   5.915   0.189 -0.2680 -0.1683  0.1744
   93MOL   H15237136   1.498   5.860   0.297 -0.0640  0.3070  0.8005
   93MOL   H15337137   1.442   5.654   0.380 -1.0320  0.3623 -0.5117
   93MOL   H15437138   1.344   5.518   0.574 -2.9021 -0.8366  0.4059
   93MOL   H15537139   1.115   5.592   0.939 -0.2398  0.8288  1.1721
   93MOL   H15637140   1.163   5.756   0.886 -1.4219  0.9999  0.5559
   93MOL   H15737141   1.007   5.702   0.830  0.0713 -1.3741 -0.2732
   93MOL   H15837142   1.123   5.873   0.701  1.5225  0.4889  0.5578
   93MOL   H15937143   1.221   5.993   0.494 -2.4328 -0.7606  1.9773
   93MOL   H16037144   1.350   5.987   0.130 -1.4177 -1.1974 -2.2445
   93MOL   H16137145   1.199   5.964   0.204  0.9390  2.0103  0.8502
   93MOL   C16237146   1.278   5.781   0.106 -0.4531 -0.3588 -0.1127
   93MOL   C16337147   1.261   5.805   7.992  0.6020  0.3285 -0.6694
   93MOL   C16437148   1.175   5.907   7.941  0.8519  0.3074 -0.0499
   93MOL   C16537149   1.170   5.932   7.809 -0.0602 -0.5857  0.3498
   93MOL   C16637150   1.236   5.851   7.718  0.2150  0.5162 -0.0370
   93MOL   O16737151   1.225   5.891   7.595 -0.5283  0.2016 -0.5499
   93MOL   C16837152   1.269   5.798   7.494  0.4195 -0.1912  0.4161
   93MOL   C16937153   1.292   5.728   7.762  0.1648  0.2490  0.4578
   93MOL   C17037154   1.305   5.704   7.902 -0.6745 -0.3451 -0.1667
   93MOL   C17137155   1.190   5.670   0.162  0.1385  0.3017 -0.1277
   93MOL   H17237156   1.379   5.739   0.099  0.0309  0.2874  2.4310
   93MOL   H17337157   1.105   5.969   7.996 -0.2338 -1.6995  0.8811
   93MOL   H17437158   1.112   6.022   7.793 -3.2811 -2.3128  1.7051
   93MOL   H17537159   1.208   5.708   7.495  1.0632 -0.6337  0.7395
   93MOL   H17637160   1.374   5.771   7.505 -0.4175 -2.5667  3.0022
   93MOL   H17737161   1.258   5.827   7.389 -0.6197  0.7820  0.7926
   93MOL   H17837162   1.327   5.651   7.694 -1.9122 -0.8867  0.6625
   93MOL   H17937163   1.364   5.620   7.935  0.1301 -0.6928 -2.3855
   93MOL   H18037164   1.207   5.660   0.269 -0.0522  0.5941 -0.0685
   93MOL   H18137165   1.223   5.572   0.127 -0.4974 -0.0181  0.1529
   93MOL   C18237166   1.035   5.679   0.132 -0.2530 -0.5426  0.5167
   93MOL   C18337167   0.965   5.815   0.178  0.3723  0.3518 -0.1653
   93MOL   C18437168   0.977   5.860   0.313  0.3275 -0.0023  1.2337
   93MOL   C18537169   0.922   5.986   0.350  0.3163  0.3586  0.8660
   93MOL   C18637170   0.843   6.058   0.254 -0.4413 -0.2692  0.3830
   93MOL   O18737171   0.793   6.177   0.290 -0.3214  0.4348  0.3909
   93MOL   C18837172   0.681   6.233   0.219 -0.2196 -0.3610 -0.4619
   93MOL   C18937173   0.821   6.005   0.125  0.4104 -0.4674 -0.7907
   93MOL   C19037174   0.881   5.881   0.093 -0.3654 -0.1852  0.5405
   93MOL   C19137175   0.966   5.553   0.194 -0.5393 -0.1493  0.2056
   93MOL   H19237176   1.029   5.675   0.024  0.4827  1.4953  0.3850
   93MOL   H19337177   1.037   5.813   0.389 -0.1485 -1.1031  0.9267
   93MOL   H19437178   0.933   6.016   0.453 -0.5715 -1.4098  1.4954
   93MOL   H19537179   0.642   6.318   0.274  2.3739  0.8014 -0.3416
   93MOL   H19637180   0.603   6.156   0.219  0.7559 -1.3816 -1.8538
   93MOL   H19737181   0.704   6.258   0.115  0.6806  0.2198 -0.1282
   93MOL   H19837182   0.767   6.052   0.044  0.4732  0.2175 -0.4318
   93MOL   H19937183   0.860   5.836   8.036  1.2174  0.1507  0.0364
   93MOL   H20037184   1.011   5.458   0.168 -0.3820 -0.8360  2.8208
   93MOL   H20137185   0.981   5.550   0.302  0.2286 -0.6011  0.0865
   93MOL   C20237186   0.818   5.528   0.154  0.5763 -0.3334  0.1988
   93MOL   C20337187   0.752   5.442   0.257 -0.1812 -0.7738 -0.2793
   93MOL   C20437188   0.790   5.313   0.271  0.6216  0.4669 -0.0729
   93MOL   C20537189   0.709   5.234   0.357 -0.0053  1.1802  0.7566
   93MOL   C20637190   0.604   5.282   0.437 -0.8150  0.1553  0.8343
   93MOL   O20737191   0.534   5.217   0.532 -0.7379  0.5322 -0.4255
   93MOL   C20837192   0.603   5.112   0.598  0.2755 -0.3933  0.5095
   93MOL   C20937193   0.572   5.417   0.417 -0.3783 -0.1347  0.0043
   93MOL   C21037194   0.649   5.499   0.329  0.2908 -0.1306 -0.1138
   93MOL   C21137195   0.793   5.479   0.008 -0.1124 -0.0396 -0.2477
   93MOL   H21237196   0.763   5.622   0.153  3.1011  1.1949  0.7953
   93MOL   H21337197   0.862   5.271   0.203  0.6244 -1.4711  1.0783
   93MOL   H21437198   0.733   5.129   0.359 -0.1366  1.1551  1.0971
   93MOL   H21537199   0.629   5.032   0.529  2.2406 -0.5319  1.3668
   93MOL   H21637200   0.699   5.139   0.642 -0.6743  1.4259  1.5129
   93MOL   H21737201   0.541   5.065   0.674 -1.1889 -1.0368 -1.0552
   93MOL   H21837202   0.492   5.463   0.473 -2.2326 -2.2082 -0.8652
   93MOL   H21937203   0.631   5.605   0.320  2.0310  0.3469  1.8814
   93MOL   H22037204   0.835   5.379   0.001  0.2023  0.1841 -1.6800
   93MOL   H22137205   0.861   5.531   7.981  1.4709  0.0709  1.4208
   93MOL   C22237206   0.650   5.478   7.990 -0.2335 -0.1470 -0.0431
   93MOL   C22337207   0.648   5.504   7.836  0.2090  0.2641  0.2645
   93MOL   C22437208   0.620   5.634   7.790  0.7125  0.2994 -0.2177
   93MOL   C22537209   0.604   5.657   7.655  0.5614  0.4773  0.2067
   93MOL   C22637210   0.615   5.551   7.561  0.0078  0.5137  0.9555
   93MOL   O22737211   0.595   5.568   7.425  0.2897  0.5092 -0.2692
   93MOL   C22837212   0.595   5.456   7.337 -0.2165 -0.3512 -0.3292
   93MOL   C22937213   0.657   5.422   7.610 -0.7108 -0.2630  0.0238
   93MOL   C23037214   0.676   5.402   7.745 -0.4062 -0.3057  0.3763
   93MOL   C23137215   0.583   5.339   8.020  0.4354  0.6661  0.1520
   93MOL   H23237216   0.599   5.560   0.001 -1.6323 -0.8164 -0.3366
   93MOL   H23337217   0.599   5.713   7.860 -1.4632 -0.4906  0.0716
   93MOL   H23437218   0.587   5.758   7.621 -0.3670 -0.1711 -1.3036
   93MOL   H23537219   0.693   5.411   7.324 -0.1101  0.0303 -0.8500
   93MOL   H23637220   0.533   5.374   7.373 -0.4141  0.6045  1.5476
   93MOL   H23737221   0.570   5.482   7.234  0.2342  0.1389 -0.3141
   93MOL   H23837222   0.694   5.352   7.536 -0.5608  0.5874 -0.7119
   93MOL   H23937223   0.703   5.304   7.783 -1.2877 -0.5264  0.4579
   93MOL   H24037224   0.627   5.258   7.963 -3.0945 -1.3192  0.1346
   93MOL   H24137225   0.605   5.319   0.085 -0.2804  1.3107  0.4286
   93MOL   C24237226   0.427   5.337   8.015  1.2748  0.5944  0.2202
   93MOL   C24337227   0.387   5.200   0.034 -0.1465 -0.4992  0.3861
   93MOL   C24437228   0.377   5.185   0.175 -0.2941  0.1382 -0.4020
   93MOL   C24537229   0.325   5.062   0.229  0.8301 -0.1768  0.0964
   93MOL   C24637230   0.283   4.963   0.140 -0.1448  0.0808 -0.4318
   93MOL   O24737231   0.212   4.850   0.174 -0.5223 -0.3281 -0.0965
   93MOL   C24837232   0.166   4.837   0.312  0.0790 -0.3603  0.0799
   93MOL   C24937233   0.290   4.986   8.036  1.0363 -0.3400  0.4223
   93MOL   C25037234   0.339   5.105   7.984  0.4484  0.2149  0.1324
   93MOL   C25137235   0.353   5.460   0.037  0.5397  0.8452  0.1027
   93MOL   H25237236   0.403   5.340   7.909 -1.3605 -1.3716  0.6941
   93MOL   H25337237   0.422   5.255   0.243  1.1580 -0.3716 -0.8316
   93MOL   H25437238   0.328   5.041   0.335  0.3823  0.1401  0.1744
   93MOL   H25537239   0.257   4.822   0.371  0.8975  0.4259 -0.9589
   93MOL   H25637240   0.118   4.927   0.350  0.1049 -0.6955  0.9092
   93MOL   H25737241   0.096   4.755   0.325  0.8466 -0.8553  1.1601
   93MOL   H25837242   0.248   4.921   7.961  1.7173 -1.0693  0.6578
   93MOL   H25937243   0.330   5.113   7.877  2.1046 -0.2557 -0.0449
   93MOL   H26037244   0.377   5.549   8.019 -0.1004  0.8130 -0.2170
   93MOL   H26137245   0.377   5.481   0.141 -1.2685 -1.3507  1.0117
   93MOL   C26237246   0.199   5.452   0.025 -0.5296  0.1635  1.0114
   93MOL   C26337247   0.144   5.419   7.926  0.4622 -0.3301  0.0448
   93MOL   C26437248   0.148   5.500   7.808  0.7370  0.6552  0.0463
   93MOL   C26537249   0.088   5.461   7.688 -0.7286  0.5362 -0.2785
   93MOL   C26637250   0.017   5.340   7.680  0.4401 -0.2672  0.7188
   93MOL   O26737251   7.983   5.290   7.573  0.7372  0.2008  0.7698
   93MOL   C26837252   7.951   5.390   7.473  0.1676  0.2446 -0.4635
   93MOL   C26937253   0.014   5.257   7.791  0.2306 -0.3012  0.0424
   93MOL   C27037254   0.079   5.292   7.912 -0.0506  0.4896  0.3455
   93MOL   C27137255   0.129   5.581   0.080 -0.3715  0.1202 -0.2428
   93MOL   H27237256   0.174   5.364   0.085 -2.6049 -0.0036 -0.0760
   93MOL   H27337257   0.206   5.591   7.817  0.5034  0.6561  1.7116
   93MOL   H27437258   0.102   5.537   7.612 -0.0419  2.3185  1.5791
   93MOL   H27537259   7.848   5.377   7.439  0.0334  2.0738 -0.7760
   93MOL   H27637260   8.027   5.385   7.396  1.5509 -1.8429  0.9720
   93MOL   H27737261   7.934   5.489   7.515  1.7176 -0.0152  0.8529
   93MOL   H27837262   8.005   5.161   7.782  1.5135 -1.0581  0.9231
   93MOL   H27937263   0.060   5.222   7.991 -1.6856 -0.8187 -1.1699
   93MOL   H28037264   0.178   5.657   0.020  1.7129 -1.1210 -0.2012
   93MOL   H28137265   0.024   5.566   0.055  0.0177 -3.3749 -0.1157
   93MOL   C28237266   0.140   5.605   0.232 -0.2599  0.1269  0.0837
   93MOL   C28337267   0.070   5.497   0.318 -0.1650 -0.2540  0.8077
   93MOL   C28437268   7.971   5.505   0.343  0.4670  0.7473 -0.3373
   93MOL   C28537269   7.909   5.397   0.410  0.1953  0.9654 -0.4529
   93MOL   C28637270   7.978   5.282   0.456  0.6887 -0.7199  0.5203
   93MOL   O28737271   7.922   5.180   0.524 -0.2560  0.0788  0.6041
   93MOL   C28837272   7.781   5.174   0.541  0.2421  0.4562 -0.0732
   93MOL   C28937273   0.073   5.282   0.424 -1.2845  0.1130  0.2665
   93MOL   C29037274   0.145   5.384   0.359 -0.0803 -0.5418 -0.1101
   93MOL   C29137275   0.095   5.751   0.258 -0.1160 -0.2446  0.0408
   93MOL   H29237276   0.240   5.620   0.274 -0.0062  1.3958 -0.9415
   93MOL   H29337277   7.922   5.598   0.321 -0.7268  0.8102  2.4365
   93MOL   H29437278   7.803   5.411   0.427  0.2217 -0.0748  0.6498
   93MOL   H29537279   7.742   5.250   0.609 -0.7743 -0.2999  0.2048
   93MOL   H29637280   7.725   5.164   0.448 -0.5148 -2.8403  0.6645
   93MOL   H29737281   7.773   5.080   0.596 -0.2690  1.4275  1.5472
   93MOL   H29837282   0.131   5.192   0.441 -1.8282 -0.1651  0.6596
   93MOL   H29937283   0.250   5.367   0.339 -0.3931 -0.4631 -1.8586
   93MOL   H30037284   0.141   5.822   0.189 -2.0039  0.6163 -0.3736
   93MOL   H30137285   8.031   5.756   0.225 -0.7894 -0.4769  2.0811
   93MOL   C30237286   0.118   5.792   0.401  0.4585 -0.3090  0.0852
   93MOL   C30337287   0.269   5.811   0.429 -0.2503 -0.0536  0.0245
   93MOL   C30437288   0.335   5.928   0.372  0.5056 -0.2860 -0.3963
   93MOL   C30537289   0.470   5.945   0.408 -0.1848 -0.8992  0.4802
   93MOL   C30637290   0.543   5.857   0.483 -0.6002  0.5053 -0.2392
   93MOL   O30737291   0.676   5.891   0.512  0.4547 -0.3775 -0.1666
   93MOL   C30837292   0.738   5.826   0.625  0.2836  0.0453 -0.1091
   93MOL   C30937293   0.482   5.734   0.521 -0.7674  1.4081  0.1088
   93MOL   C31037294   0.345   5.715   0.498  0.8056  0.1242  0.5683
   93MOL   C31137295   0.024   5.908   0.447 -0.3607 -0.1622 -0.3241
   93MOL   H31237296   0.096   5.699   0.454  0.8008 -0.0816  0.6332
   93MOL   H31337297   0.289   5.996   0.301  1.4285  0.4371 -0.3246
   93MOL   H31437298   0.528   6.023   0.362  2.1713 -2.8652  0.0423
   93MOL   H31537299   0.682   5.823   0.718  1.3704  1.2065  0.5833
   93MOL   H31637300   0.832   5.876   0.646  0.1460  0.0419  0.5058
   93MOL   H31737301   0.751   5.722   0.594  0.9317  0.7873 -2.4463
   93MOL   H31837302   0.535   5.653   0.570 -0.4370  1.8403  0.4625
   93MOL   H31937303   0.286   5.634   0.538  0.6974  0.5009  1.1933
   93MOL   H32037304   7.959   5.885   0.430 -0.6124  0.2373  0.6665
   93MOL   H32137305   0.062   6.001   0.404 -0.7037  0.6401  1.0813
   93MOL   C32237306   0.030   5.931   0.603 -0.0912 -0.1849  0.3185
   93MOL   C32337307   7.952   5.851   0.669  0.5771 -0.0997  0.7018
   93MOL   C32437308   7.961   5.714   0.700 -0.2535  0.3487  0.2576
   93MOL   C32537309   7.848   5.640   0.758  0.5749  0.0693  0.8129
   93MOL   C32637310   7.725   5.709   0.775  0.5762 -0.1998 -0.6464
   93MOL   O32737311   7.607   5.645   0.815  0.2685  0.0017  0.0745
   93MOL   C32837312   7.618   5.509   0.849 -0.8186 -0.1140  0.0096
   93MOL   C32937313   7.719   5.847   0.730  0.1518 -0.0330  0.0860
   93MOL   C33037314   7.826   5.915   0.685 -0.5251  0.2516  0.0867
   93MOL   C33137315   0.054   6.079   0.637 -0.2794 -0.4600  0.3055
   93MOL   H33237316   0.126   5.885   0.629 -1.2326 -2.0174  1.4249
   93MOL   H33337317   0.016   5.667   0.678 -1.0164 -1.1075  0.0368
   93MOL   H33437318   7.842   5.533   0.770 -3.4330  0.0312 -0.6085
   93MOL   H33537319   7.628   5.438   0.767 -1.1454 -0.3930  0.2090
   93MOL   H33637320   7.528   5.474   0.900 -1.6415 -0.1017 -1.4041
   93MOL   H33737321   7.696   5.499   0.924 -0.3014 -0.8446 -0.6168
   93MOL   H33837322   7.621   5.892   0.738  0.1136  0.0442 -0.7920
   93MOL   H33937323   7.807   6.019   0.663 -1.0870 -0.0834 -1.0261
   93MOL   H34037324   0.129   6.132   0.578 -2.7337  1.8998 -0.8649
   93MOL   H34137325   8.002   6.137   0.627  0.8047  1.0207 -1.5057
   93MOL   C34237326   0.085   6.116   0.785  0.5402 -0.1201  0.3492
   93MOL   C34337327   0.063   6.265   0.815 -0.5422 -0.4186 -0.2304
   93MOL   C34437328   8.022   6.302   0.918  0.1819  0.5924 -0.5476
   93MOL   C34537329   7.999   6.437   0.944  0.2507 -0.4085  0.0280
   93MOL   C34637330   0.013   6.539   0.868 -0.3367 -0.1878 -0.3199
   93MOL   O34737331   8.006   6.665   0.896 -0.2388 -0.0170  0.0304
   93MOL   C34837332   0.032   6.769   0.827 -0.6559 -0.6955 -0.0112
   93MOL   C34937333   0.104   6.500   0.763  0.0245  0.6921  0.3243
   93MOL   C35037334   0.132   6.366   0.742 -0.3699 -0.1414  0.4252
   93MOL   C35137335   0.224   6.062   0.823 -0.3714 -0.0339  0.8885
   93MOL   H35237336   0.005   6.057   0.829 -0.6046 -0.8833 -2.6373
   93MOL   H35337337   7.980   6.232   0.988  2.5922  0.7396  1.1044
   93MOL   H35437338   7.928   6.458   1.022  1.8474  0.6675  1.2281
   93MOL   H35537339   8.022   6.862   0.856 -2.6496 -0.8531 -2.6826
   93MOL   H35637340   0.132   6.772   0.868 -1.1834 -3.3895  1.6141
   93MOL   H35737341   0.022   6.762   0.718  1.0339 -1.1791 -0.1354
   93MOL   H35837342   0.160   6.577   0.711 -1.3617  0.7819 -1.0720
   93MOL   H35937343   0.198   6.337   0.661  0.8827  0.3962  1.2485
   93MOL   H36037344   0.257   5.991   0.747 -0.6762  0.5349  0.2116
   93MOL   H36137345   0.306   6.134   0.814 -1.1215  0.6659 -0.6008
   93MOL   C36237346   0.244   6.005   0.963 -0.3453 -0.3729  0.0668
   93MOL   C36337347   0.382   5.931   0.971 -0.8045  0.2558 -0.1498
   93MOL   C36437348   0.482   5.972   1.061  0.0600  0.4432  0.4999
   93MOL   C36537349   0.595   5.891   1.077 -0.3792  0.1092  0.1564
   93MOL   C36637350   0.622   5.772   0.996  0.6895 -0.2717 -0.3938
   93MOL   O36737351   0.739   5.699   1.003  0.6486  0.2140  0.0449
   93MOL   C36837352   0.819   5.717   1.123 -0.0666 -0.5986  0.6464
   93MOL   C36937353   0.517   5.731   0.910  0.3563  0.5250  0.2213
   93MOL   C37037354   0.403   5.812   0.898 -0.3576 -0.1444 -0.3679
   93MOL   C37137355   0.136   5.895   1.000 -0.4438 -0.3298 -0.3972
   93MOL   H37237356   0.242   6.091   1.030  0.9341 -0.1371 -0.1808
   93MOL   H37337357   0.466   6.057   1.126  3.0089  1.4422 -0.0159
   93MOL   H37437358   0.674   5.926   1.142  1.6293  0.1847 -2.2230
   93MOL   H37537359   0.874   5.624   1.134  0.2956 -0.7462 -1.9811
   93MOL   H37637360   0.889   5.800   1.109  1.9262 -2.7576 -2.7939
   93MOL   H37737361   0.761   5.735   1.214  0.5243  2.7956  0.4249
   93MOL   H37837362   0.528   5.637   0.858  0.2615 -0.3317  1.7182
   93MOL   H37937363   0.325   5.783   0.829 -0.6515  0.3878 -0.2572
   93MOL   H38037364   0.091   5.855   0.909  0.7022  0.9024 -1.5257
   93MOL   H38137365   0.182   5.810   1.049 -2.1445 -1.2362 -0.3301
   93MOL   C38237366   0.039   5.949   1.113 -0.0538  0.3207 -0.1916
   93MOL   C38337367   0.113   5.979   1.248  0.2952 -0.3071  1.1165
   93MOL   C38437368   0.140   5.865   1.332  0.2231 -0.9400  0.4274
   93MOL   C38537369   0.205   5.881   1.458  0.3671  0.1803 -0.2336
   93MOL   C38637370   0.240   6.015   1.496  0.7519 -0.4301 -0.2372
   93MOL   O38737371   0.302   6.024   1.621 -0.4403 -0.7092  0.4907
   93MOL   C38837372   0.322   6.146   1.681  0.1445  0.2363 -0.2378
   93MOL   C38937373   0.208   6.129   1.417 -0.3693 -0.7237 -0.1661
   93MOL   C39037374   0.139   6.110   1.293  0.2866  0.4540 -0.5421
   93MOL   C39137375   7.953   5.860   1.131 -0.0405  0.0118 -0.3588
   93MOL   H39237376   0.008   6.052   1.099 -0.1287  0.2883 -0.2716
   93MOL   H39337377   0.092   5.769   1.316 -2.1678  0.4528 -1.0312
   93MOL   H39437378   0.216   5.806   1.535  1.1287 -1.1460 -1.6109
   93MOL   H39537379   0.221   6.184   1.699 -0.1601  0.9561 -3.2515
   93MOL   H39637380   0.364   6.223   1.616 -1.3179  1.5701  0.3471
   93MOL   H39737381   0.396   6.137   1.761 -0.6169 -1.4060  0.2984
   93MOL   H39837382   0.231   6.232   1.439  1.7126 -0.6190 -2.5096
   93MOL   H39937383   0.114   6.196   1.232 -3.7565  0.0336  0.4007
   93MOL   H40037384   7.893   5.862   1.040  0.6339  3.4816 -0.7939
   93MOL   H40137385   7.878   5.892   1.204 -0.4907 -0.6568 -0.5213
   93MOL   H40237386   7.984   5.760   1.159 -1.1389  0.1604  1.4896
   94MOL     C137387   5.060   4.400   6.746  0.2630 -0.6991  0.3135
   94MOL     C237388   5.148   4.481   6.655  1.0023  0.4380 -0.0859
   94MOL     C337389   5.223   4.595   6.694  0.4232  0.7695 -0.1524
   94MOL     C437390   5.295   4.666   6.598 -0.6681 -0.4289 -0.9562
   94MOL     C537391   5.304   4.627   6.463  0.3725  0.0612 -0.0064
   94MOL     O637392   5.391   4.689   6.383 -0.2163 -0.1914 -0.4075
   94MOL     C737393   5.527   4.706   6.421  0.3857 -0.4004 -0.2654
   94MOL     C837394   5.236   4.509   6.423  0.6389 -0.2599 -0.0973
   94MOL     C937395   5.164   4.430   6.520 -0.5771 -0.8692  0.0053
   94MOL    C1037396   4.987   4.482   6.854 -0.8193 -0.5360  0.5453
   94MOL    H1137397   5.123   4.320   6.786 -0.1208 -1.7579 -1.1687
   94MOL    H1237398   5.220   4.636   6.794 -0.3939 -3.4404  1.6656
   94MOL    H1337399   5.338   4.762   6.623 -0.1017 -1.3658  1.8118
   94MOL    H1437400   5.595   4.660   6.349  0.3029 -0.8723 -0.0433
   94MOL    H1537401   5.544   4.812   6.439 -2.0269 -0.1959  1.0180
   94MOL    H1637402   5.541   4.642   6.508 -0.3984 -1.3663 -0.8376
   94MOL    H1737403   5.250   4.462   6.327  0.1571 -2.9357  1.0994
   94MOL    H1837404   5.111   4.338   6.500 -1.4615 -0.5278  0.7413
   94MOL    H1937405   4.956   4.416   6.935  0.9854 -2.1958 -0.0541
   94MOL    H2037406   5.057   4.553   6.898 -3.0705  3.0010 -1.4538
   94MOL    H2137407   4.982   4.355   6.685  1.3596 -1.0078 -0.8797
   94MOL    C2237408   4.855   4.544   6.808 -0.8326  0.0551  0.4300
   94MOL    C2337409   4.775   4.604   6.923 -0.9605 -0.1710  0.6987
   94MOL    C2437410   4.632   4.582   6.928 -0.1814  0.3420  0.8940
   94MOL    C2537411   4.560   4.619   7.038  0.0325 -0.5473  0.1281
   94MOL    C2637412   4.622   4.689   7.142  0.2179 -0.7210 -0.4293
   94MOL    O2737413   4.536   4.752   7.236  0.2462  0.0761  0.0715
   94MOL    C2837414   4.589   4.787   7.365  0.1463 -0.0913 -0.9593
   94MOL    C2937415   4.760   4.728   7.136 -0.2658  1.1427  0.1793
   94MOL    C3037416   4.834   4.688   7.021  0.3244  0.0298 -0.2792
   94MOL    C3137417   4.861   4.648   6.689  0.1767  1.0658 -0.1397
   94MOL    H3237418   4.800   4.456   6.774  1.3936 -0.7779 -1.0726
   94MOL    H3337419   4.573   4.544   6.846  0.8191  0.1988  0.2282
   94MOL    H3437420   4.454   4.607   7.049 -0.1063 -0.8674 -1.5681
   94MOL    H3537421   4.628   4.888   7.374  2.4417 -1.1067  0.7753
   94MOL    H3637422   4.674   4.724   7.392  0.8048  0.4502 -1.7391
   94MOL    H3737423   4.508   4.784   7.438  0.8764  1.7739 -0.0643
   94MOL    H3837424   4.811   4.800   7.198  0.9775 -0.4655  1.0591
   94MOL    H3937425   4.938   4.716   7.016  0.5821 -0.7742  0.5656
   94MOL    H4037426   4.882   4.744   6.736 -2.0130  0.9627  1.0970
   94MOL    H4137427   4.945   4.620   6.625 -0.3989 -3.1370  0.8372
   94MOL    C4237428   4.737   4.642   6.594  0.3362 -0.3087  0.0588
   94MOL    C4337429   4.753   4.527   6.494 -0.4381 -0.5625  0.7047
   94MOL    C4437430   4.657   4.423   6.493 -0.1955  0.1091  0.4321
   94MOL    C4537431   4.676   4.314   6.414 -0.3060  0.3395  0.1188
   94MOL    C4637432   4.781   4.307   6.321 -0.0738  0.1005  0.4761
   94MOL    O4737433   4.789   4.203   6.232 -0.7062  0.2002 -0.6434
   94MOL    C4837434   4.795   4.238   6.100  0.2069  0.4420 -0.1678
   94MOL    C4937435   4.876   4.413   6.323 -0.9294  0.0865  0.1070
   94MOL    C5037436   4.863   4.514   6.408 -0.0487 -0.1811 -0.1321
   94MOL    C5137437   4.704   4.771   6.512 -0.2760 -0.5140  0.5290
   94MOL    H5237438   4.651   4.615   6.656 -0.0922 -1.2868 -0.9305
   94MOL    H5337439   4.566   4.424   6.551 -0.0209  1.9549  0.7097
   94MOL    H5437440   4.605   4.233   6.418  1.6027 -1.4578 -1.1188
   94MOL    H5537441   4.900   4.242   6.070  0.6123 -4.1265  0.2686
   94MOL    H5637442   4.732   4.175   6.036 -0.0092  3.7118 -3.3364
   94MOL    H5737443   4.756   4.339   6.083  1.5140  1.3221  1.9062
   94MOL    H5837444   4.955   4.421   6.250 -0.6850  0.2154  0.3843
   94MOL    H5937445   4.926   4.600   6.399  0.1028 -0.3494 -0.7362
   94MOL    H6037446   4.719   4.752   6.406  1.0384  1.7570  0.2634
   94MOL    H6137447   4.772   4.850   6.544 -0.3243 -0.3476  0.2228
   94MOL    C6237448   4.560   4.836   6.542 -0.3553  0.0818 -0.4703
   94MOL    C6337449   4.522   4.930   6.431  0.2142 -0.0968 -0.4144
   94MOL    C6437450   4.415   4.903   6.342  0.3587 -0.0430  0.4204
   94MOL    C6537451   4.373   5.002   6.249 -0.6922 -0.0834 -0.0998
   94MOL    C6637452   4.446   5.125   6.239  0.1643  0.5750  0.1059
   94MOL    O6737453   4.429   5.223   6.143 -0.0822  0.3119  0.2806
   94MOL    C6837454   4.321   5.210   6.055  0.1252 -0.5140  0.2982
   94MOL    C6937455   4.548   5.151   6.333  0.2079 -0.5052 -0.3438
   94MOL    C7037456   4.590   5.051   6.425 -0.0095 -0.3211  0.2351
   94MOL    C7137457   4.558   4.891   6.688  0.2867 -0.1296 -0.3165
   94MOL    H7237458   4.484   4.759   6.536  1.2656 -1.5850 -0.2157
   94MOL    H7337459   4.362   4.809   6.339  1.7969 -0.8402 -1.0193
   94MOL    H7437460   4.293   4.981   6.179  0.2043 -3.1025 -0.2652
   94MOL    H7537461   4.342   5.275   5.970  0.4180 -2.6665 -1.3084
   94MOL    H7637462   4.229   5.234   6.109 -0.5074 -0.8323 -0.6120
   94MOL    H7737463   4.313   5.115   6.002 -1.7942 -0.1324 -0.1357
   94MOL    H7837464   4.586   5.251   6.332  3.8877 -1.8130  1.4028
   94MOL    H7937465   4.670   5.074   6.494 -0.1286  0.5226  0.0995
   94MOL    H8037466   4.571   4.806   6.755  1.0181 -0.5894 -1.0240
   94MOL    H8137467   4.635   4.964   6.713  1.7349 -1.6540 -0.1758
   94MOL    C8237468   4.424   4.948   6.734 -0.4576  0.3817  0.1347
   94MOL    C8337469   4.301   4.866   6.701  0.5318 -0.2345 -0.0027
   94MOL    C8437470   4.291   4.735   6.758 -0.3606  0.2092 -0.5721
   94MOL    C8537471   4.175   4.662   6.737  0.0248 -0.0973 -0.7385
   94MOL    C8637472   4.075   4.708   6.652  0.1668  0.3826 -0.3795
   94MOL    O8737473   3.975   4.618   6.624  0.5413 -0.2689 -0.2547
   94MOL    C8837474   3.866   4.665   6.538 -0.4397 -0.4251  0.4297
   94MOL    C8937475   4.078   4.843   6.614  0.5662 -0.7384 -0.4585
   94MOL    C9037476   4.189   4.922   6.643 -0.6149  0.1848  0.4853
   94MOL    C9137477   4.421   4.985   6.888 -0.6951 -0.4088  0.1793
   94MOL    H9237478   4.410   5.036   6.672  1.1527  0.2878 -0.3780
   94MOL    H9337479   4.364   4.692   6.824 -0.3466  1.4256  0.2116
   94MOL    H9437480   4.171   4.559   6.771  0.5635 -0.0373 -0.4975
   94MOL    H9537481   3.890   4.658   6.432  0.6533  0.9731  0.5698
   94MOL    H9637482   3.845   4.769   6.562 -0.1927 -0.3147  0.1633
   94MOL    H9737483   3.780   4.599   6.540  0.5728 -1.7401  2.2758
   94MOL    H9837484   3.996   4.886   6.558  0.9372  0.3694 -0.1545
   94MOL    H9937485   4.192   5.026   6.614  1.1046  0.3615  1.2396
   94MOL   H10037486   4.397   4.899   6.950  0.1031  0.4704  1.7326
   94MOL   H10137487   4.521   5.008   6.925  0.1358 -1.6336 -1.2355
   94MOL   C10237488   4.334   5.109   6.926 -0.2768 -0.3669 -0.1614
   94MOL   C10337489   4.280   5.098   7.065  0.3400 -0.6441 -0.0183
   94MOL   C10437490   4.140   5.144   7.092 -0.2608 -0.6023 -0.8224
   94MOL   C10537491   4.097   5.158   7.224  0.5542  0.0743  0.4537
   94MOL   C10637492   4.183   5.127   7.331  0.0813  1.0520 -0.0076
   94MOL   O10737493   4.150   5.124   7.468  0.1469 -0.1418  0.2373
   94MOL   C10837494   4.008   5.118   7.503 -0.0896 -0.1320  0.0126
   94MOL   C10937495   4.315   5.089   7.302  0.3742  0.2551  0.0577
   94MOL   C11037496   4.366   5.072   7.177 -0.9237  0.4594  0.6263
   94MOL   C11137497   4.416   5.234   6.919  0.1404 -0.0133  0.0882
   94MOL   H11237498   4.246   5.119   6.862  0.7459  3.3102 -1.1165
   94MOL   H11337499   4.081   5.186   7.012 -0.8367 -1.3530 -0.7940
   94MOL   H11437500   3.994   5.185   7.241  1.0381  1.0469  1.9069
   94MOL   H11537501   3.933   5.174   7.447 -0.5361  1.0395  1.7416
   94MOL   H11637502   3.974   5.015   7.491 -2.3305  0.6607 -0.7414
   94MOL   H11737503   4.000   5.141   7.609  0.2730  0.4299 -0.0804
   94MOL   H11837504   4.385   5.071   7.383  0.5214  0.3651 -0.0447
   94MOL   H11937505   4.470   5.046   7.164 -0.6431  1.5175  0.6436
   94MOL   H12037506   4.400   5.296   7.008 -0.9611  2.5037 -1.7968
   94MOL   H12137507   4.523   5.216   6.916  0.1611  0.2964 -1.4415
   94MOL   C12237508   4.378   5.324   6.791  0.7511 -0.7895 -0.3570
   94MOL   C12337509   4.501   5.393   6.752 -0.2604  0.1713  0.5683
   94MOL   C12437510   4.563   5.367   6.631 -0.5542 -0.1668 -0.4616
   94MOL   C12537511   4.670   5.450   6.583 -0.1842  0.7906 -0.1432
   94MOL   C12637512   4.722   5.539   6.666 -0.7347 -0.2162  0.8552
   94MOL   O12737513   4.826   5.617   6.632 -0.4806 -0.1488  0.3947
   94MOL   C12837514   4.844   5.649   6.497  0.7234 -0.0047 -0.4013
   94MOL   C12937515   4.662   5.565   6.793  0.4376 -0.2206  0.2661
   94MOL   C13037516   4.555   5.485   6.839  0.5027  0.0297  0.0879
   94MOL   C13137517   4.258   5.421   6.815 -0.0683 -0.1317 -0.4216
   94MOL   H13237518   4.352   5.249   6.717  2.9510 -2.4619  0.5211
   94MOL   H13337519   4.516   5.295   6.566  1.3557 -1.4587 -0.4577
   94MOL   H13437520   4.710   5.426   6.485  0.7947 -0.9624  0.6473
   94MOL   H13537521   4.925   5.721   6.489 -0.7624  1.8413  0.7232
   94MOL   H13637522   4.886   5.559   6.452  1.2154 -0.2405  0.5206
   94MOL   H13737523   4.754   5.692   6.453  0.6434  0.0795 -0.1546
   94MOL   H13837524   4.707   5.642   6.854  0.8018  0.3180 -0.6688
   94MOL   H13937525   4.505   5.509   6.931 -0.0715 -1.1987  0.0973
   94MOL   H14037526   4.286   5.500   6.884 -1.9980 -0.8537  1.2347
   94MOL   H14137527   4.182   5.356   6.857  0.7141 -0.8195 -0.0411
   94MOL   C14237528   4.195   5.483   6.691  0.3849 -0.5292  0.2114
   94MOL   C14337529   4.126   5.380   6.608 -0.1062  0.0067  0.1730
   94MOL   C14437530   3.990   5.343   6.624 -0.7664  0.2925 -0.0931
   94MOL   C14537531   3.937   5.242   6.543 -0.0659 -0.7445  0.6420
   94MOL   C14637532   4.004   5.179   6.443 -0.1510  0.1159  0.0808
   94MOL   O14737533   3.946   5.071   6.390 -0.1034  0.2059  0.4642
   94MOL   C14837534   4.008   5.006   6.283  0.4191  0.6083  0.3010
   94MOL   C14937535   4.136   5.229   6.415  0.5810  0.4116  0.0974
   94MOL   C15037536   4.193   5.324   6.500  1.1019  0.3970  0.4134
   94MOL   C15137537   4.115   5.614   6.720  0.2635 -0.0849 -0.0817
   94MOL   H15237538   4.282   5.511   6.631  0.3831  0.3257  0.6034
   94MOL   H15337539   3.928   5.392   6.697  0.0974  2.3786 -0.7228
   94MOL   H15437540   3.832   5.217   6.552 -0.6865  1.7735  0.9062
   94MOL   H15537541   4.080   4.931   6.316  0.3189  0.1323 -0.5572
   94MOL   H15637542   3.936   4.946   6.229  1.6988 -0.5743 -0.1170
   94MOL   H15737543   4.042   5.078   6.209 -0.4208  0.9811  0.2725
   94MOL   H15837544   4.200   5.193   6.336 -0.0751 -1.6363  0.4606
   94MOL   H15937545   4.293   5.361   6.479  1.5210  0.6693  2.7356
   94MOL   H16037546   4.178   5.680   6.780  0.9106 -0.8528  0.0944
   94MOL   H16137547   4.029   5.586   6.780  0.7972 -0.8440  0.3498
   94MOL   C16237548   4.079   5.700   6.596 -0.1177  0.1260  0.1966
   94MOL   C16337549   4.200   5.711   6.504  0.1814 -0.6768  0.4540
   94MOL   C16437550   4.322   5.761   6.555  0.0328 -0.6223 -0.2657
   94MOL   C16537551   4.441   5.758   6.481  0.3237 -0.4210 -0.1359
   94MOL   C16637552   4.436   5.702   6.351 -0.1319 -0.5803 -0.0694
   94MOL   O16737553   4.556   5.684   6.281 -0.0592  0.5178  0.0312
   94MOL   C16837554   4.554   5.615   6.155 -0.5304 -0.3884  0.0698
   94MOL   C16937555   4.310   5.649   6.300  0.2350 -1.0390 -0.7279
   94MOL   C17037556   4.193   5.662   6.375  0.9200  0.0671  1.0258
   94MOL   C17137557   4.021   5.836   6.632 -0.0472 -0.8958 -0.3095
   94MOL   H17237558   4.001   5.656   6.535 -0.9464 -0.6197  1.7572
   94MOL   H17337559   4.328   5.801   6.655  0.2843 -1.6518  0.1339
   94MOL   H17437560   4.534   5.807   6.507 -0.7400  2.5390 -1.6778
   94MOL   H17537561   4.503   5.519   6.155 -0.3132 -0.5142 -0.7648
   94MOL   H17637562   4.657   5.592   6.128 -1.0120 -2.1452 -0.3141
   94MOL   H17737563   4.492   5.665   6.081 -0.0503 -0.5680 -0.4603
   94MOL   H17837564   4.311   5.585   6.213 -0.8090  0.2869 -1.7490
   94MOL   H17937565   4.102   5.619   6.333  0.3461  0.8328  1.4698
   94MOL   H18037566   4.070   5.914   6.573  2.0290 -0.8012  1.5177
   94MOL   H18137567   4.055   5.850   6.734 -1.7627 -1.3173  0.3377
   94MOL   C18237568   3.874   5.862   6.616 -0.3039  0.3082 -0.2000
   94MOL   C18337569   3.833   6.005   6.622  0.3035  0.5654 -0.2434
   94MOL   C18437570   3.765   6.067   6.515  0.4097  0.7831  0.1555
   94MOL   C18537571   3.714   6.197   6.521 -0.1460 -0.3631  0.5322
   94MOL   C18637572   3.728   6.274   6.641 -0.0149 -0.1910 -0.3214
   94MOL   O18737573   3.678   6.402   6.648 -0.0072 -0.2144 -0.6397
   94MOL   C18837574   3.646   6.441   6.784 -0.3007  0.4704  0.0975
   94MOL   C18937575   3.801   6.213   6.751 -0.5444  0.1299  0.0819
   94MOL   C19037576   3.860   6.081   6.735 -0.1324  0.2817  0.6349
   94MOL   C19137577   3.794   5.774   6.714 -0.7314 -0.2057 -0.2805
   94MOL   H19237578   3.842   5.839   6.515 -1.7467  0.8294  0.1301
   94MOL   H19337579   3.753   6.016   6.421  2.7780  2.5579 -1.1652
   94MOL   H19437580   3.671   6.253   6.439  1.1628  1.6501  1.1789
   94MOL   H19537581   3.734   6.477   6.838  2.5695 -1.0002 -3.3794
   94MOL   H19637582   3.590   6.361   6.832 -0.9867  1.3218  0.7276
   94MOL   H19737583   3.565   6.514   6.779  0.9323  1.9356  0.7492
   94MOL   H19837584   3.836   6.271   6.836  0.0256 -0.1541  0.0474
   94MOL   H19937585   3.924   6.039   6.811 -1.0727  0.7711  1.7133
   94MOL   H20037586   3.809   5.675   6.672 -0.1990 -0.1450 -0.2300
   94MOL   H20137587   3.833   5.761   6.815  2.0206  0.3936 -1.2231
   94MOL   C20237588   3.640   5.798   6.736  1.1821  0.1147 -0.2409
   94MOL   C20337589   3.588   5.690   6.836  0.5624 -0.3919 -0.1642
   94MOL   C20437590   3.530   5.719   6.962 -0.2290 -0.0638  0.3916
   94MOL   C20537591   3.482   5.621   7.056 -0.2468  0.0020  0.5243
   94MOL   C20637592   3.508   5.484   7.020 -0.2015  0.1998  0.8076
   94MOL   O20737593   3.476   5.386   7.107  0.5724  0.2585  0.5272
   94MOL   C20837594   3.457   5.258   7.065 -0.2991  0.7190  0.1366
   94MOL   C20937595   3.568   5.452   6.896 -0.1428 -0.1433  0.5831
   94MOL   C21037596   3.601   5.556   6.801 -0.4019 -0.4010 -0.6969
   94MOL   C21137597   3.563   5.796   6.598  0.0790 -0.6971  0.0706
   94MOL   H21237598   3.622   5.897   6.778  0.2545 -0.2772  0.2999
   94MOL   H21337599   3.522   5.825   6.982 -0.3306  0.0501 -0.2472
   94MOL   H21437600   3.445   5.652   7.152  0.5917  0.8888  0.5738
   94MOL   H21537601   3.403   5.246   6.971  1.1983 -0.5604 -0.5900
   94MOL   H21637602   3.552   5.204   7.061 -0.6248  0.1295  0.3385
   94MOL   H21737603   3.388   5.211   7.134 -1.3734  0.8608 -0.8100
   94MOL   H21837604   3.593   5.351   6.869  0.2223 -0.3752  1.7744
   94MOL   H21937605   3.637   5.524   6.705  2.4136  1.0928 -0.1839
   94MOL   H22037606   3.577   5.698   6.551 -0.1762 -0.2287 -0.9994
   94MOL   H22137607   3.604   5.872   6.531  0.1578 -0.6432  0.1798
   94MOL   C22237608   3.412   5.817   6.605  0.6321 -0.3784  0.3270
   94MOL   C22337609   3.370   5.958   6.644 -0.3055  0.9708  0.0820
   94MOL   C22437610   3.421   6.065   6.569  0.0812  0.2243  0.3594
   94MOL   C22537611   3.402   6.199   6.610  0.0217  0.0492  0.4293
   94MOL   C22637612   3.317   6.225   6.721 -0.3621  0.2944  0.2265
   94MOL   O22737613   3.310   6.364   6.741 -0.5323  0.0998  0.0293
   94MOL   C22837614   3.217   6.410   6.844 -0.2944 -0.2026  0.2781
   94MOL   C22937615   3.261   6.124   6.795  0.4765 -0.0224 -0.2250
   94MOL   C23037616   3.287   5.990   6.756 -0.5265 -0.4400  0.2883
   94MOL   C23137617   3.333   5.778   6.475 -0.3773  0.0465 -0.8061
   94MOL   H23237618   3.381   5.748   6.683  0.4672 -0.9177 -0.2105
   94MOL   H23337619   3.482   6.046   6.482 -0.8730  2.6769 -0.9164
   94MOL   H23437620   3.445   6.286   6.562  0.2458  0.8886  2.1185
   94MOL   H23537621   3.115   6.384   6.817 -0.2245 -0.9317  0.6956
   94MOL   H23637622   3.234   6.371   6.944 -2.5657 -0.3199  0.6411
   94MOL   H23737623   3.244   6.515   6.854  1.0868 -0.7571  2.9459
   94MOL   H23837624   3.199   6.143   6.882  1.2750  0.6024  0.2237
   94MOL   H23937625   3.236   5.910   6.807  3.4337 -2.0963  1.8220
   94MOL   H24037626   3.236   5.826   6.480 -0.0163  0.6168  0.7510
   94MOL   H24137627   3.390   5.817   6.390 -1.1686  0.9405 -0.9334
   94MOL   C24237628   3.304   5.632   6.448  0.4333  0.8184 -1.0933
   94MOL   C24337629   3.228   5.560   6.566 -0.0302 -0.1369 -0.2978
   94MOL   C24437630   3.123   5.626   6.632  1.0692  0.5870  0.2861
   94MOL   C24537631   3.088   5.580   6.763  0.3380 -0.7824 -0.0383
   94MOL   C24637632   3.138   5.459   6.815  0.3311  0.5225  0.2125
   94MOL   O24737633   3.111   5.402   6.942  0.5291  0.8329  0.0248
   94MOL   C24837634   3.019   5.471   7.028 -0.4298  0.8417 -0.1811
   94MOL   C24937635   3.229   5.385   6.735  0.1103 -0.0604  0.6707
   94MOL   C25037636   3.272   5.436   6.609  1.4875 -0.3916 -0.3670
   94MOL   C25137637   3.240   5.598   6.311 -0.1635 -1.3246  0.9947
   94MOL   H25237638   3.403   5.587   6.446 -0.2862 -0.9421  1.1351
   94MOL   H25337639   3.069   5.714   6.602  0.1596 -0.3992 -1.0217
   94MOL   H25437640   3.016   5.634   6.823  0.4194 -0.2705 -0.3965
   94MOL   H25537641   3.053   5.561   7.080 -0.0097  0.4988  0.1328
   94MOL   H25637642   2.925   5.504   6.982 -1.3802  0.4661  1.4573
   94MOL   H25737643   2.980   5.400   7.101  0.2741 -1.1856 -1.7260
   94MOL   H25837644   3.272   5.289   6.757  0.1964  0.0503  0.9851
   94MOL   H25937645   3.353   5.387   6.557  1.5646 -0.0712 -0.5535
   94MOL   H26037646   3.264   5.670   6.233  0.8498 -0.8489  1.7399
   94MOL   H26137647   3.132   5.611   6.321  0.1592  2.7443 -0.0182
   94MOL   C26237648   3.275   5.461   6.253  0.2889 -0.6052  0.3419
   94MOL   C26337649   3.427   5.467   6.214  0.3035  0.3499 -0.0589
   94MOL   C26437650   3.470   5.538   6.098  0.6914  0.2711 -0.4439
   94MOL   C26537651   3.603   5.547   6.064  0.5386 -0.1040 -0.5571
   94MOL   C26637652   3.697   5.477   6.143  0.4316 -0.1367 -0.3066
   94MOL   O26737653   3.832   5.483   6.093 -0.2694 -0.4604 -0.2621
   94MOL   C26837654   3.937   5.443   6.175 -0.4419 -0.1787 -0.5961
   94MOL   C26937655   3.662   5.413   6.264  0.3870  0.2040 -0.4122
   94MOL   C27037656   3.526   5.406   6.294 -0.0505 -0.4685 -0.3596
   94MOL   C27137657   3.187   5.429   6.130 -0.0671  0.2994 -0.3463
   94MOL   H27237658   3.259   5.378   6.321  2.9055  0.9499  2.9599
   94MOL   H27337659   3.392   5.589   6.044 -2.5989 -4.3167 -0.2989
   94MOL   H27437660   3.632   5.609   5.980  1.4468  2.6231  1.6772
   94MOL   H27537661   4.032   5.471   6.130  0.6393 -0.3700  1.4851
   94MOL   H27637662   3.929   5.335   6.183  0.0390 -0.1072  1.1936
   94MOL   H27737663   3.939   5.476   6.279  2.5940 -1.6726 -0.1120
   94MOL   H27837664   3.738   5.379   6.332  1.3026  0.6614 -1.1973
   94MOL   H27937665   3.489   5.346   6.375 -2.4784  2.3930  0.7301
   94MOL   H28037666   3.183   5.515   6.063  1.2725  1.2203  0.7292
   94MOL   H28137667   3.234   5.345   6.078  0.3355 -0.9607  1.9818
   94MOL   C28237668   3.038   5.382   6.159 -0.0959  0.4767 -0.2262
   94MOL   C28337669   3.026   5.273   6.263  0.2679 -0.2992  0.4221
   94MOL   C28437670   2.987   5.308   6.398  0.1782  0.3535 -0.1186
   94MOL   C28537671   2.973   5.210   6.502 -0.0347  0.0983 -0.0873
   94MOL   C28637672   3.001   5.076   6.475  0.7088 -0.3377  0.3659
   94MOL   O28737673   2.991   4.978   6.573  0.3109  0.0553 -0.7293
   94MOL   C28837674   3.043   4.844   6.553 -0.0037 -0.0896  0.6328
   94MOL   C28937675   3.018   5.041   6.338  0.5975 -0.4740 -0.6170
   94MOL   C29037676   3.032   5.136   6.236  0.0725 -0.0052 -0.9055
   94MOL   C29137677   2.968   5.336   6.031  0.7463 -0.4465  1.1120
   94MOL   H29237678   2.993   5.478   6.183 -3.0182 -0.6595 -0.9142
   94MOL   H29337679   2.974   5.413   6.420  0.0366 -0.2784  3.0926
   94MOL   H29437680   2.936   5.239   6.599 -2.6322 -3.3599  0.0606
   94MOL   H29537681   3.143   4.845   6.510 -0.0753  0.5271  0.4774
   94MOL   H29637682   3.053   4.788   6.646  3.6412 -1.4904 -0.5282
   94MOL   H29737683   2.974   4.798   6.483  0.6837  0.6569 -0.5544
   94MOL   H29837684   3.031   4.939   6.304 -0.5269 -1.0757  0.6947
   94MOL   H29937685   3.053   5.092   6.140 -1.1473  0.4602 -1.3980
   94MOL   H30037686   2.996   5.404   5.951  0.7792 -1.3150  0.3746
   94MOL   H30137687   3.011   5.241   5.999 -0.0755 -0.8793  1.2590
   94MOL   C30237688   2.815   5.339   6.031  0.7561  0.6575  0.7079
   94MOL   C30337689   2.764   5.466   5.966 -0.3640 -0.1667 -0.9578
   94MOL   C30437690   2.717   5.577   6.036 -0.6867  0.7842  0.0541
   94MOL   C30537691   2.679   5.692   5.971 -0.4211  0.3716  0.0554
   94MOL   C30637692   2.679   5.708   5.833 -0.0225 -0.4028  0.1751
   94MOL   O30737693   2.628   5.822   5.778 -0.4336 -0.4808 -0.1011
   94MOL   C30837694   2.580   5.824   5.645 -0.1773  0.6025 -0.2748
   94MOL   C30937695   2.724   5.597   5.758 -0.2307 -0.4038  0.4342
   94MOL   C31037696   2.772   5.481   5.825 -0.3593  0.2684 -0.5546
   94MOL   C31137697   2.751   5.204   5.981 -0.6541 -0.3151 -0.0584
   94MOL   H31237698   2.788   5.362   6.134 -2.9139  0.8257 -0.2189
   94MOL   H31337699   2.710   5.569   6.143 -0.1620 -3.1799 -0.1030
   94MOL   H31437700   2.626   5.771   6.023 -1.8555 -0.6557  0.2017
   94MOL   H31537701   2.671   5.804   5.588  1.5522  2.6922  1.6307
   94MOL   H31637702   2.534   5.920   5.623  2.2443  1.5962 -1.2325
   94MOL   H31737703   2.519   5.734   5.636  1.4446 -0.9344  3.0938
   94MOL   H31837704   2.717   5.598   5.650  0.6523  1.2788  0.3821
   94MOL   H31937705   2.808   5.403   5.759 -1.6170 -0.7759 -0.0289
   94MOL   H32037706   2.821   5.127   6.014  0.2426  0.1976 -0.7141
   94MOL   H32137707   2.775   5.196   5.875  1.5241 -3.3335  0.5844
   94MOL   C32237708   2.603   5.170   6.011  0.4118 -0.0312  0.0719
   94MOL   C32337709   2.572   5.163   6.157 -0.4576  0.1563 -0.3684
   94MOL   C32437710   2.663   5.109   6.257  0.1687  0.0351 -0.0135
   94MOL   C32537711   2.627   5.116   6.397 -0.1412  0.2561 -0.5878
   94MOL   C32637712   2.505   5.168   6.445  0.3847  0.0370 -0.2030
   94MOL   O32737713   2.475   5.190   6.580  0.1084 -0.2613  0.0044
   94MOL   C32837714   2.545   5.124   6.677 -0.3917  0.4142  0.2331
   94MOL   C32937715   2.414   5.209   6.346  0.6203  0.1712 -0.4101
   94MOL   C33037716   2.449   5.208   6.206 -0.9332 -0.0682 -0.5360
   94MOL   C33137717   2.572   5.037   5.930 -0.5629 -0.0770 -0.1948
   94MOL   H33237718   2.525   5.235   5.971 -3.0350 -3.2880  1.2198
   94MOL   H33337719   2.756   5.063   6.229 -0.8159 -2.1874  0.2629
   94MOL   H33437720   2.702   5.080   6.465 -0.9085  0.5558  0.4245
   94MOL   H33537721   2.520   5.175   6.770  0.4199  4.0015 -1.4472
   94MOL   H33637722   2.650   5.151   6.674  0.1814 -1.7635 -0.2232
   94MOL   H33737723   2.531   5.016   6.685 -0.3320  0.6019  3.5795
   94MOL   H33837724   2.318   5.251   6.371  0.3509 -0.8643  0.3124
   94MOL   H33937725   2.386   5.262   6.137  0.1971 -0.8531 -2.2037
   94MOL   H34037726   2.627   5.039   5.837 -0.2059 -0.2466  0.0104
   94MOL   H34137727   2.627   4.964   5.990  2.5043  1.7624 -0.6803
   94MOL   C34237728   2.431   4.983   5.900  0.6007 -0.2619  0.6183
   94MOL   C34337729   2.423   4.832   5.892  0.9217 -0.5829  0.4294
   94MOL   C34437730   2.315   4.761   5.952 -0.0657  1.1463  0.7197
   94MOL   C34537731   2.310   4.618   5.947 -0.1214  0.5554  0.3986
   94MOL   C34637732   2.415   4.540   5.886 -0.1970 -0.0559 -0.3848
   94MOL   O34737733   2.416   4.400   5.890  0.2349 -0.4275 -0.5559
   94MOL   C34837734   2.294   4.334   5.934  0.0931 -0.0475 -0.4678
   94MOL   C34937735   2.518   4.608   5.821 -0.3392 -0.0395 -1.3095
   94MOL   C35037736   2.523   4.753   5.822  0.6456 -0.1340  0.4305
   94MOL   C35137737   2.370   5.056   5.779 -0.0824  0.0591  0.2373
   94MOL   H35237738   2.376   5.006   5.991  1.9126  0.7898  1.1713
   94MOL   H35337739   2.234   4.812   6.002 -0.1928  1.1835  0.4755
   94MOL   H35437740   2.243   4.567   6.013 -0.2873 -0.6381 -0.6845
   94MOL   H35537741   2.205   4.377   5.888 -0.8542  1.1742  2.3730
   94MOL   H35637742   2.301   4.231   5.900  0.4334 -0.4030  0.6756
   94MOL   H35737743   2.297   4.331   6.043 -1.7093 -0.1585 -0.4087
   94MOL   H35837744   2.606   4.559   5.781  0.6433  1.6995 -1.3287
   94MOL   H35937745   2.607   4.800   5.774  0.0621  1.1736  0.6520
   94MOL   H36037746   2.411   5.157   5.778  1.0283 -0.3637  1.8077
   94MOL   H36137747   2.387   5.010   5.682 -1.4473  1.5024 -0.7127
   94MOL   C36237748   2.212   5.059   5.784 -0.2444  0.0864  0.2124
   94MOL   C36337749   2.138   4.932   5.746  0.6089  0.4763 -0.8491
   94MOL   C36437750   2.165   4.862   5.628  0.9320  0.3105 -0.0042
   94MOL   C36537751   2.081   4.751   5.583 -0.2817 -0.0568 -0.0450
   94MOL   C36637752   1.980   4.701   5.672  0.2660 -0.4828 -0.2929
   94MOL   O36737753   1.899   4.590   5.653 -0.7263  0.4544 -0.0226
   94MOL   C36837754   1.899   4.522   5.530 -0.1454 -0.5364 -0.5918
   94MOL   C36937755   1.957   4.773   5.795 -0.2625  0.9787  0.0689
   94MOL   C37037756   2.031   4.889   5.824  0.5593  0.1398 -0.0339
   94MOL   C37137757   2.148   5.174   5.698  0.2000 -0.3143 -0.4009
   94MOL   H37237758   2.181   5.078   5.887 -1.0162 -0.4004  0.0693
   94MOL   H37337759   2.244   4.888   5.559  0.1355  1.7829 -0.3731
   94MOL   H37437760   2.110   4.705   5.490  0.4021  1.0606 -0.3926
   94MOL   H37537761   1.937   4.590   5.455  0.6650  0.8848  1.0571
   94MOL   H37637762   1.948   4.427   5.552  0.7215 -0.1768 -0.9862
   94MOL   H37737763   1.796   4.496   5.504 -1.3481  0.8235  2.5076
   94MOL   H37837764   1.876   4.746   5.862  0.5537  0.3305  0.8022
   94MOL   H37937765   2.004   4.945   5.912  0.4407  1.3344 -0.8225
   94MOL   H38037766   2.040   5.166   5.709  0.0820  1.8332  0.0269
   94MOL   H38137767   2.174   5.266   5.750  0.0218 -1.1744  1.2518
   94MOL   C38237768   2.184   5.189   5.545 -0.0705 -0.1361 -0.1134
   94MOL   C38337769   2.328   5.218   5.512 -0.2404 -0.2800  0.2311
   94MOL   C38437770   2.386   5.337   5.557  0.0595 -0.4386 -0.3912
   94MOL   C38537771   2.524   5.356   5.540  0.2144  0.2047  0.8209
   94MOL   C38637772   2.608   5.252   5.488  0.2566 -0.0271  0.6469
   94MOL   O38737773   2.744   5.270   5.488  0.5827  0.0760  0.4992
   94MOL   C38837774   2.826   5.166   5.449 -0.3112  0.4619  0.0743
   94MOL   C38937775   2.546   5.136   5.439  0.0695  0.2777 -0.6162
   94MOL   C39037776   2.408   5.119   5.453  0.0368  0.8043  0.5915
   94MOL   C39137777   2.098   5.292   5.480 -0.0628  0.0375 -0.1486
   94MOL   H39237778   2.165   5.089   5.506 -1.3461 -0.1443  0.4873
   94MOL   H39337779   2.328   5.416   5.601  0.8925  0.1913 -0.4167
   94MOL   H39437780   2.588   5.439   5.566 -0.1437  0.4243  1.0121
   94MOL   H39537781   2.813   5.159   5.341  0.3002 -0.4864  0.0583
   94MOL   H39637782   2.811   5.064   5.486  0.8310  0.2576 -0.0083
   94MOL   H39737783   2.926   5.198   5.478  0.2205 -0.6126 -0.5320
   94MOL   H39837784   2.601   5.053   5.398 -0.3015 -0.5705  0.6017
   94MOL   H39937785   2.369   5.030   5.406  1.6727  1.0024 -1.1939
   94MOL   H40037786   2.124   5.293   5.374 -0.9631  1.6259 -0.3656
   94MOL   H40137787   2.113   5.393   5.518  0.2840  0.3007 -0.9875
   94MOL   H40237788   1.990   5.276   5.475 -0.0147 -0.5055  0.4497
   95MOL     C137789   4.047   6.844   5.315 -0.3613  0.0191 -0.5223
   95MOL     C237790   3.985   6.937   5.214  0.6783  0.1541  0.1475
   95MOL     C337791   3.906   7.047   5.258  0.7981  0.6111  0.0119
   95MOL     C437792   3.831   7.128   5.168 -0.2679  0.8422 -0.1164
   95MOL     C537793   3.839   7.108   5.028 -0.4521 -0.7059  0.3959
   95MOL     O637794   3.774   7.184   4.937 -0.1224  0.5099 -0.0320
   95MOL     C737795   3.766   7.325   4.957  0.2954 -0.6684  0.1034
   95MOL     C837796   3.921   7.004   4.984  0.8682  0.2234 -0.5091
   95MOL     C937797   3.988   6.912   5.074  0.6182  0.2549 -0.2967
   95MOL    C1037798   4.193   6.877   5.332  0.2537  1.1136  0.0268
   95MOL    H1137799   4.019   6.740   5.300  1.8517 -0.3304 -2.3420
   95MOL    H1237800   3.888   7.072   5.361  3.0770  2.7702 -0.0776
   95MOL    H1337801   3.781   7.217   5.204  0.0014  0.5242  1.0520
   95MOL    H1437802   3.865   7.370   4.965  0.7845 -1.3898 -1.7642
   95MOL    H1537803   3.721   7.365   4.867 -1.1002  1.2036  1.6047
   95MOL    H1637804   3.719   7.350   5.053  0.3839 -1.9205  0.4843
   95MOL    H1737805   3.927   6.987   4.878 -0.8005 -1.8179 -0.3013
   95MOL    H1837806   4.033   6.825   5.027 -2.1576 -0.6889 -1.3267
   95MOL    H1937807   4.193   6.983   5.358 -2.9780  1.1945 -0.1115
   95MOL    H2037808   4.217   6.820   5.421  0.6907  1.3115  0.0412
   95MOL    H2137809   3.989   6.862   5.406  0.2822  0.8173 -0.2642
   95MOL    C2237810   4.278   6.838   5.221 -0.0739 -0.1950 -0.2239
   95MOL    C2337811   4.358   6.954   5.161  0.1948  0.5388  0.7808
   95MOL    C2437812   4.481   7.001   5.218  0.1156 -0.0178  0.4142
   95MOL    C2537813   4.558   7.096   5.151  0.2813 -0.6120  0.2591
   95MOL    C2637814   4.524   7.145   5.028  0.4670 -0.4836  0.4750
   95MOL    O2737815   4.618   7.236   4.974  0.1066  0.3055  0.1160
   95MOL    C2837816   4.597   7.294   4.846  0.2822  1.2250  0.1316
   95MOL    C2937817   4.407   7.095   4.965  0.2411  0.8952  0.4070
   95MOL    C3037818   4.318   7.011   5.036  0.2315 -0.4620 -0.1855
   95MOL    C3137819   4.375   6.740   5.271 -1.0513 -0.7685  0.4625
   95MOL    H3237820   4.220   6.793   5.140 -0.2248 -2.3369  1.0333
   95MOL    H3337821   4.514   6.968   5.316 -1.4404 -0.7818  0.6932
   95MOL    H3437822   4.648   7.130   5.201 -0.2732 -0.2912  1.0413
   95MOL    H3537823   4.495   7.320   4.818  0.0521  0.3851  0.1714
   95MOL    H3637824   4.648   7.239   4.767 -1.0806  0.3635 -0.1644
   95MOL    H3737825   4.645   7.389   4.868  0.7443  0.9814  0.1984
   95MOL    H3837826   4.389   7.106   4.860 -0.2894  1.2891  0.5417
   95MOL    H3937827   4.237   6.960   4.987  0.1149  1.1082 -1.6593
   95MOL    H4037828   4.426   6.784   5.357 -0.8991 -1.9775  1.0081
   95MOL    H4137829   4.315   6.656   5.307 -2.0947 -0.2711 -0.0778
   95MOL    C4237830   4.477   6.689   5.165  0.5044  0.1459  0.3478
   95MOL    C4337831   4.416   6.632   5.038  0.5832  0.1577 -0.4737
   95MOL    C4437832   4.471   6.675   4.915  0.8597 -0.6907  0.3226
   95MOL    C4537833   4.402   6.657   4.792 -0.3706 -0.2848 -0.6367
   95MOL    C4637834   4.274   6.604   4.793 -0.4109 -0.7647 -0.6703
   95MOL    O4737835   4.187   6.594   4.684  0.0261 -0.1990  0.0398
   95MOL    C4837836   4.242   6.597   4.552  0.4326 -0.2903  0.1493
   95MOL    C4937837   4.222   6.554   4.913 -0.4273 -0.0862  0.1212
   95MOL    C5037838   4.293   6.565   5.032  0.4144  0.1936  0.1473
   95MOL    C5137839   4.569   6.580   5.211 -0.3519  0.4050 -0.1716
   95MOL    H5237840   4.542   6.771   5.134  1.3066 -0.2016  1.1031
   95MOL    H5337841   4.550   6.749   4.921  0.6962 -0.5828  1.1872
   95MOL    H5437842   4.451   6.703   4.708 -0.2464 -0.0636 -0.4444
   95MOL    H5537843   4.257   6.496   4.514  1.4637  0.5242 -1.6746
   95MOL    H5637844   4.161   6.628   4.485  0.6700 -1.8248 -0.8899
   95MOL    H5737845   4.331   6.656   4.536  0.1285 -0.0200 -0.5694
   95MOL    H5837846   4.122   6.514   4.911 -0.8335  0.8830  0.6262
   95MOL    H5937847   4.247   6.527   5.122 -3.9218 -1.9231 -2.7895
   95MOL    H6037848   4.628   6.547   5.125 -0.9263 -1.2986  0.0783
   95MOL    H6137849   4.518   6.487   5.233  1.2255 -0.8764 -1.7298
   95MOL    C6237850   4.664   6.611   5.324 -0.3681 -0.1833  0.3551
   95MOL    C6337851   4.752   6.735   5.288  0.5591  0.7581 -0.3349
   95MOL    C6437852   4.839   6.729   5.177 -0.1670  0.0313  0.2367
   95MOL    C6537853   4.922   6.839   5.142  0.1130  0.6900  1.1460
   95MOL    C6637854   4.917   6.953   5.225 -0.6404 -0.3764  0.0278
   95MOL    O6737855   5.006   7.057   5.212  0.3866 -0.4361 -0.9618
   95MOL    C6837856   5.069   7.084   5.084 -0.1492 -0.1414  0.6225
   95MOL    C6937857   4.834   6.958   5.337 -0.7682  0.3378 -0.1166
   95MOL    C7037858   4.752   6.847   5.372 -0.1383 -0.3739 -0.4522
   95MOL    C7137859   4.740   6.486   5.367  0.2537 -0.0372 -0.0561
   95MOL    H7237860   4.612   6.648   5.412 -0.2354 -1.0240  0.7905
   95MOL    H7337861   4.836   6.639   5.117  0.0508 -0.4288  0.9081
   95MOL    H7437862   4.981   6.821   5.054 -1.0148  0.4420  0.4267
   95MOL    H7537863   5.134   7.171   5.080 -0.9982  0.4927  0.4576
   95MOL    H7637864   4.989   7.112   5.015  0.6094  1.8947  0.5450
   95MOL    H7737865   5.118   6.992   5.051 -1.1968 -0.5570  0.1900
   95MOL    H7837866   4.831   7.045   5.402  0.3854  0.0133  0.3915
   95MOL    H7937867   4.685   6.844   5.456 -0.3803 -0.8026 -0.6602
   95MOL    H8037868   4.675   6.398   5.365  2.2725 -1.5700  0.0848
   95MOL    H8137869   4.815   6.464   5.291 -0.0461  4.5954 -1.8663
   95MOL    C8237870   4.805   6.500   5.510 -0.1554 -0.4731 -0.0020
   95MOL    C8337871   4.701   6.477   5.623  0.0598 -0.3218  0.7730
   95MOL    C8437872   4.627   6.357   5.632 -0.1083 -0.5593  0.4504
   95MOL    C8537873   4.535   6.337   5.734 -0.2192  0.0785 -0.0403
   95MOL    C8637874   4.512   6.437   5.826  0.3495  0.3766  0.6726
   95MOL    O8737875   4.426   6.403   5.927 -0.1429 -0.0181 -0.6399
   95MOL    C8837876   4.444   6.465   6.053  0.3883  0.0277  1.2067
   95MOL    C8937877   4.583   6.565   5.819 -0.0104 -0.2346 -0.3404
   95MOL    C9037878   4.679   6.582   5.719  0.3043 -0.3709  0.0636
   95MOL    C9137879   4.940   6.428   5.526 -0.4505  0.0698  0.1640
   95MOL    H9237880   4.840   6.603   5.521 -0.4077 -0.3717 -0.1569
   95MOL    H9337881   4.646   6.280   5.560  0.9301  0.4349 -0.3603
   95MOL    H9437882   4.473   6.249   5.734  0.3789 -0.3499  0.0940
   95MOL    H9537883   4.439   6.573   6.040 -2.5389  0.3038  3.8614
   95MOL    H9637884   4.540   6.440   6.098  0.8001 -1.0044 -0.1938
   95MOL    H9737885   4.360   6.429   6.113  1.3409 -2.2848  1.2106
   95MOL    H9837886   4.563   6.641   5.892 -0.7146 -0.3398 -0.4184
   95MOL    H9937887   4.739   6.672   5.729  0.8397 -0.7706  0.5411
   95MOL   H10037888   4.952   6.448   5.633 -0.3573 -0.6355  0.2870
   95MOL   H10137889   4.930   6.320   5.522  1.6181 -0.1114 -0.4428
   95MOL   C10237890   5.059   6.486   5.449 -0.3743 -0.1839 -0.5736
   95MOL   C10337891   5.114   6.616   5.511 -0.6923  0.2510 -0.1097
   95MOL   C10437892   5.178   6.600   5.637  0.4943 -0.3656  0.5856
   95MOL   C10537893   5.229   6.712   5.698  0.7887  0.0589  0.0520
   95MOL   C10637894   5.207   6.846   5.646  0.0858  0.3882  0.4286
   95MOL   O10737895   5.260   6.958   5.715 -0.0887 -0.5853  0.4303
   95MOL   C10837896   5.265   7.081   5.650 -0.5587 -0.4272  0.2080
   95MOL   C10937897   5.133   6.855   5.526 -1.1524 -0.3541 -0.2911
   95MOL   C11037898   5.098   6.743   5.451  0.0313 -0.9022 -0.3737
   95MOL   C11137899   5.171   6.381   5.435  0.6285  0.1621  0.3568
   95MOL   H11237900   5.031   6.526   5.352  1.1584 -1.0480 -1.3872
   95MOL   H11337901   5.207   6.506   5.681  1.1929 -0.0402  0.8333
   95MOL   H11437902   5.279   6.697   5.792  1.0771  1.2363  0.0890
   95MOL   H11537903   5.173   7.139   5.662 -1.2107 -1.0289 -1.6735
   95MOL   H11637904   5.346   7.134   5.701 -0.8473  0.3008 -0.0792
   95MOL   H11737905   5.289   7.074   5.544  0.1692  0.1914  0.3256
   95MOL   H11837906   5.102   6.946   5.477 -0.5232 -0.9153 -1.7484
   95MOL   H11937907   5.051   6.755   5.355 -0.8700  0.9568  0.2832
   95MOL   H12037908   5.264   6.431   5.408 -0.1414  1.3748 -0.0557
   95MOL   H12137909   5.201   6.345   5.533 -2.1056  0.0670  1.1987
   95MOL   C12237910   5.134   6.260   5.336 -0.0317  0.6078 -0.2987
   95MOL   C12337911   5.226   6.135   5.348 -0.4967 -0.2488 -0.2176
   95MOL   C12437912   5.330   6.119   5.256  0.5558  0.8987 -0.6196
   95MOL   C12537913   5.414   6.007   5.255  0.3880 -0.2315  0.2492
   95MOL   C12637914   5.408   5.907   5.345  0.0349  0.0050  0.3628
   95MOL   O12737915   5.489   5.797   5.335 -0.4602 -0.0679  0.4360
   95MOL   C12837916   5.471   5.698   5.436  0.4192 -0.1840  0.3287
   95MOL   C12937917   5.307   5.927   5.448 -0.2388 -0.1272  0.0490
   95MOL   C13037918   5.218   6.037   5.453  0.8818  1.1498 -0.7007
   95MOL   C13137919   5.091   6.308   5.195  0.5111 -0.4259  0.5423
   95MOL   H13237920   5.041   6.217   5.374 -0.3032 -0.7411 -2.4246
   95MOL   H13337921   5.340   6.195   5.181 -0.6675  2.7864  1.0602
   95MOL   H13437922   5.483   6.002   5.172 -0.3707 -1.8449 -0.3051
   95MOL   H13537923   5.365   5.674   5.447  0.1963 -0.2820 -1.9566
   95MOL   H13637924   5.542   5.615   5.439  1.1459  0.3740 -1.1673
   95MOL   H13737925   5.479   5.743   5.536 -0.3019  1.6783 -0.4228
   95MOL   H13837926   5.294   5.853   5.525  1.2046 -1.9435 -1.3805
   95MOL   H13937927   5.140   6.044   5.527 -0.2866  0.1450 -1.8129
   95MOL   H14037928   5.169   6.376   5.160 -0.6635 -0.4095 -2.1813
   95MOL   H14137929   5.003   6.372   5.198 -0.6744 -1.9848 -0.2923
   95MOL   C14237930   5.056   6.209   5.087 -0.1037 -0.6147  0.4003
   95MOL   C14337931   4.941   6.121   5.135 -0.1961  0.1558  0.1123
   95MOL   C14437932   4.814   6.177   5.158  1.2215 -0.3402  0.0987
   95MOL   C14537933   4.710   6.094   5.199  0.1614 -0.1470 -1.0634
   95MOL   C14637934   4.730   5.962   5.232  0.1197 -0.2438 -0.2440
   95MOL   O14737935   4.619   5.895   5.276  0.5890  0.6657  0.1124
   95MOL   C14837936   4.634   5.765   5.329 -0.2044 -0.1986 -0.1210
   95MOL   C14937937   4.864   5.903   5.220  0.7678 -0.1250  0.2581
   95MOL   C15037938   4.966   5.985   5.168  0.4574 -0.3538  0.8812
   95MOL   C15137939   5.037   6.266   4.948  0.1441  0.3016 -0.7012
   95MOL   H15237940   5.142   6.144   5.068 -0.1287 -0.8771  1.1689
   95MOL   H15337941   4.789   6.279   5.133 -1.0327 -0.3196  2.3259
   95MOL   H15437942   4.609   6.131   5.199 -0.0411 -0.6936 -1.4386
   95MOL   H15537943   4.548   5.716   5.375 -0.5555  1.7751  1.4158
   95MOL   H15637944   4.664   5.712   5.238  1.9017  0.9546 -0.1334
   95MOL   H15737945   4.721   5.768   5.394 -0.3749  2.5320  0.0327
   95MOL   H15837946   4.864   5.799   5.249  1.8555 -0.1554  0.1513
   95MOL   H15937947   5.063   5.939   5.178 -0.1607 -1.5727  1.4938
   95MOL   H16037948   5.126   6.320   4.916  0.9777 -0.4361  0.3188
   95MOL   H16137949   4.959   6.340   4.968 -1.9290 -2.3165  1.3729
   95MOL   C16237950   4.984   6.168   4.839 -0.3212 -0.0851 -0.5354
   95MOL   C16337951   5.100   6.076   4.811 -0.9607 -0.0574 -0.2487
   95MOL   C16437952   5.218   6.120   4.747 -0.4400 -0.0294  0.6316
   95MOL   C16537953   5.331   6.034   4.728  0.0302  0.0794 -0.2239
   95MOL   C16637954   5.327   5.904   4.781  0.5628 -0.4966 -0.1897
   95MOL   O16737955   5.439   5.820   4.770 -0.0101 -0.0574  0.1720
   95MOL   C16837956   5.573   5.878   4.745 -0.0619  0.4085  0.3153
   95MOL   C16937957   5.202   5.854   4.837  0.2600  1.1952 -0.8721
   95MOL   C17037958   5.090   5.938   4.844  0.0325  0.2250  0.1874
   95MOL   C17137959   4.940   6.258   4.718  0.1029  0.1298  0.5220
   95MOL   H17237960   4.899   6.115   4.882 -0.4123 -1.1786 -2.0402
   95MOL   H17337961   5.224   6.219   4.704  1.2933  0.2191  1.4050
   95MOL   H17437962   5.413   6.060   4.664  2.0461 -3.7642  0.6860
   95MOL   H17537963   5.663   5.816   4.745 -0.4372 -0.1383  0.6611
   95MOL   H17637964   5.587   5.952   4.824 -0.9080  1.0371 -0.1191
   95MOL   H17737965   5.573   5.916   4.643 -0.1057 -5.4702 -2.0581
   95MOL   H17837966   5.196   5.751   4.870  2.7934  1.1196 -0.5261
   95MOL   H17937967   5.002   5.904   4.896  1.1679 -1.2846  1.1511
   95MOL   H18037968   4.931   6.191   4.632 -1.3436  1.8473 -0.6937
   95MOL   H18137969   5.010   6.337   4.692 -1.8777  1.6627 -0.3133
   95MOL   C18237970   4.800   6.325   4.730 -0.3082 -0.5214 -0.0665
   95MOL   C18337971   4.699   6.213   4.738  0.0010  0.4109  0.3318
   95MOL   C18437972   4.623   6.185   4.855 -0.4867 -0.2508 -0.5871
   95MOL   C18537973   4.532   6.078   4.857 -0.1644  0.2839  0.8827
   95MOL   C18637974   4.519   5.996   4.743 -0.4447 -0.0925 -0.7072
   95MOL   O18737975   4.441   5.883   4.761 -0.1307  0.3231  0.0681
   95MOL   C18837976   4.425   5.782   4.668  0.1397 -0.0627  0.0733
   95MOL   C18937977   4.588   6.022   4.627  0.0413 -0.0956  0.0451
   95MOL   C19037978   4.671   6.136   4.620  0.4573  0.2096  0.1271
   95MOL   C19137979   4.770   6.433   4.623  0.0312  0.1922 -0.6060
   95MOL   H19237980   4.799   6.380   4.824 -1.9656 -1.1097  0.2787
   95MOL   H19337981   4.633   6.235   4.951  1.1731 -1.0229 -0.3466
   95MOL   H19437982   4.473   6.049   4.942 -1.8667 -1.5572 -0.8519
   95MOL   H19537983   4.331   5.786   4.613  1.3515  0.9384 -1.9936
   95MOL   H19637984   4.407   5.695   4.730 -1.0377  0.2846  0.2440
   95MOL   H19737985   4.505   5.740   4.608 -2.6040 -3.4433 -1.3456
   95MOL   H19837986   4.581   5.967   4.534  0.7422  1.1671 -0.7741
   95MOL   H19937987   4.711   6.170   4.526  2.0294  0.3421  0.8363
   95MOL   H20037988   4.757   6.396   4.521 -2.8403  0.0715 -0.2292
   95MOL   H20137989   4.668   6.456   4.655 -0.7206  0.2116 -2.8708
   95MOL   C20237990   4.852   6.559   4.644  0.5239  1.2298 -0.3905
   95MOL   C20337991   4.771   6.681   4.638  0.5165  0.0612 -0.4102
   95MOL   C20437992   4.773   6.778   4.739  0.3213  0.0190  0.4393
   95MOL   C20537993   4.694   6.897   4.729  0.6454  0.5880 -0.4176
   95MOL   C20637994   4.615   6.922   4.614  0.4848 -0.4001  0.5925
   95MOL   O20737995   4.544   7.045   4.608 -0.3037 -0.2348  0.0996
   95MOL   C20837996   4.503   7.083   4.476  0.0182 -0.9647  0.5672
   95MOL   C20937997   4.613   6.825   4.510 -1.1551  0.4360 -0.2158
   95MOL   C21037998   4.687   6.705   4.530  0.1381  0.2852 -0.3809
   95MOL   C21137999   4.957   6.565   4.535  0.2801  0.1553 -0.1771
   95MOL   H21238000   4.908   6.554   4.737  1.0645 -2.8679 -0.8372
   95MOL   H21338001   4.834   6.765   4.827 -0.6787  0.7587  1.2481
   95MOL   H21438002   4.691   6.984   4.793  1.0995 -0.3504  0.8812
   95MOL   H21538003   4.591   7.110   4.417 -0.7285 -0.6892 -0.4288
   95MOL   H21638004   4.453   7.004   4.420 -0.5346  0.5193 -1.0732
   95MOL   H21738005   4.439   7.171   4.476  2.1493  0.6356 -0.5109
   95MOL   H21838006   4.543   6.825   4.427 -0.7453 -0.9240 -0.5799
   95MOL   H21938007   4.673   6.630   4.454 -0.5742  0.8283 -0.7978
   95MOL   H22038008   4.910   6.582   4.439 -0.6165 -0.6796  0.1038
   95MOL   H22138009   5.003   6.466   4.530 -2.3763 -1.0793 -0.6201
   95MOL   C22238010   5.079   6.659   4.560 -0.0625  0.2557  0.3229
   95MOL   C22338011   5.148   6.634   4.695  0.3463 -0.1205 -1.0798
   95MOL   C22438012   5.132   6.729   4.801 -0.0941  0.2332 -0.0854
   95MOL   C22538013   5.209   6.708   4.916 -0.2949  0.5187 -0.4968
   95MOL   C22638014   5.287   6.591   4.936 -0.0790  0.7628 -0.2241
   95MOL   O22738015   5.363   6.554   5.045  0.0966 -0.3647 -0.3358
   95MOL   C22838016   5.338   6.627   5.161  0.3361 -0.5257  0.2647
   95MOL   C22938017   5.291   6.494   4.834 -0.0516 -0.0477  0.7252
   95MOL   C23038018   5.223   6.513   4.714  0.1514  0.2388  0.7473
   95MOL   C23138019   5.170   6.687   4.437  0.1591  0.2080 -0.2391
   95MOL   H23238020   5.021   6.750   4.578 -0.7438 -0.1110 -0.0234
   95MOL   H23338021   5.059   6.807   4.807  0.5553  0.9276 -1.0383
   95MOL   H23438022   5.201   6.779   4.997  0.0169 -0.2000  0.1724
   95MOL   H23538023   5.247   6.596   5.212 -0.0471  1.0655  0.5432
   95MOL   H23638024   5.411   6.587   5.231 -0.3748 -2.9097 -0.3047
   95MOL   H23738025   5.338   6.735   5.156 -2.3785 -0.5729 -1.9359
   95MOL   H23838026   5.360   6.413   4.850  0.7289  0.3519 -0.5078
   95MOL   H23938027   5.232   6.438   4.637 -1.4804 -0.3585  1.1063
   95MOL   H24038028   5.114   6.730   4.354 -1.2222 -3.0042 -1.0566
   95MOL   H24138029   5.239   6.765   4.469 -1.5520  1.2235  1.0840
   95MOL   C24238030   5.257   6.571   4.378  0.0996 -0.0149 -0.5324
   95MOL   C24338031   5.181   6.454   4.318 -0.4560  0.1640 -0.3181
   95MOL   C24438032   5.195   6.321   4.364  0.0444  0.6313 -0.0836
   95MOL   C24538033   5.124   6.214   4.307  0.1557  0.7959  0.4414
   95MOL   C24638034   5.035   6.238   4.201 -0.2057  0.6421 -0.2571
   95MOL   O24738035   4.960   6.135   4.139 -0.2146 -0.2544 -0.3289
   95MOL   C24838036   4.931   6.028   4.227 -0.9478  0.1034  0.7849
   95MOL   C24938037   5.024   6.372   4.157  0.1319  0.3098 -0.8023
   95MOL   C25038038   5.085   6.480   4.219 -0.1776 -0.7349 -0.1081
   95MOL   C25138039   5.356   6.631   4.273 -0.1672 -0.4809 -0.1894
   95MOL   H25238040   5.318   6.526   4.456  3.2719  1.0553 -2.3234
   95MOL   H25338041   5.271   6.289   4.434  1.2106  1.2347 -1.0600
   95MOL   H25438042   5.128   6.116   4.352 -1.6704  0.2704 -0.5163
   95MOL   H25538043   5.020   5.964   4.227 -0.7618  0.3572  1.3242
   95MOL   H25638044   4.915   6.057   4.331  0.6105 -0.7170  1.2710
   95MOL   H25738045   4.847   5.970   4.190 -2.3026  0.9262  2.4643
   95MOL   H25838046   4.953   6.400   4.080 -1.8874 -0.2287  0.8225
   95MOL   H25938047   5.066   6.582   4.188  0.6737 -0.5139  0.0903
   95MOL   H26038048   5.289   6.686   4.207  1.0166 -0.2581 -1.2235
   95MOL   H26138049   5.398   6.552   4.210  1.7154  0.4181 -0.1111
   95MOL   C26238050   5.476   6.716   4.320 -0.8751 -0.3214  0.4006
   95MOL   C26338051   5.532   6.789   4.200  0.3611 -0.0822  0.3890
   95MOL   C26438052   5.602   6.729   4.097  0.3280 -0.3926  0.4593
   95MOL   C26538053   5.634   6.796   3.981  0.2087 -0.4454 -0.1111
   95MOL   C26638054   5.577   6.923   3.961  0.0130  0.2467  0.8248
   95MOL   O26738055   5.596   6.993   3.847  0.1342 -0.4878 -0.6066
   95MOL   C26838056   5.688   6.949   3.750  0.1232  0.2979  0.0045
   95MOL   C26938057   5.502   6.982   4.063  0.3143  0.0423 -0.6397
   95MOL   C27038058   5.485   6.921   4.188 -0.4833  0.2724  0.1015
   95MOL   C27138059   5.572   6.622   4.400 -0.2243  0.3390 -0.4163
   95MOL   H27238060   5.452   6.796   4.390  1.1294 -0.0769  0.8285
   95MOL   H27338061   5.647   6.631   4.108 -0.1061 -0.4900  1.5073
   95MOL   H27438062   5.693   6.749   3.903 -2.2185 -0.7280 -1.8216
   95MOL   H27538063   5.783   6.922   3.797  0.2228  0.8112  0.0930
   95MOL   H27638064   5.692   7.030   3.678 -0.4713  0.9798  0.7223
   95MOL   H27738065   5.655   6.855   3.705 -1.5393  0.3254  1.0804
   95MOL   H27838066   5.472   7.085   4.047  0.0174  0.2130  0.9255
   95MOL   H27938067   5.431   6.976   4.263 -0.0397  0.0292  0.6023
   95MOL   H28038068   5.515   6.608   4.492  1.9447 -1.6321  0.7123
   95MOL   H28138069   5.591   6.524   4.356 -1.7610  0.6882 -1.8952
   95MOL   C28238070   5.705   6.693   4.434  0.3501  0.1984  0.3134
   95MOL   C28338071   5.817   6.606   4.367  0.1656 -0.5189 -0.0747
   95MOL   C28438072   5.892   6.648   4.256  0.5862  0.7509 -0.1379
   95MOL   C28538073   5.989   6.558   4.198  0.6883 -0.3973 -0.5910
   95MOL   C28638074   6.027   6.439   4.265 -0.4173  0.3400 -0.2347
   95MOL   O28738075   6.124   6.365   4.202  0.5598 -0.4137  0.4967
   95MOL   C28838076   6.113   6.225   4.221 -0.1805 -0.5498  0.4734
   95MOL   C28938077   5.946   6.397   4.371 -0.0433  0.1052 -0.4678
   95MOL   C29038078   5.846   6.479   4.426 -0.0360  0.5530  0.0007
   95MOL   C29138079   5.737   6.715   4.587 -0.1754 -0.6596  0.1740
   95MOL   H29238080   5.700   6.794   4.395 -2.7564 -0.2415 -0.5368
   95MOL   H29338081   5.882   6.747   4.213 -1.6306  1.1075  1.0921
   95MOL   H29438082   6.053   6.593   4.119  0.1956  2.5805  0.2715
   95MOL   H29538083   6.135   6.209   4.327  2.0496  0.0386  0.1262
   95MOL   H29638084   6.011   6.197   4.193 -0.5799  0.8178  0.5361
   95MOL   H29738085   6.173   6.175   4.145 -1.2819 -0.9826 -0.1347
   95MOL   H29838086   5.962   6.300   4.416 -0.1907  0.1892 -0.2304
   95MOL   H29938087   5.797   6.439   4.513  0.1380  0.4631  0.0562
   95MOL   H30038088   5.721   6.621   4.640  1.6298 -0.8742  0.3562
   95MOL   H30138089   5.843   6.735   4.598 -0.9216  2.4805  2.1294
   95MOL   C30238090   5.665   6.826   4.666  0.5343  0.7370 -0.4885
   95MOL   C30338091   5.715   6.807   4.811 -0.2818 -0.0373 -0.2769
   95MOL   C30438092   5.848   6.858   4.842  0.6455  1.0986  0.0572
   95MOL   C30538093   5.906   6.850   4.967  0.0492  0.2380 -0.0762
   95MOL   C30638094   5.826   6.802   5.073 -0.5998  0.4910  0.5676
   95MOL   O30738095   5.864   6.797   5.207  0.3999  0.0884  0.1146
   95MOL   C30838096   5.958   6.898   5.238 -0.7189 -0.3948  0.2707
   95MOL   C30938097   5.698   6.748   5.045 -0.2309 -0.4656  0.2377
   95MOL   C31038098   5.637   6.754   4.915 -0.6431  0.0907 -0.2450
   95MOL   C31138099   5.678   6.976   4.619 -0.2547  0.4172 -0.0911
   95MOL   H31238100   5.561   6.796   4.660  0.7983 -0.7597  2.0723
   95MOL   H31338101   5.908   6.898   4.762  1.5800  1.0163  0.6949
   95MOL   H31438102   6.011   6.875   4.974  0.1531  0.2794 -1.5981
   95MOL   H31538103   6.050   6.883   5.182 -0.4089  2.5549 -0.1005
   95MOL   H31638104   5.987   6.901   5.343  0.7888 -0.4971 -0.1378
   95MOL   H31738105   5.922   6.994   5.199 -0.7698 -0.3243  0.4895
   95MOL   H31838106   5.636   6.705   5.122  0.5929 -0.9669  0.6338
   95MOL   H31938107   5.535   6.723   4.894 -1.0684  0.7327  0.8650
   95MOL   H32038108   5.656   6.986   4.512  0.9717 -1.6278 -0.5591
   95MOL   H32138109   5.786   6.988   4.614 -0.4694  2.2754 -0.6938
   95MOL   C32238110   5.608   7.093   4.698  0.0711 -0.1062 -0.0193
   95MOL   C32338111   5.458   7.084   4.678  0.1949 -0.1074  0.6546
   95MOL   C32438112   5.366   7.056   4.787 -0.2526 -0.3521 -0.3654
   95MOL   C32538113   5.229   7.041   4.761 -1.2677 -0.3579 -0.1301
   95MOL   C32638114   5.180   7.075   4.630 -0.1761  0.9810  0.0743
   95MOL   O32738115   5.044   7.084   4.594 -0.2513  0.6693  0.1029
   95MOL   C32838116   4.954   7.091   4.708  0.1580  0.8106  0.4789
   95MOL   C32938117   5.269   7.109   4.527  0.0712 -0.0013  0.2622
   95MOL   C33038118   5.405   7.101   4.549 -0.4344 -0.2467  0.1930
   95MOL   C33138119   5.658   7.236   4.655  0.6773  0.3515 -0.4564
   95MOL   H33238120   5.634   7.081   4.803  0.4118 -0.1672 -0.1102
   95MOL   H33338121   5.408   7.049   4.886 -0.3915  2.1385 -0.1086
   95MOL   H33438122   5.162   7.014   4.842 -1.7281  1.1372  0.0024
   95MOL   H33538123   4.956   7.008   4.778  0.3921  2.3600  2.3539
   95MOL   H33638124   4.853   7.110   4.674 -0.2162  1.8300  2.1075
   95MOL   H33738125   4.979   7.184   4.759 -1.1980  1.2734  0.3251
   95MOL   H33838126   5.243   7.145   4.429  0.9183 -0.6721 -0.2108
   95MOL   H33938127   5.471   7.115   4.465  0.4290 -3.3735  0.2861
   95MOL   H34038128   5.682   7.234   4.549  1.3678  0.4857 -0.3036
   95MOL   H34138129   5.578   7.308   4.672 -0.5059 -1.1688  0.5450
   95MOL   C34238130   5.773   7.290   4.734 -0.1289 -0.3778 -0.0436
   95MOL   C34338131   5.741   7.314   4.884  0.3112  0.0958 -0.3839
   95MOL   C34438132   5.812   7.247   4.983  0.3816  0.2310  0.6234
   95MOL   C34538133   5.781   7.265   5.123  0.9027  0.0174  0.1174
   95MOL   C34638134   5.681   7.358   5.164  0.1263  1.0890  0.2830
   95MOL   O34738135   5.639   7.375   5.293  0.0770  0.2217 -0.4713
   95MOL   C34838136   5.715   7.328   5.399  0.4277  0.5064 -0.0204
   95MOL   C34938137   5.611   7.427   5.059 -0.0677 -0.7477 -0.8569
   95MOL   C35038138   5.631   7.398   4.923 -0.0664 -0.4020  0.8414
   95MOL   C35138139   5.816   7.423   4.664 -0.0795  0.5616 -0.1439
   95MOL   H35238140   5.851   7.215   4.723 -0.3086 -0.9097  1.9975
   95MOL   H35338141   5.890   7.179   4.954  0.7853  2.0698 -2.9025
   95MOL   H35438142   5.855   7.214   5.184  1.9020  0.0122 -1.0811
   95MOL   H35538143   5.820   7.338   5.372  0.6455 -0.2213  0.5361
   95MOL   H35638144   5.694   7.393   5.484  1.1897  0.1008  0.4775
   95MOL   H35738145   5.704   7.224   5.429 -0.9304  0.5237 -0.4210
   95MOL   H35838146   5.526   7.489   5.082 -1.6642 -3.3647  0.5606
   95MOL   H35938147   5.566   7.433   4.843  1.0269 -0.0556  0.0892
   95MOL   H36038148   5.838   7.411   4.559 -0.7192 -0.5475 -0.1570
   95MOL   H36138149   5.732   7.492   4.653  1.1732  1.9970 -0.7520
   95MOL   C36238150   5.933   7.500   4.728  0.4952  0.3081  0.2522
   95MOL   C36338151   5.904   7.650   4.712 -0.3939  0.8394  0.0349
   95MOL   C36438152   5.875   7.726   4.819 -0.7001  0.5059  0.1150
   95MOL   C36538153   5.851   7.864   4.804 -0.0249  0.7370 -0.3183
   95MOL   C36638154   5.867   7.926   4.675 -0.1872  0.5548  0.3898
   95MOL   O36738155   5.840   0.020   4.659 -0.1307 -0.6496  0.2991
   95MOL   C36838156   5.851   0.101   4.780 -0.3144  0.0288 -0.5135
   95MOL   C36938157   5.890   7.844   4.565 -0.2054 -0.1236 -0.3345
   95MOL   C37038158   5.918   7.707   4.582 -0.0477 -0.1323  0.3148
   95MOL   C37138159   6.071   7.457   4.690 -0.0057 -0.6383 -0.1606
   95MOL   H37238160   5.923   7.485   4.836 -1.4727 -1.6666 -0.1662
   95MOL   H37338161   5.881   7.687   4.919  0.9396  2.2090  0.7076
   95MOL   H37438162   5.844   7.920   4.897 -1.2301 -0.5104  0.3586
   95MOL   H37538163   5.762   0.118   4.840  1.3173  1.3908  1.6119
   95MOL   H37638164   5.922   0.061   4.853  1.3283  5.6231  1.2690
   95MOL   H37738165   5.889   0.202   4.763 -0.4143  0.5679  2.2906
   95MOL   H37838166   5.875   7.885   4.466  0.6043  1.0235  0.0212
   95MOL   H37938167   5.946   7.644   4.500  2.4642  0.0830  0.9678
   95MOL   H38038168   6.087   7.349   4.691  3.9794 -0.1531 -1.4893
   95MOL   H38138169   6.099   7.468   4.585 -1.0434 -1.4134 -0.5335
   95MOL   C38238170   6.190   7.499   4.779  0.3462  0.1980  0.7277
   95MOL   C38338171   6.320   7.502   4.703 -0.1120  0.1949  0.3951
   95MOL   C38438172   6.364   7.626   4.660  0.2085  0.1802 -0.6630
   95MOL   C38538173   6.484   7.635   4.588  0.4711 -0.1069  0.3440
   95MOL   C38638174   6.557   7.517   4.556 -0.3889  0.1404 -0.2328
   95MOL   O38738175   6.669   7.532   4.486  0.8109 -0.4333  0.1953
   95MOL   C38838176   6.729   7.422   4.415 -0.2176  0.2620 -0.6723
   95MOL   C38938177   6.504   7.390   4.591  0.6723 -0.1617  0.6577
   95MOL   C39038178   6.387   7.383   4.668  0.1203  0.0175 -0.6738
   95MOL   C39138179   6.202   7.417   4.905 -0.6665  0.5076  0.2658
   95MOL   H39238180   6.170   7.602   4.809  3.2355  1.3937 -1.1599
   95MOL   H39338181   6.296   7.710   4.664 -0.1762 -0.1852  0.7275
   95MOL   H39438182   6.512   7.729   4.543 -1.8336 -0.2517 -1.5005
   95MOL   H39538183   6.824   7.450   4.370  1.8265 -0.0614  3.2387
   95MOL   H39638184   6.667   7.393   4.330 -1.6784  2.3480 -0.3479
   95MOL   H39738185   6.745   7.338   4.482 -0.1669  1.0103  0.2589
   95MOL   H39838186   6.552   7.294   4.579 -0.2309 -0.3369 -1.6729
   95MOL   H39938187   6.347   7.292   4.710  1.3326  0.3812  1.2947
   95MOL   H40038188   6.120   7.419   4.976 -0.2664  2.8806  0.7236
   95MOL   H40138189   6.288   7.449   4.964  0.7003  1.4277 -2.1339
   95MOL   H40238190   6.216   7.312   4.879 -0.2379  0.3338  1.1942
   96MOL     C138191   6.961   8.013   2.182  0.5241  0.0944 -0.6052
   96MOL     C238192   6.970   0.086   2.278  0.5898 -0.7433 -0.2645
   96MOL     C338193   6.847   0.138   2.319 -0.6154  0.1730  0.1798
   96MOL     C438194   6.845   0.267   2.389 -0.4500 -0.0014  0.9859
   96MOL     C538195   6.967   0.328   2.425 -0.3528  0.0570 -0.5869
   96MOL     O638196   6.957   0.446   2.495  0.5963  0.2889 -0.0564
   96MOL     C738197   7.070   0.530   2.479  0.6380  0.1022  0.8359
   96MOL     C838198   7.087   0.266   2.391  0.7189 -0.0938 -0.9801
   96MOL     C938199   7.090   0.145   2.313 -0.0485  0.5829 -0.0207
   96MOL    C1038200   6.871   0.002   2.057  0.0445 -0.0492  0.3872
   96MOL    H1138201   6.921   7.926   2.233  2.2835  0.2740  1.1393
   96MOL    H1238202   6.757   0.080   2.300 -1.3363  1.3782 -0.1519
   96MOL    H1338203   6.749   0.311   2.411 -1.2607 -0.3034 -1.6833
   96MOL    H1438204   7.063   0.637   2.501 -1.5643  0.3210 -0.7628
   96MOL    H1538205   7.148   0.487   2.542 -0.2054 -0.4685  1.4895
   96MOL    H1638206   7.105   0.528   2.375 -1.7209  0.5647  0.0152
   96MOL    H1738207   7.184   0.297   2.426  0.6757  2.3278 -2.9368
   96MOL    H1838208   7.186   0.100   2.292 -1.0234 -1.6930  0.3534
   96MOL    H1938209   6.867   7.950   1.999  3.2902 -0.0922  0.1042
   96MOL    H2038210   6.767   0.020   2.082 -0.1369 -0.8652  0.2267
   96MOL    H2138211   7.060   7.986   2.143  0.4920 -1.1192  0.1358
   96MOL    C2238212   6.915   0.118   1.966 -0.3051  0.3739 -0.0461
   96MOL    C2338213   7.062   0.133   1.947 -0.2708 -0.9350 -0.1093
   96MOL    C2438214   7.124   0.030   1.884  0.2730 -0.6221 -0.1444
   96MOL    C2538215   7.260   0.047   1.851 -0.0365 -0.9177 -0.0458
   96MOL    C2638216   7.333   0.165   1.887 -0.1977  0.3444 -0.3725
   96MOL    O2738217   7.462   0.170   1.838 -0.0479 -0.5502  0.1878
   96MOL    C2838218   7.545   0.287   1.862  0.0995 -0.3651  0.5176
   96MOL    C2938219   7.270   0.261   1.972 -0.0869 -0.2543  0.3986
   96MOL    C3038220   7.135   0.241   2.001  0.3945  0.0892 -0.3378
   96MOL    C3138221   6.833   0.116   1.835 -0.0023 -0.1981  0.1164
   96MOL    H3238222   6.890   0.209   2.020 -2.1256 -1.0345  1.5567
   96MOL    H3338223   7.070   7.983   1.850 -0.5967 -0.7979  1.6316
   96MOL    H3438224   7.299   7.998   1.803 -0.9440 -1.2917 -0.1093
   96MOL    H3538225   7.515   0.353   1.781  2.0438 -0.9576 -0.7529
   96MOL    H3638226   7.648   0.259   1.836  0.3170  0.6447  0.2601
   96MOL    H3738227   7.547   0.334   1.960 -0.0467  1.4098 -0.3269
   96MOL    H3838228   7.327   0.346   2.007 -0.1414 -0.1334  0.1975
   96MOL    H3938229   7.087   0.309   2.070  0.1009 -0.7880  0.3283
   96MOL    H4038230   6.832   0.020   1.784  1.0092 -1.3866  2.2629
   96MOL    H4138231   6.732   0.133   1.872 -0.7387 -0.1903 -1.8502
   96MOL    C4238232   6.881   0.229   1.743  0.4595 -0.6533  0.1291
   96MOL    C4338233   6.867   0.372   1.797 -0.1502  0.0035 -0.0084
   96MOL    C4438234   6.740   0.430   1.827  0.6100  0.6065  1.1829
   96MOL    C4538235   6.728   0.563   1.874  0.0939 -0.1325 -0.0797
   96MOL    C4638236   6.847   0.638   1.891 -0.1688 -0.3623  0.1797
   96MOL    O4738237   6.854   0.769   1.928  0.8011  0.1738 -0.0650
   96MOL    C4838238   6.735   0.831   1.963 -0.0911  0.3714  0.5619
   96MOL    C4938239   6.971   0.585   1.851 -0.2378  0.4854  0.5735
   96MOL    C5038240   6.980   0.452   1.805 -0.4460 -0.7830  0.0564
   96MOL    C5138241   6.807   0.218   1.600 -0.0845  0.2145 -0.0245
   96MOL    H5238242   6.988   0.209   1.734  0.6211 -1.1383  2.8345
   96MOL    H5338243   6.647   0.375   1.830  1.4382 -0.9350 -0.6554
   96MOL    H5438244   6.631   0.597   1.908 -0.0946 -1.4921  0.7633
   96MOL    H5538245   6.666   0.824   1.879  1.4082  0.6988 -0.7037
   96MOL    H5638246   6.698   0.787   2.056 -1.2709  0.0125 -0.0589
   96MOL    H5738247   6.757   0.937   1.972  0.2680  0.3604 -0.1943
   96MOL    H5838248   7.060   0.644   1.862 -0.9801  1.8537 -0.6028
   96MOL    H5938249   7.075   0.409   1.774 -0.7551  0.6536 -3.0391
   96MOL    H6038250   6.712   0.272   1.608 -0.2089  0.5242 -3.1078
   96MOL    H6138251   6.786   0.116   1.568  0.3264  0.5188 -1.2598
   96MOL    C6238252   6.875   0.270   1.474  0.9329  0.6012 -0.6662
   96MOL    C6338253   6.997   0.186   1.440  0.4964 -0.2203 -0.0189
   96MOL    C6438254   7.110   0.178   1.525 -0.4849 -1.0379  1.1189
   96MOL    C6538255   7.217   0.097   1.491  0.3388  0.0349  0.2367
   96MOL    C6638256   7.209   0.001   1.387 -0.6830  0.5362 -0.2333
   96MOL    O6738257   7.315   7.964   1.352  0.6606  0.2253 -0.3567
   96MOL    C6838258   7.399   7.929   1.460  0.8472 -0.0632 -0.2276
   96MOL    C6938259   7.086   8.038   1.315 -0.3596 -0.0881 -0.2907
   96MOL    C7038260   6.986   0.091   1.339 -0.3774  0.5166  0.0077
   96MOL    C7138261   6.899   0.425   1.450 -0.2270  0.9151 -0.2783
   96MOL    H7238262   6.803   0.255   1.394  2.1898 -0.7680 -1.5687
   96MOL    H7338263   7.138   0.256   1.595 -0.6724  0.7827 -0.7825
   96MOL    H7438264   7.311   0.112   1.542 -0.3389  3.0469  0.7055
   96MOL    H7538265   7.455   7.841   1.430 -1.0170 -0.5952 -2.3589
   96MOL    H7638266   7.346   7.901   1.551 -0.1349 -0.7041 -0.9813
   96MOL    H7738267   7.468   8.008   1.489  2.0122  0.3595 -3.8092
   96MOL    H7838268   7.071   7.954   1.249 -1.9049 -0.3999  0.4323
   96MOL    H7938269   6.897   0.089   1.277  0.6349 -2.6163 -1.4307
   96MOL    H8038270   6.795   0.458   1.449 -0.0343  1.5299 -0.3037
   96MOL    H8138271   6.957   0.465   1.534  0.0008 -0.1973  0.1082
   96MOL    C8238272   6.974   0.460   1.314  0.1603  0.1095  0.4068
   96MOL    C8338273   6.882   0.434   1.186  0.2371  0.0129  0.5089
   96MOL    C8438274   6.763   0.505   1.178  0.1626  0.1143 -0.6759
   96MOL    C8538275   6.679   0.488   1.064 -0.7054 -0.1990 -0.1245
   96MOL    C8638276   6.721   0.400   0.957 -0.4257 -0.0367 -0.4441
   96MOL    O8738277   6.631   0.401   0.850  0.2657 -0.3668  0.2445
   96MOL    C8838278   6.648   0.314   0.741 -0.3268  0.0940  0.4485
   96MOL    C8938279   6.837   0.321   0.967 -0.6768  0.2247 -0.2092
   96MOL    C9038280   6.916   0.338   1.085 -0.8351 -0.8062  0.1423
   96MOL    C9138281   7.014   0.611   1.309 -0.0400  0.1560  0.6228
   96MOL    H9238282   7.068   0.405   1.304  0.5928  0.7655  0.7734
   96MOL    H9338283   6.743   0.575   1.258  1.3120  0.5225 -0.7226
   96MOL    H9438284   6.589   0.542   1.041 -1.2906 -0.7962  0.7420
   96MOL    H9538285   6.745   0.326   0.693 -0.1390  1.8809  1.2477
   96MOL    H9638286   6.579   0.331   0.658 -0.0428  1.0606  0.4139
   96MOL    H9738287   6.642   0.211   0.778 -1.4236  0.3799  1.0907
   96MOL    H9838288   6.867   0.248   0.893  1.8713  0.7060  0.3098
   96MOL    H9938289   6.998   0.269   1.089 -0.3834 -0.4037 -1.6792
   96MOL   H10038290   7.073   0.619   1.217  0.8096  1.8258  1.2855
   96MOL   H10138291   6.928   0.677   1.300  1.7295  2.6105  0.8814
   96MOL   C10238292   7.116   0.667   1.416  0.7499 -0.1370  0.1643
   96MOL   C10338293   7.247   0.584   1.429  0.1266 -0.1011 -0.3101
   96MOL   C10438294   7.354   0.614   1.339  0.5341 -0.0311 -0.5052
   96MOL   C10538295   7.476   0.549   1.363 -0.2745  0.2059  0.3043
   96MOL   C10638296   7.490   0.442   1.457 -0.0321 -0.5813  0.1138
   96MOL   O10738297   7.608   0.378   1.463  0.1119  0.4285  0.1450
   96MOL   C10838298   7.601   0.238   1.492 -0.4103  0.0733  1.0728
   96MOL   C10938299   7.389   0.415   1.545  0.2100 -0.6192  0.4452
   96MOL   C11038300   7.269   0.488   1.530 -0.1038  0.5187  0.4317
   96MOL   C11138301   7.144   0.819   1.413 -0.0860 -0.1711  0.1005
   96MOL   H11238302   7.068   0.649   1.512 -0.2983  0.5630 -0.2260
   96MOL   H11338303   7.334   0.690   1.265  0.0715  0.4155  0.0726
   96MOL   H11438304   7.559   0.566   1.297  0.6983 -1.7498  0.9780
   96MOL   H11538305   7.628   0.226   1.597 -1.1609 -0.2022  1.2364
   96MOL   H11638306   7.506   0.187   1.479  0.4162 -1.6229  1.5626
   96MOL   H11738307   7.671   0.190   1.424  2.1795  2.8883  1.6186
   96MOL   H11838308   7.391   0.341   1.622  0.5801 -2.8470 -1.6535
   96MOL   H11938309   7.190   0.471   1.602 -0.5269  4.4489  0.9921
   96MOL   H12038310   7.179   0.849   1.314  2.5287 -1.9982  0.4184
   96MOL   H12138311   7.040   0.852   1.421  0.1469  0.0989  2.2527
   96MOL   C12238312   7.217   0.877   1.535  0.7901 -0.1425 -0.6898
   96MOL   C12338313   7.138   0.997   1.589 -0.2475 -0.1495 -0.1589
   96MOL   C12438314   7.132   1.121   1.518 -0.0022  0.1412 -0.0395
   96MOL   C12538315   7.056   1.229   1.565 -0.2005 -0.4727 -0.2903
   96MOL   C12638316   6.976   1.203   1.675 -0.2476  0.9632  0.0474
   96MOL   O12738317   6.907   1.304   1.732 -0.3345 -0.3257 -0.4464
   96MOL   C12838318   6.842   1.388   1.632 -0.8183  0.3375  0.7541
   96MOL   C12938319   6.979   1.085   1.752 -0.3508 -0.9489  0.0497
   96MOL   C13038320   7.055   0.981   1.701  0.2122 -1.3922  0.4602
   96MOL   C13138321   7.369   0.900   1.512 -0.0073 -0.6196 -0.1587
   96MOL   H13238322   7.229   0.794   1.605  2.9951  1.4832  0.9075
   96MOL   H13338323   7.190   1.148   1.431  0.3311 -1.6938 -0.4208
   96MOL   H13438324   7.051   1.326   1.518  1.7848 -0.2241 -0.0517
   96MOL   H13538325   6.810   1.325   1.549  1.6061 -0.3016  0.2811
   96MOL   H13638326   6.761   1.437   1.687 -0.0393 -0.6492  2.8334
   96MOL   H13738327   6.897   1.470   1.586 -1.4067 -0.1574 -0.8566
   96MOL   H13838328   6.925   1.066   1.844  0.9986  1.1566  1.3059
   96MOL   H13938329   7.058   0.893   1.764 -1.4993 -1.2193  0.7891
   96MOL   H14038330   7.387   0.953   1.419  2.6087 -0.7077  0.2686
   96MOL   H14138331   7.423   0.806   1.504  1.9744  0.6042 -1.3703
   96MOL   C14238332   7.437   0.975   1.633 -0.4009 -0.7324 -0.3311
   96MOL   C14338333   7.440   0.885   1.759  0.3974 -0.0977 -0.2763
   96MOL   C14438334   7.510   0.763   1.748 -0.1439  0.3956  0.1366
   96MOL   C14538335   7.525   0.679   1.860 -0.1619 -0.1287 -0.1639
   96MOL   C14638336   7.456   0.720   1.977 -0.5701 -0.0738  0.0654
   96MOL   O14738337   7.471   0.631   2.076 -0.3374  0.5930 -0.5147
   96MOL   C14838338   7.446   0.677   2.209  0.8998  0.3038  0.1674
   96MOL   C14938339   7.381   0.837   1.984  0.0310 -1.1946  0.1092
   96MOL   C15038340   7.379   0.919   1.875  0.1339  0.0309  1.1824
   96MOL   C15138341   7.584   1.013   1.591 -0.6210 -0.1733  0.2289
   96MOL   H15238342   7.382   1.065   1.661 -0.3228 -0.9351  0.5027
   96MOL   H15338343   7.563   0.741   1.657 -2.4618  1.3974 -1.4822
   96MOL   H15438344   7.581   0.587   1.854 -2.3318 -1.4933 -0.0473
   96MOL   H15538345   7.484   0.777   2.230  1.8604  0.0600 -0.3705
   96MOL   H15638346   7.339   0.683   2.226  0.8604 -0.1771  0.1116
   96MOL   H15738347   7.481   0.602   2.280  0.2306 -0.4216 -0.2657
   96MOL   H15838348   7.321   0.862   2.070 -0.0289 -3.0988  0.6452
   96MOL   H15938349   7.312   1.003   1.888 -0.5809 -0.2875 -0.3432
   96MOL   H16038350   7.595   1.030   1.484  1.3106 -0.9647  0.2823
   96MOL   H16138351   7.655   0.933   1.611  0.2790  0.6835  0.5023
   96MOL   C16238352   7.636   1.144   1.650 -0.1474 -0.0252 -0.1538
   96MOL   C16338353   7.540   1.256   1.688 -0.1747  0.6895  0.1326
   96MOL   C16438354   7.454   1.299   1.588  0.1201 -0.1291  0.0682
   96MOL   C16538355   7.356   1.394   1.610 -0.4000 -0.5213 -1.1326
   96MOL   C16638356   7.336   1.444   1.740 -0.5101  0.1653  0.5985
   96MOL   O16738357   7.246   1.547   1.746 -0.4185 -0.0837 -0.0861
   96MOL   C16838358   7.201   1.578   1.875  0.0858 -0.1879  0.2396
   96MOL   C16938359   7.414   1.395   1.851 -0.1142  0.6929 -0.2316
   96MOL   C17038360   7.523   1.306   1.818 -0.2287 -0.1787 -0.5766
   96MOL   C17138361   7.751   1.193   1.560  0.3435  0.7682 -0.1826
   96MOL   H17238362   7.686   1.121   1.744  1.5267  0.5825 -0.8806
   96MOL   H17338363   7.467   1.256   1.490  2.5282  2.1784 -0.6981
   96MOL   H17438364   7.297   1.433   1.529  0.6203  3.7946  0.0980
   96MOL   H17538365   7.288   1.613   1.931 -0.4261  2.1854 -0.3934
   96MOL   H17638366   7.157   1.487   1.916 -1.0920  1.2950  2.3944
   96MOL   H17738367   7.124   1.653   1.854 -2.7009 -2.5211  1.7360
   96MOL   H17838368   7.395   1.435   1.949 -0.5264  0.1700 -0.0952
   96MOL   H17938369   7.574   1.270   1.906  1.4029 -0.0578 -1.4620
   96MOL   H18038370   7.727   1.213   1.456  2.0364  1.3793 -0.4722
   96MOL   H18138371   7.831   1.119   1.570 -0.0993  0.5359  2.0772
   96MOL   C18238372   7.814   1.330   1.598  0.3969  0.1681  0.2160
   96MOL   C18338373   7.906   1.377   1.490 -1.0969 -0.0695 -0.9585
   96MOL   C18438374   8.039   1.330   1.482  0.8505 -0.2137 -0.5689
   96MOL   C18538375   0.081   1.369   1.374  0.6091 -0.6578  0.2603
   96MOL   C18638376   0.036   1.459   1.277  0.1545  0.3605  0.0256
   96MOL   O18738377   0.114   1.518   1.175 -0.3490  0.5189  0.5521
   96MOL   C18838378   0.260   1.515   1.184  0.4494 -0.0470  0.2008
   96MOL   C18938379   7.943   1.498   1.283 -0.7833 -0.1794  0.3570
   96MOL   C19038380   7.859   1.458   1.387 -0.5456  0.0144  0.1978
   96MOL   C19138381   7.874   1.337   1.741  0.0307  0.3027  0.3263
   96MOL   H19238382   7.733   1.403   1.601  0.0473 -0.2870  3.2514
   96MOL   H19338383   0.040   1.255   1.548  0.3206 -0.1911 -0.2196
   96MOL   H19438384   0.183   1.336   1.368  0.2518 -1.8334  0.4842
   96MOL   H19538385   0.302   1.491   1.086  0.6032 -1.9565  0.7084
   96MOL   H19638386   0.306   1.443   1.251  0.7125  0.9367  1.0966
   96MOL   H19738387   0.297   1.612   1.217 -0.2979 -0.5670  2.6404
   96MOL   H19838388   7.905   1.570   1.212 -0.9249  0.1012  0.7182
   96MOL   H19938389   7.753   1.480   1.377 -1.3900 -2.8030  2.2030
   96MOL   H20038390   7.806   1.288   1.811  0.2753 -0.7301 -0.1503
   96MOL   H20138391   7.955   1.265   1.747 -1.3037 -1.1839  0.6704
   96MOL   C20238392   7.922   1.481   1.782 -0.6579  0.4924 -0.2085
   96MOL   C20338393   0.012   1.465   1.866 -0.0935  0.3392  0.2453
   96MOL   C20438394   0.129   1.498   1.801  0.2937 -1.0733 -0.1518
   96MOL   C20538395   0.247   1.486   1.867  0.2787 -0.1431  0.0109
   96MOL   C20638396   0.248   1.434   1.998 -0.1898 -0.0272 -0.0979
   96MOL   O20738397   0.377   1.421   2.053  0.1535  0.2652 -0.0765
   96MOL   C20838398   0.391   1.429   2.194  0.4881 -0.3215 -0.7637
   96MOL   C20938399   0.130   1.404   2.072  0.2619  0.5835  0.4176
   96MOL   C21038400   0.010   1.426   2.001 -0.3322 -0.0782 -0.6831
   96MOL   C21138401   7.810   1.561   1.854 -0.3697  0.6325 -0.9164
   96MOL   H21238402   7.953   1.536   1.693  0.8360  2.0526  1.2362
   96MOL   H21338403   0.131   1.522   1.695 -2.0167  0.9311  0.1962
   96MOL   H21438404   0.338   1.500   1.812  0.2063 -0.8747 -0.3021
   96MOL   H21538405   0.382   1.323   2.216  2.6201 -0.5803 -1.0899
   96MOL   H21638406   0.481   1.479   2.228 -0.4208 -0.6087  2.1564
   96MOL   H21738407   0.314   1.492   2.239  0.7938 -1.1961  1.0047
   96MOL   H21838408   0.133   1.379   2.177  3.1244 -1.2213 -0.0357
   96MOL   H21938409   7.957   1.412   2.054 -2.0213  0.6228 -3.3299
   96MOL   H22038410   7.806   1.527   1.958 -0.8548  2.4575 -0.3297
   96MOL   H22138411   7.714   1.538   1.808 -0.3314  1.0958 -1.2277
   96MOL   C22238412   7.809   1.712   1.859  0.2026 -0.0828 -0.1848
   96MOL   C22338413   7.928   1.748   1.953 -0.1787 -0.3133 -0.8350
   96MOL   C22438414   7.910   1.746   2.092  0.2668 -0.3353  0.9926
   96MOL   C22538415   8.018   1.769   2.178  0.9776  0.5127  0.2572
   96MOL   C22638416   0.101   1.807   2.128 -0.0812  0.1010  0.1978
   96MOL   O22738417   0.219   1.812   2.202  1.1263 -0.3504  0.0864
   96MOL   C22838418   0.209   1.799   2.339  0.3164  0.5913 -0.2584
   96MOL   C22938419   0.117   1.827   1.987  0.6350  0.4610 -0.1601
   96MOL   C23038420   0.011   1.794   1.899 -0.2540 -0.1858 -0.6246
   96MOL   C23138421   7.804   1.780   1.727 -0.5370 -0.0939  0.7772
   96MOL   H23238422   7.716   1.728   1.914 -0.0432 -0.4472 -0.4947
   96MOL   H23338423   7.812   1.722   2.132 -1.6257 -0.1656 -3.3180
   96MOL   H23438424   8.002   1.758   2.284 -0.3269  2.5041  0.2897
   96MOL   H23538425   0.309   1.793   2.381  0.3162 -1.9709 -0.5553
   96MOL   H23638426   0.146   1.872   2.392 -0.7240 -1.2758  1.1454
   96MOL   H23738427   0.166   1.702   2.364 -0.1921  0.9428  0.2706
   96MOL   H23838428   0.209   1.869   1.948  1.0794  0.1044  0.5039
   96MOL   H23938429   0.031   1.798   1.793 -0.8345 -0.9279 -0.7641
   96MOL   H24038430   7.888   1.850   1.724  1.2572 -2.0971  2.8031
   96MOL   H24138431   7.817   1.709   1.646 -0.0312  0.5971  0.2404
   96MOL   C24238432   7.673   1.864   1.694 -1.0027  0.2453 -0.1356
   96MOL   C24338433   7.632   1.968   1.797  0.1625  0.4898 -0.8814
   96MOL   C24438434   7.500   1.990   1.825  0.9115 -0.3494 -0.2197
   96MOL   C24538435   7.464   2.082   1.926 -0.2210  0.2848 -0.4045
   96MOL   C24638436   7.559   2.155   2.005 -0.2726 -0.2259 -0.4239
   96MOL   O24738437   7.502   2.226   2.109  0.0352  0.2170 -0.1599
   96MOL   C24838438   7.589   2.249   2.223 -0.3176 -0.2348  0.3476
   96MOL   C24938439   7.696   2.145   1.960  1.0517 -0.2661  0.1439
   96MOL   C25038440   7.729   2.045   1.864  0.2619  0.1038 -0.3645
   96MOL   C25138441   7.703   1.932   1.559  0.0152 -0.1599  0.0186
   96MOL   H25238442   7.585   1.800   1.695 -1.9059  1.4601  0.3197
   96MOL   H25338443   7.422   1.959   1.757 -0.5478  1.4383  0.5869
   96MOL   H25438444   7.361   2.080   1.957  0.0355  0.2763  0.4717
   96MOL   H25538445   7.647   2.163   2.256 -1.1899 -1.5074 -1.3688
   96MOL   H25638446   7.660   2.332   2.217 -0.4148 -0.1479  0.3952
   96MOL   H25738447   7.527   2.269   2.310  0.9857 -0.2772  1.3038
   96MOL   H25838448   7.777   2.187   2.018  0.2314  1.0939  0.3186
   96MOL   H25938449   7.835   2.037   1.845  0.7086  1.7615  1.2439
   96MOL   H26038450   7.802   1.977   1.548 -0.9165  1.3552 -2.6229
   96MOL   H26138451   7.634   2.016   1.559 -1.9091 -1.6713  2.2283
   96MOL   C26238452   7.665   1.848   1.438  0.2599  0.0354  0.0110
   96MOL   C26338453   7.759   1.901   1.326 -1.2015  1.3263  0.0528
   96MOL   C26438454   7.893   1.862   1.313 -0.5379 -0.1419 -0.2147
   96MOL   C26538455   7.978   1.909   1.209  0.4445  0.4328  0.2139
   96MOL   C26638456   7.924   2.004   1.120 -0.0974  0.3470 -0.8037
   96MOL   O26738457   7.995   2.061   1.018 -0.0364  0.3359 -0.4696
   96MOL   C26838458   0.087   2.010   0.986  0.2377 -0.3495  0.4384
   96MOL   C26938459   7.789   2.051   1.139  0.3041 -0.0946 -0.3126
   96MOL   C27038460   7.707   2.003   1.242  0.2287 -0.5491  0.2381
   96MOL   C27138461   7.509   1.842   1.405 -0.8657 -0.7873 -0.5813
   96MOL   H27238462   7.709   1.751   1.461  0.2779  0.6776  2.8499
   96MOL   H27338463   7.932   1.789   1.383 -1.3731 -0.4546 -0.0672
   96MOL   H27438464   0.036   1.864   1.205  0.0638 -0.5747  1.6295
   96MOL   H27538465   0.116   2.073   0.902  0.1870 -0.2042  0.5300
   96MOL   H27638466   0.086   1.906   0.951 -0.5878 -0.4250  0.6753
   96MOL   H27738467   0.153   2.039   1.069  0.5386 -0.7706  0.3521
   96MOL   H27838468   7.755   2.128   1.072  3.7750  0.5952 -1.3669
   96MOL   H27938469   7.607   2.042   1.257 -0.9491 -1.6468 -4.0940
   96MOL   H28038470   7.459   1.788   1.485  0.1683 -0.7782  0.0797
   96MOL   H28138471   7.472   1.944   1.415 -1.5651 -1.0354 -0.6374
   96MOL   C28238472   7.471   1.769   1.281 -0.0660 -0.2414  0.5583
   96MOL   C28338473   7.320   1.773   1.270 -0.3495  0.7182  0.8576
   96MOL   C28438474   7.245   1.693   1.359  0.8836  0.3469 -0.3025
   96MOL   C28538475   7.105   1.683   1.344  0.0803 -0.3422 -0.0179
   96MOL   C28638476   7.038   1.770   1.254 -0.2801  0.7100 -0.0323
   96MOL   O28738477   6.894   1.780   1.246 -0.2545 -0.3694 -0.2780
   96MOL   C28838478   6.834   1.716   1.361  0.3928  0.0804  0.2541
   96MOL   C28938479   7.115   1.846   1.160 -0.2778  0.9486 -0.2385
   96MOL   C29038480   7.259   1.846   1.166 -0.3394 -0.3269  0.1288
   96MOL   C29138481   7.531   1.630   1.269  0.0089 -0.2640  0.4133
   96MOL   H29238482   7.510   1.835   1.204 -1.7094 -0.5259 -0.5456
   96MOL   H29338483   7.294   1.635   1.436  2.7690  0.1860 -1.5850
   96MOL   H29438484   7.053   1.622   1.416  2.2065 -0.0085  1.8961
   96MOL   H29538485   6.816   1.609   1.347  0.0351  0.3600 -1.5352
   96MOL   H29638486   6.880   1.742   1.456  1.1969  0.9994 -0.3829
   96MOL   H29738487   6.735   1.753   1.389 -0.1759 -0.7036 -0.6894
   96MOL   H29838488   7.064   1.911   1.091 -2.1112  0.1960  0.3791
   96MOL   H29938489   7.311   1.900   1.088  1.5965 -3.6605 -0.9954
   96MOL   H30038490   7.639   1.628   1.283 -0.0905 -1.3115  1.0504
   96MOL   H30138491   7.487   1.575   1.353 -1.3001 -0.9456 -0.7088
   96MOL   C30238492   7.504   1.556   1.141  0.3585  0.0010  0.1291
   96MOL   C30338493   7.524   1.646   1.023  0.1791  0.2424  0.6773
   96MOL   C30438494   7.645   1.720   0.998 -0.9330 -0.0510  0.5515
   96MOL   C30538495   7.648   1.817   0.903  0.0929  0.2984  1.4658
   96MOL   C30638496   7.537   1.830   0.816 -0.4322 -0.1167  1.0989
   96MOL   O30738497   7.529   1.921   0.712  0.4282  0.4344  0.1743
   96MOL   C30838498   7.627   2.023   0.706 -0.0172 -0.5407 -0.0543
   96MOL   C30938499   7.417   1.755   0.833  0.6457  0.1543 -0.0070
   96MOL   C31038500   7.411   1.664   0.939 -0.1051  0.2684  0.2598
   96MOL   C31138501   7.592   1.425   1.139  0.0881 -0.3698  0.0047
   96MOL   H31238502   7.401   1.519   1.141  0.1440  0.5871 -1.1783
   96MOL   H31338503   7.727   1.697   1.064  0.2880  1.4763 -0.4028
   96MOL   H31438504   7.741   1.869   0.886  0.5834 -0.7077  1.0945
   96MOL   H31538505   7.728   1.983   0.695  0.6619  1.1209  0.0347
   96MOL   H31638506   7.624   2.080   0.798  0.6261  1.3216 -1.1622
   96MOL   H31738507   7.603   2.090   0.623 -0.1991  0.6453  0.9473
   96MOL   H31838508   7.335   1.764   0.763  0.0406 -3.5837  0.1481
   96MOL   H31938509   7.321   1.605   0.952  0.8067 -1.3479 -0.6588
   96MOL   H32038510   7.577   1.379   1.237 -1.7550 -1.3232 -0.6942
   96MOL   H32138511   7.692   1.466   1.132  0.2719 -0.9865 -1.1549
   96MOL   C32238512   7.555   1.313   1.039  0.1022  0.4844 -0.9480
   96MOL   C32338513   7.614   1.179   1.088 -0.3438 -0.2153 -0.8019
   96MOL   C32438514   7.710   1.169   1.193 -0.0668 -0.2321  0.6013
   96MOL   C32538515   7.752   1.042   1.237  0.2919  0.0468 -0.3493
   96MOL   C32638516   7.684   0.926   1.190  0.1987 -0.2714 -0.0204
   96MOL   O32738517   7.719   0.797   1.214 -0.5550  0.1668  0.3044
   96MOL   C32838518   7.843   0.776   1.280  0.4697  0.0354  0.5274
   96MOL   C32938519   7.583   0.941   1.094  0.0358  0.3589  0.1446
   96MOL   C33038520   7.550   1.062   1.042 -0.1411 -0.3644 -0.7415
   96MOL   C33138521   7.596   1.335   0.889 -0.1693  0.7027 -0.6734
   96MOL   H33238522   7.447   1.302   1.037  0.0469  0.4885  1.1108
   96MOL   H33338523   7.767   1.250   1.235  1.1410 -1.0055  0.4860
   96MOL   H33438524   7.832   1.024   1.307 -1.0710  2.9058  2.0298
   96MOL   H33538525   7.873   0.671   1.287  1.4097  0.1704 -1.1192
   96MOL   H33638526   7.833   0.814   1.381  0.1534 -0.2004  0.5855
   96MOL   H33738527   7.916   0.821   1.212 -0.3235  0.5334 -0.0116
   96MOL   H33838528   7.539   0.852   1.051 -1.5094  1.7002 -1.1538
   96MOL   H33938529   7.470   1.068   0.970 -1.5002  1.2623  0.8440
   96MOL   H34038530   7.539   1.269   0.823 -0.1622  0.9667 -0.9425
   96MOL   H34138531   7.563   1.433   0.855 -2.4369  0.7009  1.3763
   96MOL   C34238532   7.748   1.317   0.868 -0.2484 -0.0869  0.1020
   96MOL   C34338533   7.808   1.450   0.814 -0.1492 -0.2212  0.0564
   96MOL   C34438534   7.760   1.505   0.691 -0.4131 -0.3206  0.2829
   96MOL   C34538535   7.799   1.631   0.642 -0.5850  0.5183  0.2217
   96MOL   C34638536   7.900   1.697   0.715 -0.2611 -0.1320 -0.1638
   96MOL   O34738537   7.957   1.818   0.681 -0.5458 -0.0051  0.9452
   96MOL   C34838538   7.967   1.840   0.541 -0.3948  0.3035 -1.2355
   96MOL   C34938539   7.955   1.647   0.837  0.3236 -0.1469  0.5713
   96MOL   C35038540   7.912   1.519   0.881  0.5390  0.6279  0.0952
   96MOL   C35138541   7.783   1.196   0.782  0.1930  0.0571 -0.0447
   96MOL   H35238542   7.791   1.305   0.967  0.5046 -1.6868 -0.3998
   96MOL   H35338543   7.695   1.453   0.622 -0.5076 -0.7078  0.6658
   96MOL   H35438544   7.764   1.681   0.553  1.5947  1.8534  0.0690
   96MOL   H35538545   7.995   1.755   0.479  1.1849 -1.4927  1.8071
   96MOL   H35638546   7.876   1.888   0.504 -0.4968  1.3368  0.3024
   96MOL   H35738547   0.003   1.919   0.536 -0.6750  0.7544  1.2767
   96MOL   H35838548   8.036   1.704   0.880  0.5439 -0.0716  0.0607
   96MOL   H35938549   7.957   1.485   0.974  1.2149 -1.3962 -0.9502
   96MOL   H36038550   7.731   1.113   0.830  1.8255 -0.1265  1.4539
   96MOL   H36138551   7.753   1.218   0.680  1.1018 -0.2978 -0.3921
   96MOL   C36238552   7.933   1.161   0.782  0.3332 -0.7435 -0.5536
   96MOL   C36338553   7.961   1.065   0.668  0.9733  0.7730 -0.1108
   96MOL   C36438554   7.865   0.969   0.637 -0.1966  0.4834 -0.7011
   96MOL   C36538555   7.895   0.870   0.542  0.3332 -0.0328  0.1993
   96MOL   C36638556   8.022   0.873   0.476  0.5482  0.3053 -0.0300
   96MOL   O36738557   0.010   0.775   0.381  0.1259  0.2512  0.0808
   96MOL   C36838558   0.138   0.753   0.333 -0.1038  0.4113  0.4127
   96MOL   C36938559   0.067   0.981   0.500  0.6466 -0.2891 -0.2246
   96MOL   C37038560   0.036   1.075   0.598 -0.2680  0.1722  0.4409
   96MOL   C37138561   7.970   1.106   0.923 -0.5018 -0.5833 -0.9338
   96MOL   H37238562   7.993   1.251   0.771 -2.5324  1.0160 -2.2465
   96MOL   H37338563   7.780   0.944   0.699 -0.1531  2.6182  0.2413
   96MOL   H37438564   7.828   0.786   0.531  0.8374 -0.4738  0.4690
   96MOL   H37538565   0.173   0.837   0.273  1.0443  0.1775  0.7392
   96MOL   H37638566   0.205   0.740   0.418  1.0665  1.5515 -0.3099
   96MOL   H37738567   0.134   0.659   0.278 -0.0105  1.6673 -1.7842
   96MOL   H37838568   0.159   0.997   0.444 -0.1869 -0.4850 -1.6758
   96MOL   H37938569   0.110   1.154   0.608 -1.1417  0.9662  0.7215
   96MOL   H38038570   7.933   1.160   1.010 -0.8758 -0.3304 -1.2437
   96MOL   H38138571   7.918   1.011   0.934 -1.4161  0.0210  0.0039
   96MOL   C38238572   0.083   1.099   0.951  0.3924  0.2539 -0.0519
   96MOL   C38338573   0.103   1.014   1.079  0.5401  0.4753 -0.6211
   96MOL   C38438574   0.056   1.056   1.205 -0.0207  0.5319  0.8356
   96MOL   C38538575   0.081   0.976   1.323 -0.2089 -0.3339 -0.3896
   96MOL   C38638576   0.151   0.856   1.310 -0.0832 -0.0480  0.7621
   96MOL   O38738577   0.161   0.787   1.429  0.7270 -0.3356 -0.2527
   96MOL   C38838578   0.171   0.644   1.419  0.6545 -0.8160 -0.5048
   96MOL   C38938579   0.180   0.807   1.182 -0.3438 -0.2406  0.2266
   96MOL   C39038580   0.157   0.886   1.069 -0.2768  0.5336 -0.6185
   96MOL   C39138581   0.153   1.237   0.968  0.1534  0.0071  0.3003
   96MOL   H39238582   0.130   1.045   0.869  0.1448 -0.6235  0.3656
   96MOL   H39338583   8.032   1.143   1.202 -0.4786  0.1755 -2.2816
   96MOL   H39438584   0.045   1.000   1.421  3.7749 -0.1047  1.0979
   96MOL   H39538585   0.275   0.617   1.399  1.6196  1.2815  1.4320
   96MOL   H39638586   0.107   0.590   1.349  1.9408  0.2271 -2.5252
   96MOL   H39738587   0.157   0.599   1.517  1.1029  0.1063 -0.0082
   96MOL   H39838588   0.223   0.708   1.178 -0.1022 -0.1195 -0.1923
   96MOL   H39938589   0.202   0.864   0.973 -0.8776  1.5010 -1.1271
   96MOL   H40038590   0.167   1.279   0.868  1.6378  1.8024  1.2438
   96MOL   H40138591   0.250   1.221   1.015  0.5628 -0.4338 -0.6678
   96MOL   H40238592   0.104   1.313   1.028  1.8551 -0.2383  2.0462
   97MOL     C138593   1.055   5.848   3.099  0.5611  0.4233 -0.2952
   97MOL     C238594   1.168   5.864   3.200  0.0225 -0.8026  0.1639
   97MOL     C338595   1.181   5.985   3.272 -0.6502 -0.1381 -0.0896
   97MOL     C438596   1.292   6.001   3.359  0.0592  0.0241 -0.3703
   97MOL     C538597   1.385   5.892   3.381  0.5908 -0.8911  0.2931
   97MOL     O638598   1.494   5.894   3.461 -0.3185  0.0401  0.0520
   97MOL     C738599   1.529   6.028   3.496 -0.2742 -0.0428 -0.1781
   97MOL     C838600   1.358   5.768   3.318  0.1503 -0.1502  0.0591
   97MOL     C938601   1.249   5.754   3.230  0.2455  0.3122 -0.0415
   97MOL    C1038602   0.915   5.885   3.153  0.2905 -1.1530 -0.1127
   97MOL    H1138603   1.063   5.749   3.053 -0.7560 -0.6683  1.7286
   97MOL    H1238604   1.118   6.071   3.256  4.2455  4.5123  3.7913
   97MOL    H1338605   1.305   6.097   3.408  0.7347  0.6410 -1.7391
   97MOL    H1438606   1.529   6.093   3.408  0.8241 -1.0700 -0.9650
   97MOL    H1538607   1.459   6.068   3.568  1.0113  2.2818 -0.1810
   97MOL    H1638608   1.635   6.029   3.525 -0.1653  1.0022 -0.5759
   97MOL    H1738609   1.413   5.676   3.324 -1.6004 -1.3378 -1.4893
   97MOL    H1838610   1.244   5.668   3.165  0.5687  0.3183 -0.0791
   97MOL    H1938611   0.918   5.859   3.259 -0.5480 -0.0882  0.1832
   97MOL    H2038612   0.913   5.994   3.150  0.0112 -1.1387  0.6596
   97MOL    H2138613   1.081   5.910   3.014 -1.6176  1.0519 -0.5301
   97MOL    C2238614   0.797   5.825   3.073 -1.1271 -0.1048  0.2242
   97MOL    C2338615   0.796   5.672   3.071 -0.2387 -0.1302 -0.5238
   97MOL    C2438616   0.832   5.594   3.181 -0.6524 -0.6714  0.6938
   97MOL    C2538617   0.822   5.460   3.181  0.5851  0.3158 -0.1252
   97MOL    C2638618   0.783   5.396   3.071 -0.3450  0.6605  0.6079
   97MOL    O2738619   0.776   5.258   3.081  0.2636  0.0808 -0.2547
   97MOL    C2838620   0.725   5.189   2.968  0.0532  0.0639  0.1924
   97MOL    C2938621   0.756   5.471   2.949  0.0909 -0.2518 -0.0351
   97MOL    C3038622   0.765   5.614   2.953 -0.8250  0.2754 -1.1882
   97MOL    C3138623   0.667   5.893   3.122  0.1086  0.0594  1.2209
   97MOL    H3238624   0.812   5.865   2.973 -0.3417  0.7997  0.6940
   97MOL    H3338625   0.875   5.647   3.265 -0.1159 -2.4794  1.5754
   97MOL    H3438626   0.865   5.403   3.262 -1.2003 -1.2363 -0.2457
   97MOL    H3538627   0.792   5.194   2.882  2.4522  0.2780  2.0190
   97MOL    H3638628   0.619   5.207   2.948  0.3408  1.2035 -0.3098
   97MOL    H3738629   0.732   5.086   3.004  0.2222  0.5392  1.5823
   97MOL    H3838630   0.723   5.430   2.855  0.4606 -0.4706 -0.0721
   97MOL    H3938631   0.746   5.673   2.864 -2.3325 -1.9890 -2.4106
   97MOL    H4038632   0.653   5.854   3.223 -0.6957  1.1179  1.5303
   97MOL    H4138633   0.668   6.002   3.123 -1.5804  0.1220 -1.4172
   97MOL    C4238634   0.550   5.855   3.040  0.0298 -0.3067  0.3093
   97MOL    C4338635   0.555   5.918   2.902  0.9172 -0.0461  0.4090
   97MOL    C4438636   0.577   6.062   2.883 -0.1134 -0.1793 -0.3163
   97MOL    C4538637   0.562   6.123   2.758  0.7446 -0.1565 -0.1475
   97MOL    C4638638   0.513   6.051   2.648 -0.0357 -0.4135 -0.4035
   97MOL    O4738639   0.497   6.117   2.530  0.4347 -0.8005  0.6467
   97MOL    C4838640   0.404   6.061   2.439  0.2000 -0.3004  0.4543
   97MOL    C4938641   0.493   5.912   2.664 -0.2442  0.1560 -0.1778
   97MOL    C5038642   0.510   5.842   2.789 -0.4081 -0.0478  0.7117
   97MOL    C5138643   0.416   5.896   3.122 -0.2096  0.0295 -0.8335
   97MOL    H5238644   0.545   5.749   3.016 -1.5351  0.0889 -1.3034
   97MOL    H5338645   0.601   6.131   2.962 -2.3164 -1.5635  1.6237
   97MOL    H5438646   0.570   6.230   2.750  1.4571 -0.0596  1.6357
   97MOL    H5538647   0.392   6.138   2.363  0.2232  2.7499  3.4263
   97MOL    H5638648   0.449   5.974   2.391  1.9346  1.5572 -1.3822
   97MOL    H5738649   0.309   6.034   2.485  0.0020 -2.2263 -1.0228
   97MOL    H5838650   0.455   5.863   2.576 -0.7159  1.2467 -0.5954
   97MOL    H5938651   0.478   5.740   2.800 -3.0937  0.5034 -1.4081
   97MOL    H6038652   0.425   5.999   3.154  3.1218  0.3739 -2.6495
   97MOL    H6138653   0.424   5.834   3.211 -1.9234  2.0540  0.7821
   97MOL    C6238654   0.284   5.873   3.050  0.2808  0.3113  0.2030
   97MOL    C6338655   0.172   5.945   3.121  0.3816  0.7142 -0.7728
   97MOL    C6438656   0.064   6.007   3.052 -0.8213 -0.9423  0.2477
   97MOL    C6538657   8.002   6.072   3.121 -0.5933  0.6903  0.0331
   97MOL    C6638658   8.011   6.091   3.260  0.0901 -0.0635  0.2366
   97MOL    O6738659   7.904   6.164   3.315 -0.2429  0.1101  0.1638
   97MOL    C6838660   7.915   6.226   3.438  0.7710 -0.5856  0.1957
   97MOL    C6938661   0.083   6.035   3.331 -0.3350 -0.7052  1.2943
   97MOL    C7038662   0.171   5.946   3.261  0.2428  0.1992  0.8309
   97MOL    C7138663   0.261   5.719   3.045  0.2782 -0.3110  0.5256
   97MOL    H7238664   0.292   5.918   2.951 -1.7233  0.7910  0.2423
   97MOL    H7338665   0.061   5.993   2.945 -0.7668 -1.0045  0.2539
   97MOL    H7438666   7.923   6.115   3.062  0.8791  0.2570 -2.3294
   97MOL    H7538667   8.019   6.238   3.467  0.9577  0.1057 -0.7200
   97MOL    H7638668   7.862   6.163   3.510  1.2232 -2.3049 -0.9428
   97MOL    H7738669   7.868   6.324   3.449 -0.3843 -1.2215  1.1243
   97MOL    H7838670   0.084   6.024   3.438  0.6698 -0.0419  1.3574
   97MOL    H7938671   0.249   5.892   3.313  2.5596  1.1911 -1.4436
   97MOL    H8038672   0.335   5.692   2.970 -0.1674  0.0246 -0.0399
   97MOL    H8138673   0.301   5.675   3.137 -1.5307 -0.5832  1.2065
   97MOL    C8238674   0.122   5.658   3.001  0.5980  0.4375  0.4609
   97MOL    C8338675   0.070   5.696   2.872 -0.0214 -0.0105  0.2561
   97MOL    C8438676   0.147   5.696   2.751 -0.0252  0.0011 -0.4127
   97MOL    C8538677   0.093   5.736   2.621 -0.5165  0.0337 -0.2340
   97MOL    C8638678   7.996   5.772   2.619  0.6836  0.5462 -0.3722
   97MOL    O8738679   7.958   5.829   2.500  0.2545 -0.0509 -0.9280
   97MOL    C8838680   7.814   5.836   2.481  0.3071  0.5927  0.1201
   97MOL    C8938681   7.915   5.765   2.741  0.0991 -0.1324 -0.0886
   97MOL    C9038682   7.971   5.727   2.864 -0.4999  0.0698  0.2115
   97MOL    C9138683   0.104   5.508   3.023  0.5715 -0.2662 -0.2884
   97MOL    H9238684   0.050   5.706   3.068 -1.4058  2.6195 -3.0429
   97MOL    H9338685   0.249   5.660   2.746 -0.0739 -0.1682 -0.1938
   97MOL    H9438686   0.162   5.755   2.541 -0.9092 -1.7692 -1.0358
   97MOL    H9538687   7.764   5.743   2.507  1.0900 -0.5730 -2.3382
   97MOL    H9638688   7.781   5.839   2.377 -3.1892 -3.4399  0.9397
   97MOL    H9738689   7.774   5.924   2.531  2.9632  0.5390  2.4033
   97MOL    H9838690   7.812   5.799   2.742 -0.1629 -0.8772  2.6560
   97MOL    H9938691   7.905   5.723   2.949 -0.9957 -0.0690 -0.1753
   97MOL   H10038692   8.040   5.484   3.000  1.6897 -3.1518 -2.6935
   97MOL   H10138693   0.163   5.446   2.955 -0.7366  0.5516 -2.2111
   97MOL   C10238694   0.128   5.451   3.171 -0.0600 -0.6626 -0.4213
   97MOL   C10338695   0.023   5.351   3.233  0.1583  0.3010 -0.3429
   97MOL   C10438696   7.989   5.250   3.164  0.4187  0.4966  0.1907
   97MOL   C10538697   7.898   5.162   3.230 -0.6330  0.8006  0.0151
   97MOL   C10638698   7.877   5.183   3.372  0.2942  0.1775  0.0570
   97MOL   O10738699   7.780   5.105   3.436  0.4025  0.3383  0.0661
   97MOL   C10838700   7.725   5.146   3.561 -0.2358 -0.3729 -0.5031
   97MOL   C10938701   7.947   5.289   3.440  0.1371  0.1093  0.4638
   97MOL   C11038702   8.030   5.374   3.367  0.0524  0.4534  0.2157
   97MOL   C11138703   0.264   5.383   3.173 -0.1393 -0.7683  0.4099
   97MOL   H11238704   0.138   5.539   3.234 -1.0502 -0.8701  0.0274
   97MOL   H11338705   8.014   5.231   3.060  0.7278  0.0463  0.3473
   97MOL   H11438706   7.845   5.079   3.186  1.1317 -1.8192  2.5868
   97MOL   H11538707   7.702   5.252   3.571 -1.8031 -0.6470 -1.0905
   97MOL   H11638708   7.631   5.092   3.567 -1.3032  1.6765  2.2886
   97MOL   H11738709   7.786   5.122   3.648 -0.5147 -2.2485 -0.8103
   97MOL   H11838710   7.925   5.310   3.544  2.5516  0.8056  0.8642
   97MOL   H11938711   0.049   5.446   3.422  1.3742 -0.8627  0.5653
   97MOL   H12038712   0.249   5.294   3.112  2.0998  0.1211 -1.4852
   97MOL   H12138713   0.341   5.437   3.118  0.5551 -2.5980 -0.4693
   97MOL   C12238714   0.334   5.336   3.306 -0.1088 -0.6911 -0.1781
   97MOL   C12338715   0.375   5.458   3.392  0.4492  0.3246 -0.1135
   97MOL   C12438716   0.305   5.496   3.508 -0.9443  0.1131  0.2346
   97MOL   C12538717   0.322   5.621   3.565 -0.1620  0.6083  0.1271
   97MOL   C12638718   0.433   5.704   3.529  0.5129 -0.1439 -0.6559
   97MOL   O12738719   0.447   5.826   3.588  0.1696  0.4324 -0.3246
   97MOL   C12838720   0.530   5.920   3.528  0.0154 -0.1051 -0.1546
   97MOL   C12938721   0.518   5.658   3.421 -0.1352 -0.0409 -0.0705
   97MOL   C13038722   0.487   5.539   3.355  0.5676  0.3845  0.0711
   97MOL   C13138723   0.462   5.249   3.278  0.0906 -0.6157  0.9729
   97MOL   H13238724   0.271   5.270   3.366  2.1649 -2.6800  0.1038
   97MOL   H13338725   0.220   5.440   3.542 -1.2432  0.7578  0.5589
   97MOL   H13438726   0.262   5.644   3.652  1.2545  1.8053  0.8137
   97MOL   H13538727   0.506   5.943   3.424 -0.0190  0.1157 -0.0968
   97MOL   H13638728   0.508   6.014   3.578  0.9879  0.6535 -1.1291
   97MOL   H13738729   0.635   5.892   3.537 -0.2007 -0.1902  2.7038
   97MOL   H13838730   0.602   5.719   3.390 -0.1286  0.1403  0.2953
   97MOL   H13938731   0.546   5.507   3.270  0.2512  2.7583 -1.0864
   97MOL   H14038732   0.532   5.266   3.360 -1.4764 -0.5201  2.3132
   97MOL   H14138733   0.517   5.277   3.188  0.8925  0.8133  1.8852
   97MOL   C14238734   0.436   5.098   3.290 -0.6736  0.6410 -0.3070
   97MOL   C14338735   0.336   5.040   3.192 -0.1193 -0.3518  0.4106
   97MOL   C14438736   0.204   5.021   3.234  1.5323 -0.5943  0.8589
   97MOL   C14538737   0.119   4.951   3.152 -0.2403 -0.3738 -0.0685
   97MOL   C14638738   0.158   4.899   3.022  0.2898  0.0397  0.3429
   97MOL   O14738739   0.058   4.842   2.945 -0.4766 -0.2769  0.5158
   97MOL   C14838740   0.102   4.785   2.822  0.4333 -0.1997 -0.7085
   97MOL   C14938741   0.292   4.929   2.980  0.3204  0.4641 -0.7675
   97MOL   C15038742   0.377   5.005   3.063  0.0403 -0.0742  0.5356
   97MOL   C15138743   0.561   5.002   3.305  0.3734 -0.4355 -0.4332
   97MOL   H15238744   0.385   5.090   3.386 -1.2455  0.6005 -0.6098
   97MOL   H15338745   0.168   5.058   3.328  3.1070  1.8520  0.5348
   97MOL   H15438746   0.027   4.923   3.201  0.2696  0.2908  1.2952
   97MOL   H15538747   0.172   4.702   2.828 -0.6675 -1.2201 -1.6811
   97MOL   H15638748   0.023   4.746   2.758 -1.8069  0.2999  1.6910
   97MOL   H15738749   0.148   4.856   2.754  3.3549  0.6136  2.0189
   97MOL   H15838750   0.338   4.904   2.885 -0.1907  0.3597 -0.9895
   97MOL   H15938751   0.481   5.019   3.040 -0.2242  0.9935 -0.0430
   97MOL   H16038752   0.636   5.041   3.237 -1.1260 -0.5135 -2.1749
   97MOL   H16138753   0.546   4.913   3.243  1.8769  0.3008 -1.8682
   97MOL   C16238754   0.609   4.977   3.454 -0.5154  0.0691  0.7219
   97MOL   C16338755   0.752   4.936   3.452 -0.2847  0.3194  0.2507
   97MOL   C16438756   0.785   4.803   3.421  0.1190  0.0180 -0.0520
   97MOL   C16538757   0.917   4.761   3.422  0.1352  0.0753 -0.4170
   97MOL   C16638758   1.019   4.852   3.463  0.4812 -0.0091  0.2556
   97MOL   O16738759   1.147   4.804   3.467  1.0868 -0.3163  0.5352
   97MOL   C16838760   1.255   4.886   3.504  0.2312  0.4546  0.2215
   97MOL   C16938761   0.990   4.989   3.489 -0.0287 -0.0663 -0.5334
   97MOL   C17038762   0.856   5.026   3.476 -0.1176  0.5928 -0.1155
   97MOL   C17138763   0.517   4.875   3.524  0.0419 -0.5123 -0.0179
   97MOL   H17238764   0.603   5.068   3.513  0.6434 -1.0610  2.6070
   97MOL   H17338765   0.711   4.727   3.398 -0.6064  0.4519  0.8186
   97MOL   H17438766   0.939   4.657   3.404  1.8197  0.3722 -0.0986
   97MOL   H17538767   1.345   4.824   3.501  0.4843  0.8601 -0.7766
   97MOL   H17638768   1.238   4.919   3.607 -2.5317  1.1243 -0.4127
   97MOL   H17738769   1.259   4.975   3.440 -0.3728  0.5893  0.3624
   97MOL   H17838770   1.063   5.056   3.531 -1.7398  0.6482  1.3670
   97MOL   H17938771   0.848   5.132   3.497 -0.0022  0.4097  0.8609
   97MOL   H18038772   0.513   4.789   3.457  1.4308 -1.7299  1.4176
   97MOL   H18138773   0.416   4.916   3.529  0.5089  0.9943 -1.9670
   97MOL   C18238774   0.549   4.819   3.663  0.1912 -0.2389 -0.8800
   97MOL   C18338775   0.463   4.694   3.702  0.0746 -0.7066  0.5946
   97MOL   C18438776   0.336   4.668   3.650  0.0198  0.5747  0.0462
   97MOL   C18538777   0.266   4.554   3.687 -0.2523 -1.0135 -0.0863
   97MOL   C18638778   0.314   4.457   3.779 -0.1926 -0.0683 -0.4153
   97MOL   O18738779   0.233   4.350   3.813  0.2968 -0.3061 -0.7348
   97MOL   C18838780   0.284   4.239   3.884 -0.2242 -0.0216 -0.1128
   97MOL   C18938781   0.446   4.484   3.834  0.8238  0.0354 -0.2987
   97MOL   C19038782   0.519   4.603   3.797 -0.2314  0.3891 -0.5494
   97MOL   C19138783   0.529   4.933   3.771 -0.1311  0.0736  0.5393
   97MOL   H19238784   0.653   4.786   3.672  0.2622  0.8969  4.1676
   97MOL   H19338785   0.300   4.735   3.574  2.0815  0.1204 -1.3960
   97MOL   H19438786   0.162   4.540   3.661 -1.0717  0.1365  2.3703
   97MOL   H19538787   0.300   4.265   3.988  0.4482  0.7228 -0.3895
   97MOL   H19638788   0.377   4.216   3.832  0.6316  0.9046  0.9940
   97MOL   H19738789   0.223   4.150   3.870 -1.1027  0.5170  0.2391
   97MOL   H19838790   0.493   4.403   3.888 -2.2733 -0.7930  1.2535
   97MOL   H19938791   0.617   4.621   3.839 -0.2279 -0.2479 -0.2722
   97MOL   H20038792   0.547   5.027   3.718 -1.2127 -0.0865 -0.1305
   97MOL   H20138793   0.424   4.945   3.799 -0.6955  1.1136 -1.8820
   97MOL   C20238794   0.637   4.922   3.880  0.8343  0.2437  0.3113
   97MOL   C20338795   0.594   4.987   4.009 -0.0226  0.1438  0.3364
   97MOL   C20438796   0.614   4.922   4.132  0.6399 -0.4934 -0.3650
   97MOL   C20538797   0.564   4.988   4.246 -0.0030  0.3490 -0.6435
   97MOL   C20638798   0.490   5.110   4.241 -0.4039 -0.6947 -0.4927
   97MOL   O20738799   0.429   5.162   4.357 -0.8395 -0.0578  0.3576
   97MOL   C20838800   0.367   5.290   4.353 -0.0525  0.6722  0.8410
   97MOL   C20938801   0.484   5.171   4.117 -0.4635 -0.3509 -0.5041
   97MOL   C21038802   0.543   5.114   3.998  0.3984  0.4620  0.2355
   97MOL   C21138803   0.778   4.978   3.830  1.0003  0.1315 -0.3381
   97MOL   H21238804   0.649   4.817   3.909  0.0517 -0.2113 -0.9552
   97MOL   H21338805   0.657   4.823   4.141 -1.5626 -1.4622 -0.1454
   97MOL   H21438806   0.586   4.943   4.342  2.5723  0.6806 -1.0308
   97MOL   H21538807   0.343   5.311   4.457 -0.4865 -1.2987  1.1529
   97MOL   H21638808   0.427   5.369   4.308 -1.8099  1.8904  0.5409
   97MOL   H21738809   0.270   5.293   4.303  0.8015 -0.8364 -0.9704
   97MOL   H21838810   0.434   5.267   4.106  1.9105  0.7635 -2.1444
   97MOL   H21938811   0.532   5.166   3.905  1.3952 -0.7433 -0.5747
   97MOL   H22038812   0.772   5.086   3.820  0.6617  0.1996  0.4962
   97MOL   H22138813   0.798   4.930   3.735 -0.0809  1.2183 -1.1339
   97MOL   C22238814   0.896   4.945   3.926 -0.5421 -0.3267  0.0058
   97MOL   C22338815   0.922   4.798   3.932 -0.4489 -0.1970 -0.9414
   97MOL   C22438816   0.919   4.733   4.061  1.0834 -0.4356  0.0826
   97MOL   C22538817   0.945   4.598   4.071  0.1756 -0.6464 -0.0804
   97MOL   C22638818   0.963   4.517   3.955  0.8969 -0.4860 -0.5153
   97MOL   O22738819   0.966   4.382   3.958 -0.5772 -0.6026 -0.1163
   97MOL   C22838820   0.953   4.323   4.085 -0.0080 -0.8092  0.2566
   97MOL   C22938821   0.969   4.577   3.832 -0.6073 -0.2856  0.2478
   97MOL   C23038822   0.954   4.718   3.821 -0.1634 -0.2933 -0.1628
   97MOL   C23138823   1.034   5.011   3.900 -0.1404  0.0556 -0.2233
   97MOL   H23238824   0.859   4.975   4.025  1.4061 -1.4270  1.0960
   97MOL   H23338825   0.899   4.795   4.148 -0.3417  0.6823 -1.0103
   97MOL   H23438826   0.933   4.558   4.171  1.4483  1.3444  0.9072
   97MOL   H23538827   0.854   4.349   4.123 -0.3086 -0.2625 -0.8496
   97MOL   H23638828   0.960   4.216   4.068 -2.1394 -1.3003  2.2414
   97MOL   H23738829   1.019   4.360   4.164 -0.9054  0.9009  0.2444
   97MOL   H23838830   0.996   4.520   3.744 -0.9962 -1.1397  0.6784
   97MOL   H23938831   0.971   4.766   3.726  2.9916 -1.6229 -0.3368
   97MOL   H24038832   1.112   4.940   3.871  0.5876  1.2845 -1.3263
   97MOL   H24138833   1.038   5.073   3.810 -0.6894 -0.2205 -0.4395
   97MOL   C24238834   1.084   5.098   4.018 -0.7325  0.7553  0.2789
   97MOL   C24338835   1.078   5.032   4.153  0.5199  1.3887  0.1102
   97MOL   C24438836   0.974   5.063   4.242 -0.1987 -0.1890 -0.4222
   97MOL   C24538837   0.977   5.008   4.375 -0.1269  0.3744  1.1951
   97MOL   C24638838   1.063   4.905   4.404 -0.3089  0.1691  0.0131
   97MOL   O24738839   1.052   4.852   4.529  0.0750 -0.1289  0.3971
   97MOL   C24838840   1.165   4.779   4.584  0.0643  0.3436 -0.4253
   97MOL   C24938841   1.160   4.860   4.310  0.1314 -0.3094 -0.3448
   97MOL   C25038842   1.167   4.927   4.190  0.0921  0.1890 -0.5839
   97MOL   C25138843   1.227   5.149   3.972  0.1942 -0.0213  0.7002
   97MOL   H25238844   1.013   5.181   4.027 -3.6622 -1.7675  1.6772
   97MOL   H25338845   0.892   5.124   4.208 -0.7495 -0.9129 -0.4162
   97MOL   H25438846   0.905   5.021   4.454  0.1591  0.8017  1.3854
   97MOL   H25538847   1.194   4.693   4.523  3.4896  2.0381 -1.3191
   97MOL   H25638848   1.255   4.839   4.596  1.0182 -0.9676 -0.8325
   97MOL   H25738849   1.136   4.754   4.686  1.1511 -0.7768 -0.3688
   97MOL   H25838850   1.222   4.773   4.321  0.1971 -0.0732  1.3437
   97MOL   H25938851   1.244   4.894   4.122  2.1182  1.3042  1.1123
   97MOL   H26038852   1.219   5.195   3.873  1.0532 -0.2330  0.5335
   97MOL   H26138853   1.295   5.064   3.965 -0.3143 -0.3187 -0.6354
   97MOL   C26238854   1.283   5.264   4.062  0.0155  0.5400 -0.9453
   97MOL   C26338855   1.384   5.350   3.983  0.9413  0.2100 -0.1494
   97MOL   C26438856   1.380   5.494   3.982  0.5754 -0.0993 -0.0380
   97MOL   C26538857   1.477   5.567   3.918  0.0834 -0.9509  0.1809
   97MOL   C26638858   1.577   5.506   3.841  0.2856  0.6136  0.2392
   97MOL   O26738859   1.658   5.576   3.749  0.5015  0.9787 -0.0930
   97MOL   C26838860   1.642   5.720   3.749 -0.2132  0.4075 -0.9649
   97MOL   C26938861   1.589   5.365   3.847 -0.6899  0.2187  0.1503
   97MOL   C27038862   1.486   5.290   3.907 -0.4028  0.2492 -0.3308
   97MOL   C27138863   1.348   5.204   4.188  0.0381 -0.0684 -0.0015
   97MOL   H27238864   1.198   5.331   4.078  0.3270  1.0840 -1.5182
   97MOL   H27338865   1.303   5.545   4.038 -0.9283 -1.7235 -0.5769
   97MOL   H27438866   1.472   5.674   3.936 -2.6525 -0.7593 -1.5035
   97MOL   H27538867   1.543   5.765   3.741  0.9862  3.1845 -0.4893
   97MOL   H27638868   1.696   5.756   3.662 -1.2441  2.1311 -0.9015
   97MOL   H27738869   1.695   5.749   3.839  1.3526 -0.4903 -1.5761
   97MOL   H27838870   1.663   5.323   3.781  0.6733  1.3027  0.9690
   97MOL   H27938871   1.498   5.182   3.905 -1.7463  0.0629  0.7385
   97MOL   H28038872   1.279   5.153   4.256 -3.9392  1.1802 -2.8760
   97MOL   H28138873   1.423   5.132   4.156 -0.2002 -0.1839 -0.3040
   97MOL   C28238874   1.415   5.305   4.275  0.5542 -0.5217 -0.0329
   97MOL   C28338875   1.496   5.235   4.385  0.0303 -0.8381  0.3330
   97MOL   C28438876   1.431   5.144   4.479 -0.0473  0.2681 -0.6552
   97MOL   C28538877   1.501   5.076   4.576  0.7095 -0.1540  0.0051
   97MOL   C28638878   1.642   5.093   4.590 -0.1372  0.3586 -0.3067
   97MOL   O28738879   1.708   5.015   4.683 -0.3167  0.4394  0.3074
   97MOL   C28838880   1.843   5.018   4.687  0.5386  0.6431  0.2698
   97MOL   C28938881   1.703   5.193   4.509 -0.6253  0.0034  0.0493
   97MOL   C29038882   1.632   5.260   4.401 -0.3489 -0.1825 -0.0682
   97MOL   C29138883   1.308   5.397   4.338  0.1647 -0.1172 -0.0531
   97MOL   H29238884   1.480   5.377   4.226 -0.7173 -0.8671 -2.3047
   97MOL   H29338885   1.326   5.121   4.466 -0.4072  2.0219 -0.8856
   97MOL   H29438886   1.462   5.002   4.644  1.3795 -1.4990 -1.0439
   97MOL   H29538887   1.886   5.113   4.719  1.2256  1.5134 -3.1365
   97MOL   H29638888   1.891   4.949   4.756  2.7377  0.6072 -1.2706
   97MOL   H29738889   1.883   5.005   4.587 -0.3513  2.7326 -0.4001
   97MOL   H29838890   1.809   5.215   4.510 -0.7881  0.8294  2.9602
   97MOL   H29938891   1.685   5.322   4.331 -0.8432  2.1519  1.5966
   97MOL   H30038892   1.251   5.454   4.265 -3.0237 -2.4369  0.4939
   97MOL   H30138893   1.248   5.329   4.398 -0.0013 -0.3714 -0.5018
   97MOL   C30238894   1.356   5.501   4.439 -0.2141  0.0589  0.4715
   97MOL   C30338895   1.433   5.613   4.368  0.1830  0.4136 -0.3775
   97MOL   C30438896   1.355   5.711   4.298  0.2975  0.3045  0.5575
   97MOL   C30538897   1.417   5.816   4.225  0.3283 -0.2845 -0.6106
   97MOL   C30638898   1.557   5.821   4.224  0.0429  0.7867  0.2449
   97MOL   O30738899   1.640   5.911   4.149 -0.0868  0.2209  0.1984
   97MOL   C30838900   1.581   6.000   4.063 -0.8456 -0.1244 -0.8575
   97MOL   C30938901   1.636   5.728   4.300 -0.5486  1.1032  0.4986
   97MOL   C31038902   1.574   5.609   4.356  0.8889  0.2285  0.1319
   97MOL   C31138903   1.257   5.556   4.533 -0.6151 -0.1390 -0.0839
   97MOL   H31238904   1.428   5.456   4.508  0.9815 -0.9551 -1.3966
   97MOL   H31338905   1.247   5.709   4.300  0.3120  0.5912  1.7915
   97MOL   H31438906   1.360   5.889   4.170  1.4237  0.6743 -0.4963
   97MOL   H31538907   1.538   6.084   4.117 -1.0374 -1.0439  0.4714
   97MOL   H31638908   1.505   5.950   4.004  0.6498 -2.2860 -1.0136
   97MOL   H31738909   1.662   6.036   4.000  0.5887  0.1675  1.0916
   97MOL   H31838910   1.743   5.735   4.290 -0.6826  0.8464 -1.2160
   97MOL   H31938911   1.637   5.532   4.397  1.0087 -0.8026 -1.9457
   97MOL   H32038912   1.171   5.575   4.468 -0.9197 -0.3946  0.2446
   97MOL   H32138913   1.297   5.650   4.571 -0.2808 -0.2846 -0.0756
   97MOL   C32238914   1.218   5.467   4.653  0.0744 -0.4768 -0.2067
   97MOL   C32338915   1.084   5.403   4.627 -0.7255  0.3101  0.2182
   97MOL   C32438916   1.064   5.259   4.639  0.2429  0.0922 -1.1179
   97MOL   C32538917   0.930   5.212   4.631  0.0648  0.0933 -0.2098
   97MOL   C32638918   0.822   5.299   4.612 -0.1332  0.3325  0.3103
   97MOL   O32738919   0.691   5.257   4.595 -0.2292 -0.4466 -0.1609
   97MOL   C32838920   0.658   5.120   4.595 -0.2757 -0.4931  0.0984
   97MOL   C32938921   0.844   5.436   4.590  0.1563  0.2034 -0.3770
   97MOL   C33038922   0.976   5.485   4.595 -0.0632 -0.3232 -0.8738
   97MOL   C33138923   1.221   5.553   4.784  0.6557  0.5622 -1.4033
   97MOL   H33238924   1.290   5.386   4.667  0.9291  0.3931  0.4660
   97MOL   H33338925   1.151   5.197   4.655 -0.3576 -0.3636  0.4322
   97MOL   H33438926   0.904   5.110   4.657 -2.4339  1.1154  1.5688
   97MOL   H33538927   0.554   5.107   4.624 -0.1114  1.5819  1.7487
   97MOL   H33638928   0.711   5.058   4.668  1.4022  2.3388  1.3754
   97MOL   H33738929   0.680   5.079   4.496 -0.7545  1.2031 -0.7224
   97MOL   H33838930   0.762   5.502   4.568  1.3003  1.7044 -0.1639
   97MOL   H33938931   1.000   5.590   4.582  4.2435 -1.0671  0.4462
   97MOL   H34038932   1.191   5.657   4.772  0.1158  0.8480  1.8557
   97MOL   H34138933   1.139   5.510   4.843  0.6425  0.3664 -1.5644
   97MOL   C34238934   1.353   5.549   4.857  0.2999 -0.3526  0.6228
   97MOL   C34338935   1.364   5.407   4.919 -0.9363  0.3781  0.0777
   97MOL   C34438936   1.272   5.360   5.014  0.4862 -0.0333  0.4427
   97MOL   C34538937   1.292   5.236   5.077  0.4635  0.4902  0.2584
   97MOL   C34638938   1.390   5.149   5.036  0.0993 -0.0447  0.1839
   97MOL   O34738939   1.386   5.022   5.087 -0.3597 -0.0222 -0.2401
   97MOL   C34838940   1.470   4.922   5.029 -0.6069  0.1499 -0.1001
   97MOL   C34938941   1.487   5.198   4.942  0.3748  0.5233  0.7186
   97MOL   C35038942   1.469   5.324   4.877 -0.4099  0.0914 -0.0284
   97MOL   C35138943   1.364   5.651   4.976 -0.1187  0.3565 -0.3414
   97MOL   H35238944   1.424   5.559   4.775  0.5376 -0.3985  0.8262
   97MOL   H35338945   1.182   5.409   5.048 -1.2095 -2.9435  0.2214
   97MOL   H35438946   1.223   5.200   5.152  0.4398  0.9542  0.4649
   97MOL   H35538947   1.436   4.821   5.051  2.2300 -1.0045 -0.8025
   97MOL   H35638948   1.472   4.927   4.920 -0.4791 -1.5267 -0.1851
   97MOL   H35738949   1.570   4.941   5.068 -0.1265  1.6281 -1.9815
   97MOL   H35838950   1.571   5.135   4.917  0.5721 -0.1044  2.8388
   97MOL   H35938951   1.533   5.351   4.794 -0.9674 -0.5939 -0.6996
   97MOL   H36038952   1.275   5.633   5.037 -1.1854  2.3133 -1.2805
   97MOL   H36138953   1.439   5.614   5.046 -1.4978  0.0797  1.0158
   97MOL   C36238954   1.396   5.794   4.939  0.3611  0.4574 -0.0622
   97MOL   C36338955   1.540   5.798   4.888 -0.5533  0.6013 -0.2890
   97MOL   C36438956   1.563   5.820   4.753 -0.8789 -0.2912  0.0343
   97MOL   C36538957   1.690   5.799   4.697 -0.3736  0.3500  0.5672
   97MOL   C36638958   1.801   5.758   4.778  0.6736 -0.0822  0.0501
   97MOL   O36738959   1.921   5.716   4.729  1.7417 -0.3159 -0.3200
   97MOL   C36838960   1.966   5.765   4.603  0.7797  0.2668 -0.1519
   97MOL   C36938961   1.778   5.743   4.918 -0.0217 -0.0048  0.1571
   97MOL   C37038962   1.647   5.758   4.968  0.3246  0.4231  0.0050
   97MOL   C37138963   1.362   5.889   5.053  0.5168  0.1091  0.2127
   97MOL   H37238964   1.337   5.829   4.854  0.2620 -1.3240 -0.7405
   97MOL   H37338965   1.492   5.863   4.685 -1.0039  1.2535  1.1065
   97MOL   H37438966   1.701   5.784   4.590  0.8799 -0.1381  0.7469
   97MOL   H37538967   2.045   5.696   4.572  0.1416  0.4079 -2.1479
   97MOL   H37638968   1.898   5.777   4.519  1.9146 -1.1451 -1.3112
   97MOL   H37738969   2.021   5.859   4.610  2.9800 -0.9975  0.4209
   97MOL   H37838970   1.859   5.726   4.988 -0.6424  0.8175  1.0774
   97MOL   H37938971   1.617   5.746   5.071  0.7540 -3.4343 -0.2185
   97MOL   H38038972   1.257   5.870   5.078  0.9659 -1.1127  1.2613
   97MOL   H38138973   1.418   5.861   5.142  0.5667 -0.2319  0.0751
   97MOL   C38238974   1.378   6.036   5.036  0.5664 -0.8078 -0.2274
   97MOL   C38338975   1.361   6.100   5.176 -0.1955 -0.0970  0.5800
   97MOL   C38438976   1.239   6.094   5.242  0.0083  0.0013  1.1097
   97MOL   C38538977   1.217   6.163   5.366 -0.3964 -0.5440 -0.7092
   97MOL   C38638978   1.329   6.235   5.418  0.4126  0.0745 -0.1446
   97MOL   O38738979   1.331   6.303   5.541 -0.6932  0.6804 -0.1649
   97MOL   C38838980   1.214   6.299   5.619 -0.0663  0.3207  0.1178
   97MOL   C38938981   1.448   6.235   5.354  0.2085  0.1040 -0.1390
   97MOL   C39038982   1.465   6.179   5.229 -0.4077  0.0494  0.4734
   97MOL   C39138983   1.288   6.097   4.933 -0.2244  0.3297 -0.1144
   97MOL   H39238984   1.480   6.047   5.001  1.2924 -1.1863  1.7129
   97MOL   H39338985   1.149   6.046   5.206  0.5323  0.0808 -0.3273
   97MOL   H39438986   1.121   6.177   5.414  0.6357 -0.5789  1.4583
   97MOL   H39538987   1.224   6.357   5.711 -0.8284 -0.8839  0.9713
   97MOL   H39638988   1.188   6.196   5.643 -1.7974  1.0939  1.7149
   97MOL   H39738989   1.130   6.351   5.574  0.8254 -0.1975 -2.2090
   97MOL   H39838990   1.531   6.288   5.399  0.7005 -1.3903  0.7660
   97MOL   H39938991   1.560   6.170   5.178 -1.0143  0.2528 -0.7254
   97MOL   H40038992   1.306   6.204   4.943  1.4643 -0.1484  2.3626
   97MOL   H40138993   1.184   6.069   4.944  0.5097 -2.4202  0.0637
   97MOL   H40238994   1.318   6.066   4.833 -1.0901 -1.3236  0.1339
   98MOL     C138995   1.613   1.517   0.270  0.0813 -0.5228 -0.0881
   98MOL     C238996   1.706   1.604   0.354 -0.6839 -0.5702 -0.1967
   98MOL     C338997   1.734   1.733   0.320  0.0522 -0.3631  0.4899
   98MOL     C438998   1.819   1.813   0.398 -0.4209  0.2819 -0.3780
   98MOL     C538999   1.866   1.770   0.522  0.1212  0.0123  1.0456
   98MOL     O639000   1.930   1.865   0.601 -0.5088  0.0337 -0.0035
   98MOL     C739001   1.953   1.833   0.734 -0.2958  0.2534  0.7521
   98MOL     C839002   1.840   1.635   0.559  1.0115 -0.3220  0.7058
   98MOL     C939003   1.756   1.555   0.477  0.0254  1.1865  0.1617
   98MOL    C1039004   1.693   1.412   0.183  0.2737 -0.3543 -0.4332
   98MOL    H1139005   1.536   1.571   0.214  0.2773 -0.6032 -0.4367
   98MOL    H1239006   1.686   1.779   0.235  1.2338  0.1988  0.1115
   98MOL    H1339007   1.841   1.916   0.372  0.2370  0.9769  2.6845
   98MOL    H1439008   1.988   1.924   0.781  0.1803  0.2239  0.4538
   98MOL    H1539009   1.862   1.793   0.780 -0.4998 -0.2603 -0.0899
   98MOL    H1639010   2.032   1.760   0.748  0.8240  1.0463 -1.3198
   98MOL    H1739011   1.870   1.609   0.659 -1.4450 -2.2822  0.9891
   98MOL    H1839012   1.737   1.452   0.504 -3.1306  1.0422 -2.3255
   98MOL    H1939013   1.777   1.364   0.232 -1.0261  0.3857  2.7109
   98MOL    H2039014   1.634   1.326   0.151  0.2707 -1.2153  1.7994
   98MOL    H2139015   1.555   1.454   0.338 -1.1850 -1.8002 -2.2608
   98MOL    C2239016   1.736   1.476   0.048 -0.0798 -1.0289 -0.5166
   98MOL    C2339017   1.846   1.388   8.030 -0.5772 -0.4612 -0.1205
   98MOL    C2439018   1.831   1.249   8.030 -0.1367  0.0317  0.2346
   98MOL    C2539019   1.937   1.169   7.980 -0.5559 -0.5458 -0.0531
   98MOL    C2639020   2.063   1.224   7.937  0.3285  0.6253 -0.0969
   98MOL    O2739021   2.155   1.141   7.882  0.1879 -0.0457 -0.1845
   98MOL    C2839022   2.270   1.190   7.817  0.3595 -0.1120 -0.0877
   98MOL    C2939023   2.078   1.363   7.941  0.9035 -0.7065 -0.1514
   98MOL    C3039024   1.965   1.442   7.980  0.3944  0.3381  0.2345
   98MOL    C3139025   1.629   1.490   7.974 -0.1471  0.9631 -0.5942
   98MOL    H3239026   1.787   1.570   0.071 -0.2728 -0.1677 -3.4287
   98MOL    H3339027   1.749   1.186   0.022  0.1458 -1.1855 -1.3402
   98MOL    H3439028   1.923   1.062   7.982 -1.4288 -0.4710 -1.5059
   98MOL    H3539029   2.332   1.236   7.895  0.7879 -2.2030  0.8349
   98MOL    H3639030   2.246   1.264   7.741  0.6045 -0.8361 -0.8670
   98MOL    H3739031   2.325   1.103   7.783 -0.8332 -0.6700 -0.6189
   98MOL    H3839032   2.164   1.418   7.906 -0.0784  1.9936  1.4604
   98MOL    H3939033   1.967   1.550   7.987  2.9610  0.2207  1.5988
   98MOL    H4039034   1.623   1.391   7.928 -0.1891  0.1871  1.0703
   98MOL    H4139035   1.532   1.527   8.009  0.1355  0.8947  0.2538
   98MOL    C4239036   1.671   1.604   7.876  0.1435  0.3240  0.2284
   98MOL    C4339037   1.673   1.738   7.939  0.2431 -0.1609  0.1328
   98MOL    C4439038   1.787   1.825   7.930 -0.7265  0.1417  0.1930
   98MOL    C4539039   1.790   1.943   7.995 -0.5761  0.2250 -0.2918
   98MOL    C4639040   1.676   1.994   0.024 -0.0737  0.3970  0.4498
   98MOL    O4739041   1.681   2.102   0.103  0.0361 -0.4847  0.1774
   98MOL    C4839042   1.810   2.145   0.139  0.0438 -0.1249  0.7023
   98MOL    C4939043   1.560   1.915   0.026 -0.6452 -0.8289  0.3681
   98MOL    C5039044   1.559   1.792   8.004  0.0299  0.1552  0.0889
   98MOL    C5139045   1.585   1.602   7.754  0.1522  0.4460 -0.6073
   98MOL    H5239046   1.773   1.579   7.846  0.6991  0.2542  2.1484
   98MOL    H5339047   1.870   1.803   7.864 -0.5632  3.0923 -0.6620
   98MOL    H5439048   1.881   1.999   7.975 -0.8221  1.1593  1.0720
   98MOL    H5539049   1.808   2.161   0.247 -0.6160  3.2079  0.2534
   98MOL    H5639050   1.906   2.101   0.111 -0.4974 -1.1258  0.4245
   98MOL    H5739051   1.813   2.243   0.091 -2.2616 -0.0773  0.6418
   98MOL    H5839052   1.468   1.943   0.076  0.0433 -0.4486  1.4193
   98MOL    H5939053   1.467   1.736   7.995 -0.4054  0.9331 -0.3589
   98MOL    H6039054   1.554   1.697   7.710  0.0111  0.1690 -1.1173
   98MOL    H6139055   1.491   1.560   7.789  0.9705 -0.8257  0.0971
   98MOL    C6239056   1.647   1.523   7.631 -0.3526 -0.2270 -0.2966
   98MOL    C6339057   1.759   1.613   7.566  0.4176  0.1238  0.3889
   98MOL    C6439058   1.892   1.571   7.569 -0.1746  0.5601 -0.5520
   98MOL    C6539059   1.998   1.658   7.530 -0.1016  0.0962 -0.2652
   98MOL    C6639060   1.967   1.790   7.486 -0.1930  0.5827  0.1616
   98MOL    O6739061   2.064   1.881   7.453 -0.3789 -0.0185  0.1227
   98MOL    C6839062   2.053   2.017   7.484  0.4353 -0.1968  0.6661
   98MOL    C6939063   1.836   1.826   7.469 -0.7897  0.2872  0.2028
   98MOL    C7039064   1.732   1.736   7.512 -0.4326 -0.1384 -0.0072
   98MOL    C7139065   1.532   1.473   7.539  0.8527 -0.7382 -0.4567
   98MOL    H7239066   1.688   1.430   7.668  0.4402 -0.4070 -1.6007
   98MOL    H7339067   1.917   1.475   7.612 -1.2136  1.6136  2.5313
   98MOL    H7439068   2.100   1.624   7.541  0.2315  1.3845  0.7193
   98MOL    H7539069   2.007   2.022   7.583  1.6171  2.4465  1.1185
   98MOL    H7639070   1.999   2.074   7.409 -0.0092 -0.9272  0.4269
   98MOL    H7739071   2.153   2.059   7.499  0.4637  0.0981 -0.3502
   98MOL    H7839072   1.812   1.925   7.433 -0.5143  1.0119  1.9098
   98MOL    H7939073   1.632   1.775   7.518 -1.6110 -2.7823 -1.2535
   98MOL    H8039074   1.486   1.384   7.581  1.3579 -0.6264  0.3388
   98MOL    H8139075   1.451   1.547   7.539  0.6976 -0.9022 -1.3903
   98MOL    C8239076   1.564   1.443   7.390  0.2220 -1.0026 -0.1811
   98MOL    C8339077   1.684   1.346   7.390 -0.1013 -0.4977 -0.5385
   98MOL    C8439078   1.790   1.367   7.299  0.5051  0.1251  0.0383
   98MOL    C8539079   1.907   1.297   7.311  0.3519 -0.7190  0.1787
   98MOL    C8639080   1.913   1.185   7.400  0.5832 -0.0494  0.1935
   98MOL    O8739081   2.031   1.111   7.408 -0.1385  0.4434  0.0690
   98MOL    C8839082   2.061   1.042   7.529 -0.3471 -0.0742  0.2607
   98MOL    C8939083   1.801   1.153   7.479  0.5402 -0.1671 -0.1354
   98MOL    C9039084   1.686   1.230   7.470 -0.4138 -0.4961  0.6819
   98MOL    C9139085   1.444   1.373   7.321  0.1350 -0.2300 -0.0298
   98MOL    H9239086   1.595   1.538   7.347  0.0602  0.2196  2.2710
   98MOL    H9339087   1.781   1.444   7.223 -2.5773 -0.6031 -0.3900
   98MOL    H9439088   1.993   1.332   7.255  0.6121  0.2735  1.1719
   98MOL    H9539089   1.996   0.955   7.538 -0.2553  0.0095  1.9129
   98MOL    H9639090   2.037   1.102   7.616  1.0082  2.4691 -1.0586
   98MOL    H9739091   2.161   0.999   7.530 -0.7319 -1.0737 -1.7600
   98MOL    H9839092   1.802   1.070   7.547 -0.3080  0.6183  0.8713
   98MOL    H9939093   1.603   1.201   7.533 -0.7673 -2.1979 -0.5194
   98MOL   H10039094   1.470   1.341   7.220  0.6158 -0.7479  0.2553
   98MOL   H10139095   1.404   1.286   7.373  0.7429 -0.2383  0.4387
   98MOL   C10239096   1.320   1.468   7.307 -0.5848  0.1295 -0.3159
   98MOL   C10339097   1.357   1.602   7.241 -0.1057  0.2361 -0.8992
   98MOL   C10439098   1.322   1.731   7.297 -1.0256  0.1141 -0.1865
   98MOL   C10539099   1.348   1.851   7.234 -0.0625  0.7689  0.2605
   98MOL   C10639100   1.406   1.842   7.110  0.0479  0.0925 -0.2060
   98MOL   O10739101   1.427   1.959   7.047 -0.4736  0.2993 -0.3183
   98MOL   C10839102   1.467   1.970   6.907 -0.6783 -0.0498 -0.2826
   98MOL   C10939103   1.441   1.714   7.047 -0.1060 -0.1684 -0.6977
   98MOL   C11039104   1.423   1.593   7.115 -0.7787 -0.0855 -0.1526
   98MOL   C11139105   1.198   1.400   7.239 -0.4013 -0.0828 -0.0501
   98MOL   H11239106   1.288   1.476   7.411 -2.9773  1.6791 -1.1303
   98MOL   H11339107   1.283   1.724   7.398 -0.2124 -1.6891  0.0165
   98MOL   H11439108   1.312   1.946   7.270 -0.1840  0.6566  0.4363
   98MOL   H11539109   1.562   1.922   6.883 -0.5151 -1.0462  2.2215
   98MOL   H11639110   1.389   1.923   6.847 -1.6554 -2.2821  2.6075
   98MOL   H11739111   1.447   2.071   6.871  0.4382  0.4861  0.5679
   98MOL   H11839112   1.481   1.723   6.947 -1.0187 -1.3405 -1.1823
   98MOL   H11939113   1.458   1.507   7.060 -0.0703 -0.2389  0.5270
   98MOL   H12039114   1.231   1.358   7.144 -1.3144  0.3228 -0.5461
   98MOL   H12139115   1.184   1.307   7.294  0.2726 -0.5670 -0.6864
   98MOL   C12239116   1.063   1.480   7.234 -0.0275  0.8542  0.0883
   98MOL   C12339117   1.010   1.517   7.375  0.0009 -0.2464  0.1189
   98MOL   C12439118   0.956   1.417   7.462 -1.5135  1.0605 -0.0596
   98MOL   C12539119   0.909   1.449   7.587 -0.1709  0.2355 -0.3223
   98MOL   C12639120   0.917   1.584   7.636  0.2186  0.5349  0.2926
   98MOL   O12739121   0.870   1.628   7.751  0.0223  0.1723 -0.1656
   98MOL   C12839122   0.843   1.529   7.848 -0.3805 -0.6057 -1.0547
   98MOL   C12939123   0.962   1.684   7.549  0.5494  0.0092 -0.1092
   98MOL   C13039124   1.007   1.649   7.423  0.1820 -0.2515  0.2861
   98MOL   C13139125   0.949   1.402   7.163 -0.2799 -0.0778 -0.4626
   98MOL   H13239126   1.071   1.570   7.174  0.6819  0.1275 -0.9177
   98MOL   H13339127   0.962   1.312   7.438 -1.0525  1.1653 -0.3991
   98MOL   H13439128   0.860   1.369   7.640 -0.0322 -0.8992 -1.8671
   98MOL   H13539129   0.821   1.570   7.947  1.1531 -0.8954 -0.5847
   98MOL   H13639130   0.760   1.465   7.817 -0.7273 -0.2462 -0.8762
   98MOL   H13739131   0.929   1.463   7.859 -1.6311 -1.9923  0.6929
   98MOL   H13839132   0.971   1.786   7.581  0.0122  0.0310 -0.0203
   98MOL   H13939133   1.043   1.734   7.367  0.2108 -0.3063  0.2216
   98MOL   H14039134   0.856   1.410   7.219  0.8006  0.0110  1.3308
   98MOL   H14139135   0.975   1.296   7.171  2.6633  0.7524  1.8425
   98MOL   C14239136   0.906   1.427   7.014 -0.3644 -1.1487  0.1107
   98MOL   C14339137   1.028   1.426   6.922  1.0974  0.1349  0.2009
   98MOL   C14439138   1.089   1.557   6.898  0.5350  0.1997 -0.0122
   98MOL   C14539139   1.205   1.564   6.819  0.5232  0.1518  0.0797
   98MOL   C14639140   1.260   1.448   6.757  0.4924  0.5981 -0.0114
   98MOL   O14739141   1.361   1.463   6.661 -0.6085 -0.3387  0.0836
   98MOL   C14839142   1.406   1.342   6.601  0.0041  0.0046 -0.0155
   98MOL   C14939143   1.198   1.319   6.793 -0.7015  0.1457 -0.5042
   98MOL   C15039144   1.088   1.307   6.879 -0.2519 -0.3911 -0.3275
   98MOL   C15139145   0.804   1.321   6.967  0.2766  0.0559  0.3683
   98MOL   H15239146   0.858   1.525   7.009 -1.5548 -1.7861 -1.5461
   98MOL   H15339147   1.063   1.648   6.950  3.8640  0.3045  1.6026
   98MOL   H15439148   1.244   1.664   6.802 -0.0584  0.2272 -0.8886
   98MOL   H15539149   1.478   1.294   6.667  0.7969 -0.4114 -1.1611
   98MOL   H15639150   1.334   1.266   6.568  1.5372 -1.1713 -0.7476
   98MOL   H15739151   1.467   1.369   6.515 -1.0164 -1.5347 -1.2568
   98MOL   H15839152   1.237   1.228   6.751  1.0994  0.7779 -0.2140
   98MOL   H15939153   1.050   1.211   6.910 -0.6334 -0.3780 -0.7636
   98MOL   H16039154   0.760   1.274   7.054  0.9686 -1.0204  0.1423
   98MOL   H16139155   0.851   1.229   6.932  0.7877  0.8064 -0.9648
   98MOL   C16239156   0.685   1.382   6.880  0.8693 -0.0870 -0.2641
   98MOL   C16339157   0.568   1.279   6.873 -0.8214 -0.5680 -0.0620
   98MOL   C16439158   0.589   1.153   6.825 -0.2950 -0.2695 -0.4465
   98MOL   C16539159   0.486   1.060   6.820  0.5380 -0.1186 -0.0782
   98MOL   C16639160   0.359   1.092   6.868  0.1619  0.8077 -0.1577
   98MOL   O16739161   0.256   1.012   6.871 -0.2034  0.2528 -0.0309
   98MOL   C16839162   0.253   0.894   6.782  0.1030  0.2198  0.0576
   98MOL   C16939163   0.342   1.219   6.919  0.5410 -0.3080 -0.5437
   98MOL   C17039164   0.445   1.312   6.918 -0.4228  0.9109  0.1555
   98MOL   C17139165   0.726   1.408   6.733  0.4653 -0.0824 -0.2704
   98MOL   H17239166   0.652   1.474   6.929  1.4173 -0.6298  1.1528
   98MOL   H17339167   0.684   1.113   6.793  0.0880  1.4154 -1.4513
   98MOL   H17439168   0.510   0.962   6.782 -0.9572 -1.0553  1.3667
   98MOL   H17539169   0.295   0.921   6.685 -1.4157 -2.4152 -1.3784
   98MOL   H17639170   0.149   0.867   6.764 -0.2722  1.5410  0.1729
   98MOL   H17739171   0.314   0.812   6.820 -1.2872 -1.2385 -0.8311
   98MOL   H17839172   0.254   1.248   6.975  0.2576  1.3466 -1.7936
   98MOL   H17939173   0.429   1.405   6.970  2.4944  1.7331 -0.3343
   98MOL   H18039174   0.632   1.392   6.681  1.5543 -2.6239 -1.4811
   98MOL   H18139175   0.790   1.332   6.691  1.8260 -0.1943  1.8988
   98MOL   C18239176   0.779   1.550   6.693  0.1035  0.2207  0.2766
   98MOL   C18339177   0.680   1.655   6.754 -0.2216  0.5474 -0.8275
   98MOL   C18439178   0.731   1.751   6.848 -0.4530  1.3812 -0.3232
   98MOL   C18539179   0.643   1.856   6.894  0.2739 -0.5962  0.5092
   98MOL   C18639180   0.510   1.856   6.838  0.5165 -0.5815 -0.4618
   98MOL   O18739181   0.416   1.947   6.875 -0.7644  0.0651 -0.1832
   98MOL   C18839182   0.444   2.024   6.998 -0.4006  0.8198  1.0176
   98MOL   C18939183   0.465   1.760   6.743  0.2360 -0.6303  0.0438
   98MOL   C19039184   0.549   1.654   6.711  0.1440 -1.5426  0.4170
   98MOL   C19139185   0.800   1.564   6.541 -0.1514  0.1484  0.1360
   98MOL   H19239186   0.876   1.559   6.742  0.7589  1.7428 -1.2556
   98MOL   H19339187   0.833   1.752   6.882 -0.1344  0.7766 -1.2356
   98MOL   H19439188   0.687   1.931   6.958  0.0601 -0.3518  0.3742
   98MOL   H19539189   0.472   1.962   7.083  2.2834 -0.0355 -0.4156
   98MOL   H19639190   0.358   2.087   7.019  1.5083  3.6470  0.6063
   98MOL   H19739191   0.531   2.086   6.976 -0.5800 -0.2850 -3.2613
   98MOL   H19839192   0.365   1.745   6.705 -0.3014 -1.4150  1.7144
   98MOL   H19939193   0.515   1.574   6.647 -0.2439 -0.2429 -1.0363
   98MOL   H20039194   0.716   1.596   6.480  0.6963  2.2710  0.0312
   98MOL   H20139195   0.870   1.647   6.533  1.3512 -1.0447  0.5225
   98MOL   C20239196   0.872   1.449   6.470 -0.6171 -0.3730  0.0471
   98MOL   C20339197   0.978   1.509   6.374  0.4894  0.2723  0.6500
   98MOL   C20439198   0.934   1.588   6.265 -0.2857  0.4380  0.5791
   98MOL   C20539199   1.035   1.635   6.175 -0.0318  0.0494 -0.2818
   98MOL   C20639200   1.173   1.616   6.197  0.3149  0.5230 -0.1653
   98MOL   O20739201   1.271   1.655   6.105 -0.5318 -0.3229  0.3148
   98MOL   C20839202   1.230   1.733   5.996  0.2536 -0.2011 -0.1097
   98MOL   C20939203   1.210   1.544   6.305  0.3018 -0.3510  0.5256
   98MOL   C21039204   1.112   1.487   6.391 -0.0592 -0.1707  0.1645
   98MOL   C21139205   0.785   1.346   6.400 -0.1810  0.0587 -0.4072
   98MOL   H21239206   0.924   1.389   6.545  1.2066  0.3757 -0.5904
   98MOL   H21339207   0.829   1.603   6.244 -0.5649 -1.7009  0.3516
   98MOL   H21439208   0.998   1.691   6.091 -0.8462  0.4761  0.3533
   98MOL   H21539209   1.165   1.815   6.027 -1.3889 -1.3043 -0.5817
   98MOL   H21639210   1.322   1.779   5.960 -0.3238  0.8900 -0.1846
   98MOL   H21739211   1.177   1.670   5.924  1.6974  1.6845 -2.9061
   98MOL   H21839212   1.314   1.521   6.321  0.2995 -1.0405 -0.4611
   98MOL   H21939213   1.141   1.427   6.476  0.3550  0.1060  0.2216
   98MOL   H22039214   0.738   1.393   6.313  1.0797 -0.7479 -1.5471
   98MOL   H22139215   0.700   1.325   6.465 -1.6305  0.4166 -2.1527
   98MOL   C22239216   0.848   1.210   6.349  0.2329  0.3751  0.3921
   98MOL   C22339217   0.905   1.119   6.461  0.0482 -0.5029  0.1855
   98MOL   C22439218   0.834   1.033   6.543  0.4897  0.4557  0.6291
   98MOL   C22539219   0.891   0.948   6.642 -0.3566 -0.3670 -0.1611
   98MOL   C22639220   1.031   0.951   6.660 -0.0500  0.2242  0.0708
   98MOL   O22739221   1.081   0.861   6.749  0.3415  0.2919  0.0342
   98MOL   C22839222   1.217   0.862   6.787 -0.5773 -0.6819  0.7373
   98MOL   C22939223   1.105   1.037   6.583  0.1307 -0.1812  0.0918
   98MOL   C23039224   1.044   1.122   6.488 -0.4200  0.5802 -0.1842
   98MOL   C23139225   0.761   1.122   6.253 -0.2977  0.1990  0.0510
   98MOL   H23239226   0.935   1.241   6.291  0.7178  2.1266  1.9788
   98MOL   H23339227   0.731   1.020   6.514  0.4190 -0.6153  1.3363
   98MOL   H23439228   0.822   0.884   6.696  0.5240 -0.6867  0.5971
   98MOL   H23539229   1.239   0.819   6.885 -0.5507  1.9296  1.9275
   98MOL   H23639230   1.273   0.807   6.712 -1.0544 -0.1269 -0.0341
   98MOL   H23739231   1.245   0.966   6.809 -0.0908 -0.7567  0.4727
   98MOL   H23839232   1.211   1.030   6.601  0.0462 -5.5922 -0.7202
   98MOL   H23939233   1.108   1.197   6.444  0.2202  0.1079 -0.0635
   98MOL   H24039234   0.806   1.025   6.233 -2.4402 -0.5342 -1.4058
   98MOL   H24139235   0.665   1.097   6.297 -0.5053  2.1686  0.7441
   98MOL   C24239236   0.728   1.190   6.121  0.1292 -1.2105 -0.5891
   98MOL   C24339237   0.851   1.228   6.040  0.0783 -0.2271  0.2750
   98MOL   C24439238   0.926   1.127   5.981  0.0873 -0.6009 -0.4016
   98MOL   C24539239   1.036   1.153   5.901  0.3691 -1.0116 -0.0757
   98MOL   C24639240   1.065   1.289   5.861 -0.4073 -0.1687  0.7175
   98MOL   O24739241   1.173   1.312   5.775 -0.2138 -0.4301 -0.5243
   98MOL   C24839242   1.227   1.442   5.770  0.2525 -0.0194 -0.2389
   98MOL   C24939243   0.982   1.391   5.916 -0.1586 -0.8091 -0.3784
   98MOL   C25039244   0.878   1.360   6.006 -0.7073  0.7530 -0.6762
   98MOL   C25139245   0.632   1.098   6.036 -0.9675 -0.3428 -0.8701
   98MOL   H25239246   0.676   1.282   6.150  1.9623 -0.4278  0.2954
   98MOL   H25339247   0.906   1.022   6.000  0.0259 -0.8656 -1.8825
   98MOL   H25439248   1.085   1.066   5.859  1.7574 -0.8864  1.2350
   98MOL   H25539249   1.309   1.443   5.697  0.3562 -1.3924 -0.1522
   98MOL   H25639250   1.153   1.513   5.735 -0.2855 -0.4558  0.0124
   98MOL   H25739251   1.266   1.472   5.867  2.6288 -1.9759 -0.5340
   98MOL   H25839252   0.989   1.496   5.889 -0.2060 -0.4204  1.0656
   98MOL   H25939253   0.824   1.442   6.052 -0.5307  1.1043 -1.0846
   98MOL   H26039254   0.552   1.062   6.101 -0.2843 -2.6590 -1.2880
   98MOL   H26139255   0.693   1.010   6.021  0.5529 -0.0349  2.9750
   98MOL   C26239256   0.579   1.149   5.909 -0.3699 -0.0140 -0.1233
   98MOL   C26339257   0.472   1.257   5.928 -0.2783 -0.5419  0.5347
   98MOL   C26439258   0.498   1.382   5.873 -0.4631 -0.2311  0.0672
   98MOL   C26539259   0.406   1.487   5.882  0.3033 -0.0902  0.6951
   98MOL   C26639260   0.284   1.470   5.958 -0.0481 -0.2476 -0.4457
   98MOL   O26739261   0.192   1.574   5.961  0.0089  0.6297 -0.3000
   98MOL   C26839262   0.230   1.698   5.909  0.7002 -0.0203  0.4046
   98MOL   C26939263   0.254   1.339   6.004  0.1690 -0.0768  0.4677
   98MOL   C27039264   0.357   1.239   6.000 -0.2861  0.7150 -0.4415
   98MOL   C27139265   0.532   1.031   5.816 -0.4943 -0.3718 -0.0149
   98MOL   H27239266   0.657   1.196   5.850 -0.3466  1.1510  0.8346
   98MOL   H27339267   0.590   1.386   5.816  0.0272  0.7757  0.9041
   98MOL   H27439268   0.440   1.580   5.840 -0.3035 -0.4352 -0.5875
   98MOL   H27539269   0.157   1.777   5.922  2.8556  1.8714  1.3188
   98MOL   H27639270   0.245   1.703   5.801  0.9722 -0.5079  0.4141
   98MOL   H27739271   0.314   1.749   5.957 -0.9415  2.0287  1.1544
   98MOL   H27839272   0.161   1.323   6.057 -1.1336  0.4604 -1.5914
   98MOL   H27939273   0.342   1.138   6.037  0.7994  0.5101 -0.5606
   98MOL   H28039274   0.610   0.956   5.799 -1.6260 -1.2859 -1.1760
   98MOL   H28139275   0.462   0.969   5.872 -0.1124  1.3210  2.4046
   98MOL   C28239276   0.463   1.071   5.686 -0.4748  0.3150  0.3559
   98MOL   C28339277   0.401   0.944   5.622 -0.1831 -0.0282 -0.8407
   98MOL   C28439278   0.294   0.886   5.689 -0.0587  0.0785  0.3094
   98MOL   C28539279   0.238   0.761   5.649 -0.1625  0.2267 -0.3909
   98MOL   C28639280   0.301   0.683   5.547  0.9915  0.0630  1.0446
   98MOL   O28739281   0.263   0.557   5.507 -0.0405 -0.6730 -0.2747
   98MOL   C28839282   0.125   0.525   5.530  0.4112  0.3276  0.1851
   98MOL   C28939283   0.412   0.737   5.483 -0.1585 -1.0852  0.8589
   98MOL   C29039284   0.453   0.869   5.518 -0.0824 -1.1908 -0.0815
   98MOL   C29139285   0.558   1.155   5.588  0.1160 -0.0264  0.4685
   98MOL   H29239286   0.379   1.134   5.716 -0.6230 -0.2193  1.0777
   98MOL   H29339287   0.259   0.936   5.779  2.3153  1.8353  0.3200
   98MOL   H29439288   0.162   0.719   5.713  0.5949 -0.5931 -0.0096
   98MOL   H29539289   0.057   0.606   5.501 -0.7792 -0.9560 -0.6769
   98MOL   H29639290   0.096   0.433   5.480  1.2817 -0.3586  0.9416
   98MOL   H29739291   0.102   0.509   5.636 -2.0949  1.4814 -0.1318
   98MOL   H29839292   0.460   0.682   5.403  1.1627  1.5711 -0.2547
   98MOL   H29939293   0.539   0.899   5.459  0.5277 -3.2990 -0.3051
   98MOL   H30039294   0.584   1.245   5.644 -1.6265  0.5513  0.3922
   98MOL   H30139295   0.649   1.101   5.563  0.3019  1.0322 -1.2297
   98MOL   C30239296   0.495   1.205   5.451  0.0313 -0.0436  0.0643
   98MOL   C30339297   0.365   1.269   5.469 -0.6553 -0.1254 -0.1983
   98MOL   C30439298   0.256   1.198   5.411  0.2955  0.3260 -0.3958
   98MOL   C30539299   0.127   1.264   5.425  0.4865  0.5193  0.0521
   98MOL   C30639300   0.104   1.373   5.511  0.3194 -0.0035 -0.5549
   98MOL   O30739301   8.015   1.414   5.548 -0.0120 -0.4614  0.3013
   98MOL   C30839302   7.903   1.331   5.516 -0.0397  0.1855 -0.0366
   98MOL   C30939303   0.218   1.430   5.569  0.1306  0.2524 -0.3047
   98MOL   C31039304   0.343   1.383   5.549 -0.0775  0.4432  0.0738
   98MOL   C31139305   0.597   1.309   5.386  0.1781  0.1962 -0.3353
   98MOL   H31239306   0.483   1.119   5.385  0.9032 -0.0322 -0.1162
   98MOL   H31339307   0.262   1.116   5.341  0.2009 -0.2260  0.2300
   98MOL   H31439308   0.046   1.217   5.372  2.0614 -2.5363  0.2361
   98MOL   H31539309   7.805   1.349   5.560 -0.6730  1.3951 -1.8961
   98MOL   H31639310   7.938   1.232   5.544  2.6759  0.8045 -1.1648
   98MOL   H31739311   7.890   1.317   5.409  0.3147  2.3965 -0.3960
   98MOL   H31839312   0.214   1.523   5.624  0.2001  0.1652 -0.1507
   98MOL   H31939313   0.429   1.431   5.594 -0.1168  1.1145 -0.5627
   98MOL   H32039314   0.693   1.259   5.374 -0.4959 -0.5779 -2.8082
   98MOL   H32139315   0.622   1.383   5.462 -0.3224 -0.7262  0.7362
   98MOL   C32239316   0.546   1.380   5.264  0.0832 -0.9904  0.4667
   98MOL   C32339317   0.499   1.284   5.156 -0.2994 -0.3639  0.3004
   98MOL   C32439318   0.592   1.190   5.108  0.6198 -0.2453  0.9776
   98MOL   C32539319   0.561   1.124   4.995 -0.2828  0.3742  0.9585
   98MOL   C32639320   0.431   1.140   4.929 -0.3400 -0.1936 -0.1631
   98MOL   O32739321   0.411   1.084   4.810 -0.5372  0.2164  0.1334
   98MOL   C32839322   0.281   1.072   4.752 -0.4714  0.1081 -0.3805
   98MOL   C32939323   0.337   1.230   4.988  0.5476  0.1837 -0.0324
   98MOL   C33039324   0.372   1.297   5.109  0.2024  0.2739 -0.1707
   98MOL   C33139325   0.656   1.472   5.200 -0.4314  0.0632  0.1728
   98MOL   H33239326   0.467   1.449   5.294  0.4434 -0.6711  0.6787
   98MOL   H33339327   0.692   1.177   5.145  2.3586  0.6614 -3.1492
   98MOL   H33439328   0.635   1.059   4.953 -0.3817 -0.0136  1.3781
   98MOL   H33539329   0.288   1.041   4.647 -0.5116  0.0633 -0.3700
   98MOL   H33639330   0.235   1.171   4.748  0.9506  0.7736 -0.6301
   98MOL   H33739331   0.217   1.002   4.805 -0.6677 -0.6528 -1.5958
   98MOL   H33839332   0.234   1.235   4.955  0.7506  2.0032 -0.4106
   98MOL   H33939333   0.300   1.359   5.161  0.6217  0.3391  0.3429
   98MOL   H34039334   0.747   1.412   5.206 -0.6195 -0.1209  1.4901
   98MOL   H34139335   0.638   1.488   5.094 -0.4372 -2.5540 -0.2400
   98MOL   C34239336   0.670   1.607   5.270  0.2490  0.6035 -0.0147
   98MOL   C34339337   0.599   1.712   5.189  0.2700 -1.1854 -0.5050
   98MOL   C34439338   0.653   1.762   5.074  0.2294  0.2058  0.8974
   98MOL   C34539339   0.576   1.857   4.997 -0.1941 -0.3844 -0.0297
   98MOL   C34639340   0.442   1.899   5.040  0.1470 -0.4136 -0.8010
   98MOL   O34739341   0.355   1.967   4.963  0.1849  0.1656 -0.1536
   98MOL   C34839342   0.412   2.048   4.866  0.1305 -0.2420  0.5689
   98MOL   C34939343   0.386   1.851   5.159 -0.6410  0.0158 -0.2256
   98MOL   C35039344   0.465   1.753   5.231 -0.6635  0.0499  1.2210
   98MOL   C35139345   0.814   1.647   5.302 -0.3543 -0.4341  0.0228
   98MOL   H35239346   0.621   1.607   5.367  3.1630 -0.0890  1.4943
   98MOL   H35339347   0.752   1.728   5.050 -0.6250 -0.8017 -1.3631
   98MOL   H35439348   0.602   1.879   4.895 -0.9554 -1.0543 -0.3738
   98MOL   H35539349   0.478   1.999   4.794 -0.5521 -1.6750  0.9115
   98MOL   H35639350   0.334   2.088   4.801  0.5887  0.4072  0.4154
   98MOL   H35739351   0.470   2.137   4.890  1.6047 -1.2241  0.7489
   98MOL   H35839352   0.294   1.884   5.204  0.2328  2.1137  0.0815
   98MOL   H35939353   0.435   1.711   5.325  2.9692 -1.4477  1.8222
   98MOL   H36039354   0.872   1.634   5.211 -0.7918  2.2480 -0.6687
   98MOL   H36139355   0.818   1.751   5.335 -0.1405 -0.9692  1.7520
   98MOL   C36239356   0.882   1.564   5.414  0.1943  0.3340  0.4118
   98MOL   C36339357   0.860   1.631   5.550 -0.0888  0.5730  0.3181
   98MOL   C36439358   0.770   1.577   5.643 -0.3282 -0.6676  0.4316
   98MOL   C36539359   0.766   1.640   5.773 -0.4038 -0.1237  0.1212
   98MOL   C36639360   0.842   1.747   5.810 -0.1458 -0.4754 -0.2530
   98MOL   O36739361   0.835   1.811   5.928 -0.3800 -0.3593  0.2290
   98MOL   C36839362   0.709   1.811   5.991  0.4576  0.0108  0.6956
   98MOL   C36939363   0.934   1.795   5.720  0.0304  0.0236  0.9952
   98MOL   C37039364   0.940   1.736   5.596  0.2481  0.3487  0.8856
   98MOL   C37139365   1.034   1.543   5.389  0.2292 -0.1846  0.4709
   98MOL   H37239366   0.838   1.464   5.413  0.5096  0.2032 -0.7905
   98MOL   H37339367   0.712   1.491   5.614  2.4235 -2.3418 -0.2651
   98MOL   H37439368   0.702   1.601   5.851 -0.7578 -2.4217 -1.2625
   98MOL   H37539369   0.625   1.827   5.923  1.0093 -1.3632 -0.3342
   98MOL   H37639370   0.697   1.713   6.036 -1.2081 -1.6237 -3.0799
   98MOL   H37739371   0.711   1.885   6.071 -1.1437 -1.6122  2.2850
   98MOL   H37839372   0.982   1.887   5.750  0.3451  0.4124 -0.6587
   98MOL   H37939373   1.000   1.792   5.525 -2.5075 -0.4805 -2.2566
   98MOL   H38039374   1.075   1.634   5.347 -1.5051 -0.0211 -0.9489
   98MOL   H38139375   1.081   1.529   5.486 -2.6961 -0.0069  1.9582
   98MOL   C38239376   1.087   1.426   5.302  0.8191 -0.2419  0.1961
   98MOL   C38339377   1.031   1.288   5.347 -0.2900  0.2549 -0.3223
   98MOL   C38439378   1.019   1.254   5.484 -0.1115 -0.4396 -0.0399
   98MOL   C38539379   0.974   1.123   5.521  0.0390  0.4885 -0.0281
   98MOL   C38639380   0.926   1.039   5.414 -0.0123  0.3328  0.5876
   98MOL   O38739381   0.887   0.917   5.462  0.3398 -0.5923  0.2986
   98MOL   C38839382   0.865   0.811   5.374  0.3340 -0.7500  0.2367
   98MOL   C38939383   0.926   1.078   5.279 -0.1153 -0.4530  0.0607
   98MOL   C39039384   0.976   1.202   5.247  0.1566 -0.0246  0.5233
   98MOL   C39139385   1.238   1.421   5.294 -0.2124 -0.2075  0.3133
   98MOL   H39239386   1.039   1.450   5.207 -0.8396 -1.4670  0.7058
   98MOL   H39339387   1.052   1.315   5.567  0.4746 -0.3821 -0.3131
   98MOL   H39439388   0.976   1.092   5.624  1.0971 -1.8380 -0.7187
   98MOL   H39539389   0.861   0.720   5.433 -0.0489  0.8531  2.7464
   98MOL   H39639390   0.941   0.789   5.300 -0.0684 -0.0852 -0.3811
   98MOL   H39739391   0.776   0.815   5.311  0.2355  1.1126  0.4771
   98MOL   H39839392   0.892   1.020   5.195  0.8643 -0.6938 -0.1813
   98MOL   H39939393   0.974   1.238   5.146  0.5097  0.4848  0.6951
   98MOL   H40039394   1.290   1.385   5.383  0.8470  1.0174  0.2104
   98MOL   H40139395   1.280   1.515   5.258  0.4310 -0.7952 -0.4943
   98MOL   H40239396   1.275   1.351   5.219 -1.0657 -2.3812  1.8703
   99MOL     C139397   1.131   2.287   7.343  0.5007  0.6054  0.9238
   99MOL     C239398   1.185   2.350   7.467  0.9855  0.2403 -0.3139
   99MOL     C339399   1.325   2.345   7.492 -0.1603  0.3164 -0.0518
   99MOL     C439400   1.387   2.407   7.604 -0.1314 -0.4027 -0.3444
   99MOL     C539401   1.307   2.485   7.691 -0.1080 -0.7091 -0.2582
   99MOL     O639402   1.347   2.560   7.798 -0.7867  0.4175  0.3217
   99MOL     C739403   1.482   2.568   7.831 -0.0298 -0.1895 -0.5344
   99MOL     C839404   1.168   2.481   7.666  0.6718 -0.4510  0.2363
   99MOL     C939405   1.102   2.411   7.560  0.7137 -0.4504  0.2388
   99MOL    C1039406   1.021   2.362   7.265 -0.6256  0.0778 -0.2721
   99MOL    H1139407   1.101   2.184   7.362  3.0640 -0.4025 -0.2320
   99MOL    H1239408   1.390   2.287   7.429 -0.5337 -1.2350  0.9698
   99MOL    H1339409   1.492   2.394   7.625  0.2828  3.5186  0.4324
   99MOL    H1439410   1.534   2.472   7.827 -0.0323 -0.1139 -2.9459
   99MOL    H1539411   1.542   2.634   7.768  1.9149  0.4651  1.9331
   99MOL    H1639412   1.479   2.607   7.933 -1.2627  0.7173 -0.9110
   99MOL    H1739413   1.112   2.537   7.739 -1.3712 -1.0331 -0.8320
   99MOL    H1839414   0.996   2.411   7.540  0.3859  2.6289  1.7012
   99MOL    H1939415   0.933   2.364   7.330 -0.1930  2.7848  0.3276
   99MOL    H2039416   1.054   2.466   7.253 -1.4155  0.5469  1.3874
   99MOL    H2139417   1.204   2.284   7.262  0.6507  1.8409  1.0036
   99MOL    C2239418   0.994   2.311   7.122 -0.1709  0.7500 -0.4128
   99MOL    C2339419   0.962   2.162   7.122 -0.1919  0.2319  0.5589
   99MOL    C2439420   0.836   2.135   7.170  0.9456 -1.1856  0.2706
   99MOL    C2539421   0.803   1.998   7.190  0.1950 -0.2398 -0.0891
   99MOL    C2639422   0.891   1.892   7.155 -0.3273  0.2422  0.2634
   99MOL    O2739423   0.861   1.754   7.179  0.0181 -0.7670  0.4619
   99MOL    C2839424   0.729   1.716   7.219  0.1920 -0.7387  0.1965
   99MOL    C2939425   1.011   1.926   7.090 -0.9610 -0.2241  0.2102
   99MOL    C3039426   1.052   2.056   7.081  0.0949 -0.5195  0.7211
   99MOL    C3139427   0.897   2.403   7.050 -0.1265 -0.5615 -0.0911
   99MOL    H3239428   1.083   2.313   7.060  0.4509  0.3502  0.4513
   99MOL    H3339429   0.759   2.205   7.199  1.9907  1.2159 -2.4441
   99MOL    H3439430   0.708   1.983   7.241  0.7804  0.9656  1.3931
   99MOL    H3539431   0.665   1.717   7.131  0.9932 -0.4705 -0.3923
   99MOL    H3639432   0.681   1.781   7.292  1.6501  1.1610 -0.4834
   99MOL    H3739433   0.731   1.610   7.244 -0.0215 -1.2715 -1.8895
   99MOL    H3839434   1.073   1.845   7.055  0.1566  0.7548 -0.0959
   99MOL    H3939435   1.133   2.089   7.018 -0.4420  0.7350  0.6678
   99MOL    H4039436   0.819   2.426   7.122  0.0251  0.5251 -0.2638
   99MOL    H4139437   0.946   2.497   7.022 -1.1303 -0.5090 -1.7473
   99MOL    C4239438   0.828   2.352   6.913  0.7544 -0.0623  0.3018
   99MOL    C4339439   0.910   2.260   6.821  0.8330  0.0574  0.2367
   99MOL    C4439440   0.854   2.145   6.760  0.6609 -0.6201 -0.5898
   99MOL    C4539441   0.943   2.052   6.702 -0.2232  0.0263  0.0858
   99MOL    C4639442   1.080   2.084   6.678  0.1923  0.6101  0.4195
   99MOL    O4739443   1.155   2.004   6.597  0.2579 -0.5568 -0.0834
   99MOL    C4839444   1.155   1.864   6.622  0.0335 -0.3625 -0.4667
   99MOL    C4939445   1.125   2.209   6.725 -0.3637  0.0259 -0.8601
   99MOL    C5039446   1.042   2.297   6.789 -0.3407  0.2002 -0.0412
   99MOL    C5139447   0.752   2.462   6.822  1.0438 -0.2283 -0.0920
   99MOL    H5239448   0.750   2.282   6.946  0.0720  0.2581 -0.5889
   99MOL    H5339449   0.751   2.113   6.765  1.0292 -1.5948  1.1930
   99MOL    H5439450   0.901   1.967   6.651  0.7162  0.1917 -0.9754
   99MOL    H5539451   1.261   1.841   6.610 -0.0902 -1.4458  0.4916
   99MOL    H5639452   1.143   1.829   6.724 -2.3675  1.0977 -0.2176
   99MOL    H5739453   1.085   1.820   6.551 -2.0314 -0.9240  1.8803
   99MOL    H5839454   1.222   2.235   6.685  1.1108 -1.9681  1.2559
   99MOL    H5939455   1.082   2.392   6.819  1.9247 -1.2451  1.6653
   99MOL    H6039456   0.720   2.424   6.725  1.7821  0.0202 -0.4349
   99MOL    H6139457   0.830   2.531   6.793 -1.7320  2.4426 -1.4705
   99MOL    C6239458   0.630   2.532   6.885 -0.1715  0.0187  0.4921
   99MOL    C6339459   0.512   2.445   6.928  0.3034 -0.1680 -0.2664
   99MOL    C6439460   0.460   2.467   7.059  0.3183 -0.2888  0.6874
   99MOL    C6539461   0.330   2.419   7.094  0.6097  0.0069  0.2048
   99MOL    C6639462   0.254   2.345   7.000 -0.1652 -0.1170  0.6377
   99MOL    O6739463   0.128   2.302   7.041  0.4909  0.1568  0.5719
   99MOL    C6839464   0.043   2.249   6.944 -0.4532  0.6387  0.0258
   99MOL    C6939465   0.309   2.317   6.875 -0.3317 -0.3210  0.1070
   99MOL    C7039466   0.437   2.366   6.835  0.3252  0.1731 -0.1037
   99MOL    C7139467   0.582   2.637   6.788  0.0243  0.4295  0.2901
   99MOL    H7239468   0.673   2.580   6.973  3.1662  0.0533 -1.0679
   99MOL    H7339469   0.515   2.532   7.125 -1.1005  0.2620  1.3559
   99MOL    H7439470   0.286   2.432   7.192  0.4646  1.9611 -0.0865
   99MOL    H7539471   0.013   2.318   6.865  1.0159  0.8955 -0.3141
   99MOL    H7639472   7.995   2.215   6.999 -0.9511 -1.3096 -1.8559
   99MOL    H7739473   0.080   2.158   6.896 -1.5877 -0.3826  1.0768
   99MOL    H7839474   0.259   2.251   6.806 -2.2999  2.7757 -1.5413
   99MOL    H7939475   0.471   2.353   6.733 -1.0024  0.0090 -0.5338
   99MOL    H8039476   0.659   2.694   6.735 -1.0463 -0.2951 -2.1199
   99MOL    H8139477   0.534   2.576   6.712 -3.9513  1.7085  1.6407
   99MOL    C8239478   0.465   2.731   6.838 -0.2289  0.5159  0.4343
   99MOL    C8339479   0.503   2.831   6.943  0.4649 -0.0543 -0.5608
   99MOL    C8439480   0.430   2.842   7.058 -0.5064 -0.8062  0.3824
   99MOL    C8539481   0.456   2.949   7.143  0.8627  1.1377  0.7842
   99MOL    C8639482   0.559   3.042   7.120 -0.2965 -0.5430 -0.1131
   99MOL    O8739483   0.604   3.137   7.204  0.3793  0.0850 -0.3501
   99MOL    C8839484   0.528   3.153   7.326 -0.8172 -0.9238  0.0611
   99MOL    C8939485   0.639   3.028   7.000 -0.1318  0.3450  0.3126
   99MOL    C9039486   0.610   2.918   6.916 -0.0619 -0.1801 -0.7223
   99MOL    C9139487   0.377   2.787   6.726 -0.5801  0.3567  0.2732
   99MOL    H9239488   0.399   2.660   6.888 -0.8591 -0.4781 -1.7246
   99MOL    H9339489   0.357   2.766   7.082 -0.4701 -1.0794 -0.3433
   99MOL    H9439490   0.390   2.960   7.228 -1.7562 -2.8144 -0.5814
   99MOL    H9539491   0.570   3.233   7.387 -2.0137 -1.4362  1.6030
   99MOL    H9639492   0.536   3.062   7.385  1.4122 -1.0206 -0.3649
   99MOL    H9739493   0.422   3.174   7.309 -0.1334  1.4832 -1.3951
   99MOL    H9839494   0.717   3.101   6.982  0.5326 -0.7108 -1.2511
   99MOL    H9939495   0.685   2.899   6.841  1.5656 -0.1090  0.8484
   99MOL   H10039496   0.330   2.880   6.756 -1.7649  0.0220 -0.5300
   99MOL   H10139497   0.453   2.801   6.650  0.2741 -0.9988  0.8391
   99MOL   C10239498   0.272   2.692   6.671 -0.0414  0.2925 -0.5332
   99MOL   C10339499   0.130   2.715   6.732 -0.5559  0.8269  0.1366
   99MOL   C10439500   0.072   2.841   6.736  0.7312  0.2140 -0.1699
   99MOL   C10539501   7.994   2.863   6.804  0.4247  0.5680 -0.3353
   99MOL   C10639502   7.934   2.755   6.869  0.5708 -0.3735  0.1741
   99MOL   O10739503   7.822   2.792   6.940 -0.2029  0.2209 -0.5507
   99MOL   C10839504   7.742   2.688   6.989  0.6776 -0.0922  0.2483
   99MOL   C10939505   7.986   2.621   6.862  0.6945  0.7342 -0.2857
   99MOL   C11039506   0.067   2.606   6.790 -0.0858 -0.5233 -1.1714
   99MOL   C11139507   0.255   2.702   6.518 -0.5855  0.1858 -1.3168
   99MOL   H11239508   0.302   2.591   6.696 -0.6443  0.1388 -0.4160
   99MOL   H11339509   0.125   2.930   6.706  1.2508 -0.9140 -2.7284
   99MOL   H11439510   7.943   2.957   6.815 -1.1182 -0.1350 -1.2598
   99MOL   H11539511   7.667   2.724   7.059  0.7821 -2.6648  1.7113
   99MOL   H11639512   7.683   2.641   6.910  0.3302  0.1731  0.3472
   99MOL   H11739513   7.803   2.618   7.046 -1.0283 -1.1940  0.7422
   99MOL   H11839514   7.951   2.536   6.918  1.3091  0.6624 -0.0050
   99MOL   H11939515   0.117   2.511   6.775  0.9463 -0.1910  0.1643
   99MOL   H12039516   0.202   2.793   6.491  1.3912  1.7534 -0.0999
   99MOL   H12139517   0.359   2.704   6.484 -0.0949 -0.1790  0.1257
   99MOL   C12239518   0.181   2.576   6.451 -0.2311  0.5320  0.0113
   99MOL   C12339519   0.253   2.443   6.484 -0.1675  0.8910 -0.5978
   99MOL   C12439520   0.386   2.412   6.451 -0.4160 -0.2740 -0.0401
   99MOL   C12539521   0.446   2.282   6.468  0.3017 -1.0617 -0.5520
   99MOL   C12639522   0.374   2.177   6.527 -0.0276 -0.2270  0.3468
   99MOL   O12739523   0.419   2.051   6.541 -1.1181  0.4913 -1.0394
   99MOL   C12839524   0.544   2.020   6.491  0.5428  0.6914 -0.2679
   99MOL   C12939525   0.238   2.202   6.561 -0.1905 -1.0284 -0.0709
   99MOL   C13039526   0.179   2.330   6.536 -0.0848  0.3732 -0.0868
   99MOL   C13139527   0.171   2.612   6.297 -0.1356  0.1661 -0.7088
   99MOL   H13239528   0.079   2.557   6.485  0.9951 -4.4210  1.3471
   99MOL   H13339529   0.437   2.492   6.400  0.5621 -2.1079 -2.0007
   99MOL   H13439530   0.542   2.264   6.422  0.7318 -0.5322  0.1177
   99MOL   H13539531   0.555   2.044   6.385 -1.7728  2.8294 -0.0714
   99MOL   H13639532   0.622   2.075   6.544  0.5235  2.5692 -2.1142
   99MOL   H13739533   0.549   1.913   6.510 -1.2957  0.3769 -1.3974
   99MOL   H13839534   0.176   2.130   6.613 -2.0957  1.6203  1.4624
   99MOL   H13939535   0.072   2.335   6.547 -0.0632  0.0196  0.3186
   99MOL   H14039536   0.270   2.639   6.261 -0.0668 -0.3674 -0.9233
   99MOL   H14139537   0.101   2.693   6.274 -1.6183 -0.8499  0.1663
   99MOL   C14239538   0.126   2.496   6.199  0.1817  0.7062  0.0601
   99MOL   C14339539   8.014   2.486   6.175  0.7534  0.2397 -0.9153
   99MOL   C14439540   7.938   2.405   6.260 -0.5390 -0.4396 -0.0870
   99MOL   C14539541   7.803   2.388   6.238  0.3133  0.6620 -0.1063
   99MOL   C14639542   7.732   2.468   6.148 -0.4781 -0.1417 -0.0514
   99MOL   O14739543   7.596   2.456   6.135  0.1695 -0.0763 -0.5132
   99MOL   C14839544   7.524   2.409   6.245  0.2243 -0.5262 -0.1934
   99MOL   C14939545   7.801   2.541   6.054  0.0539 -0.3425 -0.1840
   99MOL   C15039546   7.940   2.554   6.067 -0.3192 -1.1088 -0.1467
   99MOL   C15139547   0.201   2.500   6.062 -0.6031  0.4549  0.1739
   99MOL   H15239548   0.161   2.402   6.243 -0.4010  0.4751  0.0364
   99MOL   H15339549   7.997   2.345   6.328 -0.9394 -0.8871 -0.1311
   99MOL   H15439550   7.755   2.315   6.301 -1.8210  0.2597 -2.1504
   99MOL   H15539551   7.557   2.450   6.341 -1.6823 -0.1800  0.3332
   99MOL   H15639552   7.419   2.412   6.215  0.1910  0.0782 -0.0240
   99MOL   H15739553   7.546   2.303   6.260  0.2905 -0.2213  2.1212
   99MOL   H15839554   7.752   2.591   5.971  1.8407  0.9125 -0.5194
   99MOL   H15939555   7.998   2.609   5.995 -1.1736  0.0891  0.0654
   99MOL   H16039556   0.306   2.498   6.091 -0.7041  5.1550  1.3228
   99MOL   H16139557   0.191   2.599   6.017 -1.8611  1.1067  1.8250
   99MOL   C16239558   0.168   2.383   5.961  0.4724  0.1779 -0.8082
   99MOL   C16339559   0.201   2.258   6.022 -0.5290 -0.0255  0.4365
   99MOL   C16439560   0.332   2.226   6.066  0.4656 -0.8177 -0.3623
   99MOL   C16539561   0.358   2.121   6.156  0.2293 -1.0672 -0.1166
   99MOL   C16639562   0.261   2.037   6.209 -0.0084 -0.7482  0.6188
   99MOL   O16739563   0.312   1.930   6.282 -0.1947  0.2334  0.8038
   99MOL   C16839564   0.230   1.864   6.381 -0.6526 -0.4930 -0.5064
   99MOL   C16939565   0.130   2.067   6.163 -0.6008  0.5214  0.0042
   99MOL   C17039566   0.099   2.176   6.072  0.9138 -0.2810 -0.8053
   99MOL   C17139567   0.231   2.412   5.819 -0.0417  0.3703 -0.1346
   99MOL   H17239568   0.060   2.382   5.944  0.3024 -0.8394  0.2456
   99MOL   H17339569   0.414   2.291   6.036 -0.8779  1.9463  1.6873
   99MOL   H17439570   0.463   2.111   6.182  0.3783  1.3995  0.3107
   99MOL   H17539571   0.299   1.806   6.442  0.0146 -0.0518 -0.8342
   99MOL   H17639572   0.156   1.804   6.329 -2.2528 -1.0507  2.3265
   99MOL   H17739573   0.186   1.933   6.454 -0.6409  0.4282 -1.3547
   99MOL   H17839574   0.048   2.003   6.193 -0.2217  0.0416  0.0188
   99MOL   H17939575   8.034   2.186   6.046  0.7510  1.4848  0.4538
   99MOL   H18039576   0.337   2.392   5.831  0.0487 -0.7279 -2.6115
   99MOL   H18139577   0.217   2.519   5.803 -2.8140  0.0594 -0.0603
   99MOL   C18239578   0.179   2.332   5.708  0.0769  0.4102 -0.6260
   99MOL   C18339579   0.277   2.341   5.590 -0.6032  0.1442 -0.2002
   99MOL   C18439580   0.344   2.462   5.564 -0.1045  0.3086  0.2210
   99MOL   C18539581   0.437   2.466   5.455  0.2639  0.0212  0.1259
   99MOL   C18639582   0.451   2.352   5.371 -0.6054  0.3528  0.2048
   99MOL   O18739583   0.537   2.371   5.260  0.2770 -0.4517  0.1268
   99MOL   C18839584   0.550   2.266   5.163  0.2546 -0.6411  0.1022
   99MOL   C18939585   0.381   2.231   5.400 -0.7263 -0.0232 -0.4377
   99MOL   C19039586   0.293   2.229   5.510 -0.0308  0.0984 -0.4334
   99MOL   C19139587   0.031   2.353   5.676  0.8792  0.9194 -1.1557
   99MOL   H19239588   0.186   2.231   5.748  2.2291  1.1539  0.9452
   99MOL   H19339589   0.310   2.556   5.606  0.3726 -0.5504  2.6017
   99MOL   H19439590   0.493   2.554   5.427 -2.0221  1.3618 -0.3703
   99MOL   H19539591   0.647   2.286   5.116  0.0413  1.7853  0.6337
   99MOL   H19639592   0.472   2.269   5.087 -0.1020 -0.3585  0.4765
   99MOL   H19739593   0.569   2.167   5.205  0.8661 -0.5163  0.1251
   99MOL   H19839594   0.397   2.139   5.345 -0.2077 -0.7390  0.8904
   99MOL   H19939595   0.251   2.133   5.534  0.9029 -0.2875 -0.3316
   99MOL   H20039596   8.036   2.431   5.743  0.6352  0.5311 -0.8304
   99MOL   H20139597   0.033   2.384   5.571  3.0453 -0.4995 -1.5650
   99MOL   C20239598   7.998   2.213   5.693  0.1637 -0.3775  0.0870
   99MOL   C20339599   8.038   2.105   5.590 -0.6424 -0.0918 -0.1067
   99MOL   C20439600   8.003   2.111   5.454  0.6042  0.0934  0.1377
   99MOL   C20539601   8.035   2.009   5.359 -0.4443 -0.1348 -0.3844
   99MOL   C20639602   0.051   1.886   5.403 -0.2430 -0.6212 -0.2882
   99MOL   O20739603   0.076   1.790   5.313  0.6650 -0.4027  0.4676
   99MOL   C20839604   0.069   1.651   5.354  0.4576 -0.1321 -0.5340
   99MOL   C20939605   0.101   1.888   5.532 -0.0659 -0.3259  0.1553
   99MOL   C21039606   0.074   1.990   5.625 -1.1988  0.1844  0.5692
   99MOL   C21139607   7.840   2.225   5.683 -0.4852 -0.5837 -0.9494
   99MOL   H21239608   8.029   2.173   5.790  1.4930  0.7577  0.1591
   99MOL   H21339609   7.940   2.195   5.427  0.7956 -0.2423 -1.3877
   99MOL   H21439610   8.005   2.026   5.257 -0.2982  1.8519 -0.1077
   99MOL   H21539611   8.024   1.598   5.311 -1.6342  2.8474 -0.2325
   99MOL   H21639612   0.163   1.608   5.318  1.2354  1.0476  0.0543
   99MOL   H21739613   0.065   1.639   5.462  1.3600  2.4076 -0.1922
   99MOL   H21839614   0.158   1.802   5.567 -0.9018 -1.2709 -0.7644
   99MOL   H21939615   0.114   1.984   5.725 -0.8739  0.1970  0.4399
   99MOL   H22039616   7.812   2.274   5.589 -1.8406  1.2840  0.3987
   99MOL   H22139617   7.803   2.290   5.761  2.0230 -1.1049  0.7516
   99MOL   C22239618   7.757   2.092   5.714 -0.2346 -0.5798  0.4230
   99MOL   C22339619   7.805   2.030   5.846  0.6187  0.5359 -0.0657
   99MOL   C22439620   7.871   1.906   5.830 -0.0927 -0.5254  0.5178
   99MOL   C22539621   7.895   1.823   5.941 -0.3155 -0.2264 -0.2615
   99MOL   C22639622   7.851   1.868   6.071 -0.3959 -0.7570  0.7172
   99MOL   O22739623   7.874   1.789   6.182  0.5202 -0.0415  0.4993
   99MOL   C22839624   7.963   1.677   6.164 -0.9076 -0.1415 -0.0219
   99MOL   C22939625   7.800   2.001   6.088 -0.5873  0.5437  0.3031
   99MOL   C23039626   7.783   2.081   5.976 -0.1326 -0.4014  0.6137
   99MOL   C23139627   7.608   2.114   5.694  0.0910  0.3346 -0.0213
   99MOL   H23239628   7.784   2.024   5.633  1.8856 -0.1710  0.7609
   99MOL   H23339629   7.892   1.868   5.731 -2.0411  3.2514 -1.4327
   99MOL   H23439630   7.946   1.731   5.917  2.9206  1.3842  0.1017
   99MOL   H23539631   7.965   1.614   6.253  0.1312  0.0404  0.0923
   99MOL   H23639632   7.935   1.615   6.079 -1.5488 -0.2200  0.2437
   99MOL   H23739633   0.025   1.713   6.150 -0.7551 -0.8170 -0.6827
   99MOL   H23839634   7.760   2.041   6.180 -0.3731 -3.6078  2.3235
   99MOL   H23939635   7.720   2.169   5.981  1.5436  0.9668 -1.0578
   99MOL   H24039636   7.578   2.208   5.741 -0.9913 -0.1512  0.2823
   99MOL   H24139637   7.585   2.140   5.591 -1.0313  0.0642  0.1502
   99MOL   C24239638   7.503   2.011   5.750 -0.5431  0.0172 -0.3560
   99MOL   C24339639   7.443   2.052   5.885  0.2661  0.3141 -0.7890
   99MOL   C24439640   7.367   2.167   5.904  0.3783 -0.0218 -0.2438
   99MOL   C24539641   7.318   2.198   6.034 -0.9190 -0.4650  0.2609
   99MOL   C24639642   7.316   2.099   6.141  0.2078  0.1583  0.6740
   99MOL   O24739643   7.245   2.120   6.255 -0.3847  0.1453  0.3950
   99MOL   C24839644   7.139   2.215   6.247 -0.1956 -0.0309 -0.7803
   99MOL   C24939645   7.390   1.985   6.118  0.2910  0.0374  0.0364
   99MOL   C25039646   7.445   1.957   5.989 -0.6370 -0.5756 -0.0087
   99MOL   C25139647   7.390   1.970   5.651 -0.6027  0.6811 -0.1652
   99MOL   H25239648   7.561   1.918   5.759 -0.0982  0.2817 -0.4580
   99MOL   H25339649   7.347   2.224   5.814 -0.8618 -0.6292 -0.3520
   99MOL   H25439650   7.273   2.294   6.055  0.9648  0.3613  0.6441
   99MOL   H25539651   7.076   2.202   6.336 -0.2021  0.3333 -0.7307
   99MOL   H25639652   7.182   2.315   6.249 -0.6419  0.1496  1.0345
   99MOL   H25739653   7.063   2.207   6.170 -1.6997 -0.7811  0.7664
   99MOL   H25839654   7.391   1.912   6.198  1.5873  0.2428  0.2152
   99MOL   H25939655   7.492   1.862   5.972  0.7514  0.4628 -2.1913
   99MOL   H26039656   7.356   2.051   5.586  0.0074 -0.0866 -1.4568
   99MOL   H26139657   7.293   1.975   5.701 -1.6291 -1.6811 -1.8875
   99MOL   C26239658   7.398   1.833   5.578  0.1562 -0.0097  0.1429
   99MOL   C26339659   7.507   1.834   5.467  0.7496  1.0648 -0.7349
   99MOL   C26439660   7.619   1.752   5.473 -0.1601 -0.1719  0.0170
   99MOL   C26539661   7.714   1.755   5.369  0.1883 -0.1074  0.4875
   99MOL   C26639662   7.694   1.836   5.256 -0.6578 -0.5154 -0.0007
   99MOL   O26739663   7.785   1.819   5.154 -0.0127 -0.1326  0.2992
   99MOL   C26839664   7.759   1.898   5.037 -0.7538 -0.1521  0.2389
   99MOL   C26939665   7.585   1.927   5.256 -0.2840  0.2638 -0.7305
   99MOL   C27039666   7.491   1.926   5.360 -0.0649 -0.2458 -0.4359
   99MOL   C27139667   7.259   1.792   5.525  0.7516 -0.2661  0.1352
   99MOL   H27239668   7.424   1.760   5.655 -4.1584 -2.4665 -0.5885
   99MOL   H27339669   7.628   1.692   5.563 -1.5872  1.1339  1.0622
   99MOL   H27439670   7.797   1.686   5.367 -1.0394 -1.6379 -4.2485
   99MOL   H27539671   7.662   1.866   4.999 -0.5327 -0.9313  0.3205
   99MOL   H27639672   7.837   1.897   4.961 -0.9481 -1.4693  0.0407
   99MOL   H27739673   7.762   2.004   5.062 -0.5439 -0.2599  0.6806
   99MOL   H27839674   7.553   1.996   5.180  1.6265  2.9439  0.8199
   99MOL   H27939675   7.397   1.978   5.351  0.8542  2.3930  3.8429
   99MOL   H28039676   7.196   1.793   5.613  0.9889 -4.0692  0.4502
   99MOL   H28139677   7.225   1.877   5.465  1.4379 -0.5729 -0.7055
   99MOL   C28239678   7.239   1.657   5.449 -0.4291  0.2894  0.3161
   99MOL   C28339679   7.090   1.628   5.429  0.6421  0.1701 -0.8241
   99MOL   C28439680   7.008   1.621   5.542  0.3626  0.0379  0.2268
   99MOL   C28539681   6.866   1.601   5.536  0.3381 -0.2159  0.2607
   99MOL   C28639682   6.811   1.574   5.406  0.2186  0.1173  0.8571
   99MOL   O28739683   6.681   1.543   5.381 -0.2162  0.1429  0.4300
   99MOL   C28839684   6.592   1.615   5.466 -0.2644  0.3143 -0.6691
   99MOL   C28939685   6.894   1.582   5.292 -0.0467  0.6184 -0.0353
   99MOL   C29039686   7.029   1.623   5.302 -0.1243 -0.5654  0.3263
   99MOL   C29139687   7.305   1.534   5.514 -0.4238 -0.0633  0.3006
   99MOL   H29239688   7.285   1.674   5.351  0.1846 -1.2891  0.3222
   99MOL   H29339689   7.048   1.634   5.642 -0.0220 -0.2063  0.4130
   99MOL   H29439690   6.806   1.588   5.625  2.5235 -0.6514  1.7031
   99MOL   H29539691   6.489   1.588   5.442 -0.3885 -0.0025  0.2299
   99MOL   H29639692   6.602   1.602   5.573 -0.7397  0.9495 -0.5435
   99MOL   H29739693   6.603   1.723   5.451 -1.0080  0.0745 -3.1834
   99MOL   H29839694   6.852   1.571   5.193 -0.8679 -0.1437  0.3912
   99MOL   H29939695   7.082   1.618   5.208  1.3357  1.0695  1.0275
   99MOL   H30039696   7.406   1.563   5.544 -0.4190 -2.2550  2.4908
   99MOL   H30139697   7.254   1.510   5.607 -0.4575 -1.0990  0.0232
   99MOL   C30239698   7.312   1.406   5.438 -0.2844 -0.3591  0.1071
   99MOL   C30339699   7.415   1.420   5.329  0.1432  0.2346  0.2427
   99MOL   C30439700   7.371   1.449   5.197 -0.1742 -0.0435 -0.5206
   99MOL   C30539701   7.460   1.478   5.097  0.3902 -0.1811 -0.3103
   99MOL   C30639702   7.599   1.480   5.123 -0.6438  0.1034 -0.4930
   99MOL   O30739703   7.685   1.507   5.020 -0.2559  0.3009  0.7368
   99MOL   C30839704   7.823   1.501   5.042  0.5616 -0.1425 -0.0949
   99MOL   C30939705   7.642   1.443   5.255  0.6891  0.6995  0.3102
   99MOL   C31039706   7.555   1.417   5.363 -0.1776  0.1329 -0.0346
   99MOL   C31139707   7.342   1.284   5.529 -0.1415  1.3140  0.0577
   99MOL   H31239708   7.219   1.384   5.385  0.2630 -2.0446 -0.1541
   99MOL   H31339709   7.265   1.454   5.175 -0.1665 -1.1483 -0.8195
   99MOL   H31439710   7.427   1.500   4.996 -2.0368  0.1388  0.5279
   99MOL   H31539711   7.879   1.519   4.950 -1.4915  0.4087 -1.2721
   99MOL   H31639712   7.858   1.404   5.076  1.4606 -0.2123 -1.1651
   99MOL   H31739713   7.854   1.579   5.111 -0.8227 -0.5383  0.9750
   99MOL   H31839714   7.749   1.438   5.274  0.2798 -1.3798  2.3057
   99MOL   H31939715   7.590   1.402   5.464  0.1670  0.5987 -0.0780
   99MOL   H32039716   7.439   1.288   5.579 -1.3759  1.5633  2.5033
   99MOL   H32139717   7.349   1.193   5.470 -1.1656  1.1400  0.2002
   99MOL   C32239718   7.245   1.249   5.643  0.2707 -0.3843  0.0001
   99MOL   C32339719   7.294   1.123   5.713  0.1921 -0.0352 -0.3316
   99MOL   C32439720   7.264   0.997   5.665  0.3747 -0.5548 -0.2786
   99MOL   C32539721   7.294   0.881   5.743 -0.3250 -0.0921  0.5850
   99MOL   C32639722   7.368   0.894   5.862 -0.6448 -0.1018 -0.4677
   99MOL   O32739723   7.418   0.780   5.934  0.2966 -0.8830 -0.1665
   99MOL   C32839724   7.376   0.652   5.885 -0.5374 -0.4495 -0.5843
   99MOL   C32939725   7.404   1.022   5.911  0.2457  0.0600  0.5473
   99MOL   C33039726   7.372   1.136   5.832 -0.7787  0.0897  1.0309
   99MOL   C33139727   7.100   1.247   5.596  0.1807  0.1006 -0.7521
   99MOL   H33239728   7.260   1.318   5.726  3.1090 -0.2575 -0.5666
   99MOL   H33339729   7.212   0.990   5.570 -0.8510  2.3422  0.1273
   99MOL   H33439730   7.269   0.790   5.691 -1.4762  0.6122 -0.1177
   99MOL   H33539731   7.402   0.630   5.782 -3.3341 -0.1882 -1.3681
   99MOL   H33639732   7.272   0.645   5.916  0.0349  2.0281  2.1876
   99MOL   H33739733   7.425   0.581   5.952  1.2402  0.8975 -0.4031
   99MOL   H33839734   7.472   1.032   5.995  1.2546 -0.2723 -0.2237
   99MOL   H33939735   7.400   1.233   5.871  0.6011 -0.5013  1.5426
   99MOL   H34039736   7.068   1.348   5.571 -0.6290 -0.2689 -1.2002
   99MOL   H34139737   7.095   1.182   5.509 -0.4314 -2.1963  0.9526
   99MOL   C34239738   6.995   1.193   5.704 -0.7075 -0.0862 -0.1376
   99MOL   C34339739   6.867   1.145   5.640 -0.2751  0.2242 -0.3101
   99MOL   C34439740   6.758   1.231   5.620 -0.2734  0.2413  0.3619
   99MOL   C34539741   6.629   1.169   5.579 -0.2275  0.6035  0.0163
   99MOL   C34639742   6.626   1.034   5.549 -1.0957 -0.0019  0.2181
   99MOL   O34739743   6.513   0.964   5.508  0.7463  0.0911 -0.0906
   99MOL   C34839744   6.398   0.991   5.575 -0.1144 -0.1167  1.0038
   99MOL   C34939745   6.740   0.951   5.563 -0.1578  0.1464  0.2633
   99MOL   C35039746   6.861   1.005   5.610 -0.9763 -0.1678  0.7929
   99MOL   C35139747   6.976   1.290   5.821 -0.3239 -0.5155  0.7692
   99MOL   H35239748   7.029   1.104   5.757 -1.6083  1.2571  2.7818
   99MOL   H35339749   6.767   1.337   5.637 -0.2255  0.4334 -0.7940
   99MOL   H35439750   6.541   1.230   5.568 -1.6188 -1.5473 -1.3076
   99MOL   H35539751   6.329   0.913   5.543  0.1720  0.9104 -2.2918
   99MOL   H35639752   6.406   1.000   5.683  1.2061  2.1892  0.7636
   99MOL   H35739753   6.371   1.087   5.530  1.7218 -0.1179 -0.1339
   99MOL   H35839754   6.730   0.845   5.547 -0.6947  0.0749  1.0297
   99MOL   H35939755   6.947   0.942   5.626 -0.3743  0.6046  0.6119
   99MOL   H36039756   7.047   1.373   5.819 -2.3357  1.2656  0.7295
   99MOL   H36139757   6.878   1.338   5.813 -1.1526 -1.9494  2.1358
   99MOL   C36239758   6.988   1.229   5.969  0.3124 -0.1560 -0.5255
   99MOL   C36339759   6.898   1.105   5.987 -0.0801 -0.9901 -0.4559
   99MOL   C36439760   6.956   0.982   5.997  0.7087 -0.2296 -0.2228
   99MOL   C36539761   6.876   0.867   5.990 -0.1023 -0.1933  0.3349
   99MOL   C36639762   6.739   0.880   5.977  0.6007  0.1793  0.0187
   99MOL   O36739763   6.671   0.761   5.957 -0.0033 -0.1761  0.2111
   99MOL   C36839764   6.525   0.760   5.969  0.1257 -0.5950  0.7691
   99MOL   C36939765   6.677   1.004   5.990 -0.2585 -0.5688  0.1753
   99MOL   C37039766   6.757   1.116   5.980 -0.2515 -0.2608 -0.0990
   99MOL   C37139767   6.955   1.335   6.071 -1.1288 -0.2516  0.6145
   99MOL   H37239768   7.086   1.185   5.984  0.3618 -0.5247 -1.8519
   99MOL   H37339769   7.058   0.963   6.024  1.1853  0.7115 -1.3455
   99MOL   H37439770   6.928   0.773   5.984  0.8252  0.2705  0.9940
   99MOL   H37539771   6.465   0.824   5.904  2.1450  0.0775 -0.5033
   99MOL   H37639772   6.483   0.659   5.964 -2.9717  0.6974 -0.4778
   99MOL   H37739773   6.506   0.781   6.074  0.0424 -0.3600  0.7064
   99MOL   H37839774   6.571   1.026   5.988  0.1456  1.4940 -2.5349
   99MOL   H37939775   6.713   1.210   5.951 -2.4651 -2.0314 -2.7554
   99MOL   H38039776   6.847   1.348   6.080 -0.9147  2.1059  0.2163
   99MOL   H38139777   6.991   1.304   6.169 -0.4457 -2.3968 -0.2802
   99MOL   C38239778   7.012   1.480   6.052 -0.1763 -0.0812 -0.8017
   99MOL   C38339779   7.159   1.482   6.014 -0.6393 -0.0972  0.4005
   99MOL   C38439780   7.247   1.415   6.101 -0.0266  0.4688 -0.1332
   99MOL   C38539781   7.384   1.436   6.090 -0.4839 -0.0757 -0.3211
   99MOL   C38639782   7.440   1.520   5.996  0.7970  0.0056  0.1650
   99MOL   O38739783   7.574   1.537   5.982 -0.4247  0.1056  0.3761
   99MOL   C38839784   7.617   1.574   5.851 -0.2302  0.5304  0.1381
   99MOL   C38939785   7.348   1.591   5.912 -0.2103 -0.2055  0.6260
   99MOL   C39039786   7.211   1.571   5.919  0.1595  0.4170 -0.5754
   99MOL   C39139787   6.986   1.578   6.172 -0.2467 -0.4855  0.6943
   99MOL   H39239788   6.957   1.525   5.970 -1.1031  2.9288  1.3769
   99MOL   H39339789   7.209   1.360   6.186  0.3695  1.0182  0.4057
   99MOL   H39439790   7.440   1.393   6.171  2.3925  0.9769 -1.6930
   99MOL   H39539791   7.715   1.534   5.825  0.2249  0.8952  1.2945
   99MOL   H39639792   7.640   1.680   5.836 -0.3350  0.3484 -1.4624
   99MOL   H39739793   7.542   1.542   5.778 -0.1830  1.1536 -0.1867
   99MOL   H39839794   7.389   1.664   5.845  0.1142 -1.0525 -0.1010
   99MOL   H39939795   7.151   1.635   5.856  0.1714  1.8531  0.8468
   99MOL   H40039796   7.017   1.681   6.155  0.1442 -0.2775  2.5228
   99MOL   H40139797   7.034   1.540   6.262 -1.3949 -1.6947  0.8101
   99MOL   H40239798   6.878   1.561   6.171 -0.4860  0.8611 -2.7244
  100MOL     C139799   7.526   0.793   7.251 -0.5672 -0.1587 -0.2921
  100MOL     C239800   7.611   0.897   7.314  0.8779  0.3283 -0.0798
  100MOL     C339801   7.749   0.879   7.304 -0.3000  0.5010  0.2141
  100MOL     C439802   7.831   0.976   7.370 -0.2970 -0.9281 -0.0923
  100MOL     C539803   7.776   1.082   7.445 -0.4578 -0.5005 -0.1563
  100MOL     O639804   7.849   1.183   7.504  0.0075 -0.2983 -0.1090
  100MOL     C739805   7.991   1.200   7.477  0.0638  1.0406 -0.1689
  100MOL     C839806   7.637   1.091   7.457  0.0263  0.6998  0.0983
  100MOL     C939807   7.557   0.992   7.396  0.2219  0.1052 -0.2639
  100MOL    C1039808   7.489   0.834   7.107  0.3994 -0.9522  0.2274
  100MOL    H1139809   7.440   0.766   7.312  0.4228 -2.3273  0.1562
  100MOL    H1239810   7.794   0.798   7.248 -0.4092  0.0036  0.8397
  100MOL    H1339811   7.937   0.961   7.360  0.1268  0.2668  2.3710
  100MOL    H1439812   8.023   1.301   7.502  0.0246  0.8076  0.8410
  100MOL    H1539813   0.004   1.123   7.534  0.9455 -0.0712 -2.4185
  100MOL    H1639814   8.018   1.184   7.372 -0.5991 -0.1657 -0.1657
  100MOL    H1739815   7.588   1.157   7.527  0.3025 -0.4672  1.4221
  100MOL    H1839816   7.449   1.004   7.394  0.2722  0.3647 -3.3161
  100MOL    H1939817   7.576   0.878   7.057 -0.4232  1.1179  0.5595
  100MOL    H2039818   7.470   0.746   7.046 -1.2132 -0.5683  0.1593
  100MOL    H2139819   7.585   0.703   7.234  0.0374  0.2133 -0.1866
  100MOL    C2239820   7.361   0.919   7.089 -0.1527 -0.5352  0.0790
  100MOL    C2339821   7.362   1.020   6.969 -0.0840  0.2036 -0.0925
  100MOL    C2439822   7.422   1.150   6.985  0.7020  0.4318  0.2038
  100MOL    C2539823   7.419   1.241   6.875 -0.0378  0.6445  0.5674
  100MOL    C2639824   7.363   1.207   6.753 -0.8228 -0.0088  0.6314
  100MOL    O2739825   7.367   1.297   6.651  0.2684  0.4982  0.6179
  100MOL    C2839826   7.312   1.426   6.676  0.0984  0.6103 -0.3410
  100MOL    C2939827   7.315   1.076   6.732  0.0976 -1.0100 -0.2660
  100MOL    C3039828   7.310   0.990   6.841 -0.3827 -0.9424 -0.3749
  100MOL    C3139829   7.231   0.834   7.087 -1.0994  0.4760 -0.4706
  100MOL    H3239830   7.363   0.983   7.177  1.5729  0.9765 -1.0371
  100MOL    H3339831   7.453   1.178   7.085 -1.7078  0.9222  0.8460
  100MOL    H3439832   7.460   1.340   6.891  1.5480  0.7664 -3.5293
  100MOL    H3539833   7.372   1.482   6.747 -0.5916  3.4817 -1.9602
  100MOL    H3639834   7.211   1.417   6.715  0.3487  1.8323  0.5933
  100MOL    H3739835   7.307   1.488   6.587 -0.7996  1.6058  0.3984
  100MOL    H3839836   7.280   1.037   6.637  0.5055  0.1452 -0.9002
  100MOL    H3939837   7.265   0.892   6.835 -0.5438 -0.8457 -0.7587
  100MOL    H4039838   7.236   0.771   6.998  1.0520 -0.4220  0.2524
  100MOL    H4139839   7.233   0.767   7.173 -0.3919  2.2671  0.9364
  100MOL    C4239840   7.103   0.908   7.096 -0.2090 -0.3588 -0.1119
  100MOL    C4339841   7.099   1.003   7.219 -0.0464 -0.0567  0.1677
  100MOL    C4439842   7.062   0.946   7.341  0.1855  0.3877 -0.0931
  100MOL    C4539843   7.034   1.033   7.452 -0.0313 -0.0829 -0.4158
  100MOL    C4639844   7.049   1.175   7.434 -0.3552  0.5700  0.0884
  100MOL    O4739845   7.021   1.273   7.536 -0.1915  0.2428  0.5429
  100MOL    C4839846   7.014   1.233   7.669 -0.8689  0.5649 -0.1524
  100MOL    C4939847   7.099   1.228   7.311 -0.1946 -0.0859  0.5655
  100MOL    C5039848   7.125   1.139   7.205 -0.4563 -0.3148  0.0965
  100MOL    C5139849   6.976   0.817   7.088  0.6021 -0.0511 -0.1671
  100MOL    H5239850   7.107   0.973   7.008  1.3552 -0.3757 -0.0630
  100MOL    H5339851   7.050   0.839   7.354 -0.9024  0.2394 -2.1986
  100MOL    H5439852   6.998   0.991   7.544  2.1236  1.6729  1.3107
  100MOL    H5539853   6.917   1.185   7.682 -0.8421  0.1568 -1.4100
  100MOL    H5639854   7.098   1.173   7.704 -1.1512  0.2968  0.0592
  100MOL    H5739855   7.018   1.320   7.735  1.6254  1.6958 -1.7096
  100MOL    H5839856   7.114   1.335   7.298  0.1292 -0.2199 -0.1548
  100MOL    H5939857   7.154   1.179   7.109  2.8914  0.3734  1.3145
  100MOL    H6039858   6.979   0.742   7.167 -2.0194 -2.0985 -1.8901
  100MOL    H6139859   6.978   0.762   6.994  1.0474 -0.4741  0.0881
  100MOL    C6239860   6.831   0.885   7.093 -0.4510  0.2868  0.1812
  100MOL    C6339861   6.719   0.783   7.063 -0.0747 -0.6803  0.3068
  100MOL    C6439862   6.714   0.708   6.938 -1.3450  0.1633  0.5568
  100MOL    C6539863   6.614   0.605   6.921 -0.0531 -0.1593 -0.2190
  100MOL    C6639864   6.526   0.574   7.027 -0.5436  0.3810 -0.8930
  100MOL    O6739865   6.443   0.461   7.020 -0.1723  0.3421 -0.2814
  100MOL    C6839866   6.405   0.400   7.146 -0.1201 -0.1618  0.3996
  100MOL    C6939867   6.532   0.652   7.149  0.3927  0.0504  0.7777
  100MOL    C7039868   6.622   0.760   7.167  0.0457 -0.5239  0.0224
  100MOL    C7139869   6.818   1.012   7.007 -0.7145 -0.1636 -0.0087
  100MOL    H7239870   6.828   0.923   7.195  0.8091 -0.3843  0.4846
  100MOL    H7339871   6.784   0.721   6.857 -0.6622  0.4224  1.1810
  100MOL    H7439872   6.610   0.544   6.832 -1.0133 -0.3906 -0.0287
  100MOL    H7539873   6.491   0.365   7.203 -0.1267  0.8598  1.0412
  100MOL    H7639874   6.339   0.316   7.124  2.3882 -2.2456  0.5772
  100MOL    H7739875   6.341   0.461   7.210  0.7018  2.2282 -0.9776
  100MOL    H7839876   6.469   0.626   7.234 -0.0569  0.8167  0.6827
  100MOL    H7939877   6.621   0.828   7.251  0.3719  0.9237 -1.1288
  100MOL    H8039878   6.904   1.072   7.035 -0.7480 -0.7764  1.4715
  100MOL    H8139879   6.838   0.992   6.901  2.5502 -0.2088  0.5771
  100MOL    C8239880   6.688   1.097   7.019  0.0159  0.0187  0.4806
  100MOL    C8339881   6.635   1.115   7.162 -0.7629 -0.1792  0.8953
  100MOL    C8439882   6.500   1.120   7.187 -0.3423  0.1930 -0.8286
  100MOL    C8539883   6.453   1.164   7.308  0.3142  0.5476  0.1004
  100MOL    C8639884   6.535   1.188   7.419 -0.0735  0.3311  0.4078
  100MOL    O8739885   6.474   1.227   7.535  0.1369  0.1655 -0.2336
  100MOL    C8839886   6.547   1.191   7.652 -0.2733 -0.2712 -0.3722
  100MOL    C8939887   6.677   1.183   7.394 -0.0450  0.9356 -0.0478
  100MOL    C9039888   6.722   1.153   7.265  0.7037 -0.5295 -0.2895
  100MOL    C9139889   6.702   1.231   6.938  0.4499 -0.4635 -0.2171
  100MOL    H9239890   6.609   1.044   6.966 -1.4928  0.2273  2.4740
  100MOL    H9339891   6.422   1.115   7.112  0.0426  2.8582 -1.4307
  100MOL    H9439892   6.347   1.187   7.313  0.0471 -0.6963  0.4653
  100MOL    H9539893   6.577   1.086   7.649 -1.3174 -0.5602 -1.0584
  100MOL    H9639894   6.468   1.203   7.727  0.8677 -1.8847  1.1175
  100MOL    H9739895   6.640   1.247   7.660 -1.3180  1.2436  1.5023
  100MOL    H9839896   6.743   1.208   7.476 -0.5359  2.5647 -0.1186
  100MOL    H9939897   6.827   1.164   7.242  0.2085  0.2266 -2.2345
  100MOL   H10039898   6.769   1.294   6.997 -0.4508  2.0751 -1.7929
  100MOL   H10139899   6.753   1.203   6.846 -0.8209 -2.2952 -0.3682
  100MOL   C10239900   6.579   1.323   6.918  0.3942 -0.0092 -0.0112
  100MOL   C10339901   6.614   1.472   6.881  0.1574 -0.4373  0.8768
  100MOL   C10439902   6.722   1.495   6.791  0.2390 -0.0631  0.1731
  100MOL   C10539903   6.754   1.632   6.762  0.2727 -0.5648 -0.1939
  100MOL   C10639904   6.685   1.735   6.825  0.5155 -0.7199 -0.5108
  100MOL   O10739905   6.721   1.859   6.789  0.8469  0.0467 -0.0888
  100MOL   C10839906   6.615   1.958   6.810  0.6266 -0.4810  0.3013
  100MOL   C10939907   6.583   1.710   6.920 -0.1671 -0.3099 -1.0287
  100MOL   C11039908   6.544   1.578   6.943 -0.0372  0.1352 -0.1644
  100MOL   C11139909   6.499   1.254   6.802 -0.0689  0.3137  0.2887
  100MOL   H11239910   6.524   1.325   7.012 -0.6809 -0.0677 -0.6265
  100MOL   H11339911   6.763   1.411   6.737  1.2497  0.5785 -0.0673
  100MOL   H11439912   6.829   1.669   6.694 -2.0147  1.4515 -1.6770
  100MOL   H11539913   6.522   1.928   6.763 -0.2657  0.3605  1.4889
  100MOL   H11639914   6.588   1.976   6.914 -2.6135 -1.3886 -0.3170
  100MOL   H11739915   6.650   2.049   6.761 -0.0531 -0.4849 -0.2045
  100MOL   H11839916   6.530   1.779   6.985 -0.5288 -2.2671  0.7841
  100MOL   H11939917   6.458   1.551   7.002 -0.1686 -1.2002 -0.9428
  100MOL   H12039918   6.568   1.243   6.719 -1.4117  1.1516 -0.9736
  100MOL   H12139919   6.465   1.155   6.835  0.1675  0.4666  0.9931
  100MOL   C12239920   6.374   1.326   6.745 -0.6352  0.1345 -0.2787
  100MOL   C12339921   6.272   1.360   6.841 -0.6317  0.0463  0.1650
  100MOL   C12439922   6.230   1.263   6.938 -0.0813 -0.3009 -0.3741
  100MOL   C12539923   6.132   1.293   7.031 -0.1067 -0.1548 -0.0597
  100MOL   C12639924   6.084   1.425   7.042  0.2247  0.6003  0.2170
  100MOL   O12739925   6.008   1.474   7.144 -0.1407 -0.1551  0.3468
  100MOL   C12839926   5.955   1.379   7.236 -0.4131 -0.4191  0.3476
  100MOL   C12939927   6.125   1.523   6.949  0.3740 -0.5445 -0.0893
  100MOL   C13039928   6.219   1.493   6.850 -0.9220  0.0187 -0.0936
  100MOL   C13139929   6.308   1.255   6.622  0.1416 -0.3129  0.7846
  100MOL   H13239930   6.407   1.421   6.704 -0.7941 -0.4482 -1.8277
  100MOL   H13339931   6.268   1.162   6.939 -0.4139 -0.4243 -0.3671
  100MOL   H13439932   6.100   1.208   7.090 -0.4531 -0.8044 -1.1741
  100MOL   H13539933   5.876   1.419   7.300 -0.7804 -1.3000  0.4490
  100MOL   H13639934   5.897   1.301   7.185  0.3293 -0.1803 -0.8642
  100MOL   H13739935   6.029   1.337   7.304 -0.9417 -3.0115 -0.5949
  100MOL   H13839936   6.093   1.626   6.952 -0.3974 -0.8114  1.0956
  100MOL   H13939937   6.250   1.571   6.783 -0.8713  0.3703  0.3411
  100MOL   H14039938   6.219   1.312   6.598 -0.8228 -1.4588  1.5977
  100MOL   H14139939   6.265   1.159   6.651 -1.8173  0.1442 -0.4847
  100MOL   C14239940   6.394   1.228   6.495 -0.0499 -0.0738 -0.2774
  100MOL   C14339941   6.347   1.133   6.391  0.5097 -0.1912  0.1980
  100MOL   C14439942   6.386   1.000   6.395  0.3071  0.1720 -1.2336
  100MOL   C14539943   6.340   0.910   6.293  0.2619  0.0122 -0.2827
  100MOL   C14639944   6.258   0.954   6.188 -0.6589  0.0945 -0.6476
  100MOL   O14739945   6.212   0.855   6.104 -0.0055 -0.0948  0.2221
  100MOL   C14839946   6.145   0.890   5.985 -0.3877  0.2035 -0.0823
  100MOL   C14939947   6.215   1.089   6.188  1.4626  0.0349 -0.2799
  100MOL   C15039948   6.255   1.176   6.292  0.2655  0.5626  1.1169
  100MOL   C15139949   6.458   1.356   6.435 -0.6883  0.3683 -0.5276
  100MOL   H15239950   6.478   1.181   6.546 -1.2733 -0.4318  1.4410
  100MOL   H15339951   6.454   0.966   6.471 -1.0981  0.8850  0.3735
  100MOL   H15439952   6.360   0.803   6.294  0.1480 -0.0046  1.9443
  100MOL   H15539953   6.216   0.945   5.922  3.4846 -0.2822  3.6486
  100MOL   H15639954   6.098   0.800   5.948  0.4493 -0.5748  0.7269
  100MOL   H15739955   6.056   0.944   6.016  0.0212 -0.1866  1.8039
  100MOL   H15839956   6.135   1.117   6.122 -0.2399 -0.3974  1.5438
  100MOL   H15939957   6.215   1.276   6.303 -0.9742 -0.1289  3.1183
  100MOL   H16039958   6.508   1.416   6.512 -0.3515 -0.8363  0.2052
  100MOL   H16139959   6.369   1.415   6.409 -0.5137  0.5356 -0.7394
  100MOL   C16239960   6.548   1.344   6.312  0.0256  0.4116 -0.9601
  100MOL   C16339961   6.672   1.264   6.353  0.4640 -0.2633 -0.6093
  100MOL   C16439962   6.677   1.131   6.313 -0.4119  0.0383 -0.2725
  100MOL   C16539963   6.793   1.056   6.346 -0.0469 -0.8021  0.8555
  100MOL   C16639964   6.907   1.115   6.415 -0.2041  0.6655 -0.2979
  100MOL   O16739965   7.026   1.052   6.435  0.8551  0.1251  0.4889
  100MOL   C16839966   7.028   0.916   6.387  0.0686  0.2755  0.6449
  100MOL   C16939967   6.891   1.247   6.458 -0.3700  0.3676 -0.1456
  100MOL   C17039968   6.774   1.313   6.425 -0.3373 -0.1303 -0.2840
  100MOL   C17139969   6.592   1.475   6.247 -0.3667 -0.5840 -0.6378
  100MOL   H17239970   6.497   1.294   6.230  0.4410 -0.1155 -0.8966
  100MOL   H17339971   6.603   1.076   6.257 -1.1403 -0.1666  0.8693
  100MOL   H17439972   6.789   0.953   6.312  1.1038 -0.8555  0.8603
  100MOL   H17539973   6.997   0.906   6.283  0.6591 -0.9722  0.5877
  100MOL   H17639974   6.965   0.857   6.454  0.7239 -0.8990  0.2295
  100MOL   H17739975   7.130   0.881   6.400  0.6117  0.9444 -1.5991
  100MOL   H17839976   6.967   1.289   6.522  1.5398 -0.8144 -1.6043
  100MOL   H17939977   6.762   1.411   6.469 -0.6130 -0.9559  1.5186
  100MOL   H18039978   6.682   1.450   6.190  0.1967 -3.2292  1.2865
  100MOL   H18139979   6.622   1.539   6.329  0.7405 -1.9072 -0.0008
  100MOL   C18239980   6.485   1.551   6.163  0.5526  0.2291  0.2123
  100MOL   C18339981   6.436   1.484   6.042  0.4866 -0.4930  0.8829
  100MOL   C18439982   6.296   1.459   6.040 -0.6681  0.5040 -0.1902
  100MOL   C18539983   6.245   1.393   5.926  0.2967  0.3256 -0.0482
  100MOL   C18639984   6.330   1.359   5.811  0.1182 -0.0021 -0.6839
  100MOL   O18739985   6.288   1.300   5.692  0.1309 -0.0745 -0.0820
  100MOL   C18839986   6.150   1.255   5.699 -0.5617  0.5077 -0.9518
  100MOL   C18939987   6.467   1.397   5.816  0.2163 -0.6999  0.6472
  100MOL   C19039988   6.516   1.463   5.928 -0.2935 -0.3746  0.3634
  100MOL   C19139989   6.531   1.701   6.132 -0.3688  0.1645 -0.6628
  100MOL   H19239990   6.404   1.546   6.236 -0.1860 -0.2348 -0.6297
  100MOL   H19339991   6.216   1.479   6.109 -2.2792  0.2623 -1.9561
  100MOL   H19439992   6.137   1.388   5.914  0.1999 -0.8446  1.2289
  100MOL   H19539993   6.097   1.350   5.707  2.4481  2.0333  2.5280
  100MOL   H19639994   6.136   1.203   5.794 -2.0705  1.9703 -0.3370
  100MOL   H19739995   6.107   1.202   5.615  2.0431 -1.6409 -0.9638
  100MOL   H19839996   6.537   1.381   5.736  1.6901  0.6162  1.6514
  100MOL   H19939997   6.619   1.495   5.935 -0.0282 -1.2851  0.6502
  100MOL   H20039998   6.622   1.706   6.073 -1.0135 -0.2874 -1.7189
  100MOL   H20139999   6.447   1.744   6.076 -0.0703  0.0141 -1.2300
  100MOL   C20240000   6.549   1.799   6.251  0.0496  0.9559 -0.1493
  100MOL   C20340001   6.440   1.786   6.349 -0.0539  0.8992 -0.0757
  100MOL   C20440002   6.470   1.766   6.483 -0.0175 -0.2219  0.2199
  100MOL   C20540003   6.368   1.750   6.581 -0.0482  0.1311  0.3841
  100MOL   C20640004   6.233   1.751   6.544  0.1845 -0.7332  0.5762
  100MOL   O20740005   6.138   1.738   6.646 -0.5557  0.0751 -0.1167
  100MOL   C20840006   6.012   1.693   6.603 -0.1344  0.8152  0.1169
  100MOL   C20940007   6.202   1.763   6.403 -0.5394 -0.0123  0.4151
  100MOL   C21040008   6.302   1.781   6.308  1.1707 -0.2941 -0.1185
  100MOL   C21140009   6.567   1.944   6.210  0.5568 -0.7979 -0.4878
  100MOL   H21240010   6.632   1.775   6.317  0.2918 -0.1199 -0.8377
  100MOL   H21340011   6.570   1.771   6.525  0.1093 -3.0326  0.3452
  100MOL   H21440012   6.393   1.737   6.685 -4.6842  0.2294  1.5938
  100MOL   H21540013   5.944   1.650   6.676 -2.5203 -0.1959 -2.5777
  100MOL   H21640014   5.966   1.777   6.549 -0.1508  2.5543  2.7490
  100MOL   H21740015   6.006   1.614   6.528  0.8000  0.6737  0.1840
  100MOL   H21840016   6.101   1.758   6.366 -0.4808  1.3661  0.0519
  100MOL   H21940017   6.273   1.790   6.204  0.9732 -0.8110 -0.1079
  100MOL   H22040018   6.482   1.986   6.157 -0.4244 -1.6186  0.4362
  100MOL   H22140019   6.641   1.938   6.130 -0.1263  0.3871 -1.2264
  100MOL   C22240020   6.639   2.037   6.323  0.5240  0.3432  0.4451
  100MOL   C22340021   6.778   1.989   6.357 -0.2843  0.1816  0.0819
  100MOL   C22440022   6.882   1.975   6.266 -0.0956  0.3920  0.0449
  100MOL   C22540023   7.000   1.910   6.305 -0.2730 -0.2567 -0.0605
  100MOL   C22640024   7.032   1.883   6.434  0.3849  0.6950 -0.9727
  100MOL   O22740025   7.155   1.829   6.458  0.2163 -0.2331 -0.1981
  100MOL   C22840026   7.194   1.810   6.593  0.0041 -0.6756  0.4541
  100MOL   C22940027   6.933   1.905   6.531  0.0286 -0.1176 -0.1884
  100MOL   C23040028   6.811   1.959   6.492  0.1072  0.0529  0.2962
  100MOL   C23140029   6.653   2.179   6.277 -0.4251  0.4123  0.0040
  100MOL   H23240030   6.578   2.024   6.412  0.3980  0.8202  0.4262
  100MOL   H23340031   6.861   2.003   6.164 -0.1073 -1.9313 -0.6217
  100MOL   H23440032   7.070   1.885   6.227 -0.8875  0.0460 -0.7251
  100MOL   H23540033   7.186   1.908   6.640 -0.0064  0.6760 -2.2817
  100MOL   H23640034   7.131   1.742   6.650  1.2467 -0.7744  1.7403
  100MOL   H23740035   7.298   1.778   6.598  0.3061  0.3337  0.8779
  100MOL   H23840036   6.958   1.884   6.634  1.2063  0.0348 -0.4378
  100MOL   H23940037   6.740   1.986   6.569 -0.7558  1.0250 -0.8308
  100MOL   H24040038   6.699   2.170   6.178 -0.2954  1.8693 -0.0697
  100MOL   H24140039   6.551   2.215   6.265  0.6154  3.5648  0.2840
  100MOL   C24240040   6.708   2.298   6.360 -0.0459  0.1527  1.0687
  100MOL   C24340041   6.682   2.435   6.303 -0.4443 -0.3839 -0.4233
  100MOL   C24440042   6.548   2.492   6.304  0.5692  0.3026 -0.0902
  100MOL   C24540043   6.518   2.612   6.243  0.1133  0.0526  0.2050
  100MOL   C24640044   6.627   2.696   6.197 -0.2704  0.7728 -0.2098
  100MOL   O24740045   6.613   2.818   6.137  0.8656 -0.6262  0.3466
  100MOL   C24840046   6.484   2.848   6.085  0.1548  0.6905  0.7228
  100MOL   C24940047   6.759   2.642   6.208  0.2691  1.0769  0.1373
  100MOL   C25040048   6.786   2.513   6.251 -0.3274  0.2467  0.6992
  100MOL   C25140049   6.669   2.299   6.510  0.0424 -0.5606  0.2177
  100MOL   H25240050   6.816   2.285   6.354  0.2610  1.4346  3.3699
  100MOL   H25340051   6.468   2.436   6.350  0.5160 -0.6644 -1.3462
  100MOL   H25440052   6.415   2.643   6.238 -0.2809 -1.4107 -0.9085
  100MOL   H25540053   6.453   2.772   6.013  1.5262  0.5999  0.2225
  100MOL   H25640054   6.414   2.858   6.168  0.2312  1.3710  0.7101
  100MOL   H25740055   6.488   2.939   6.026  0.7835 -0.4985 -1.1155
  100MOL   H25840056   6.842   2.695   6.165  1.2300  0.5921  1.3702
  100MOL   H25940057   6.886   2.474   6.267  0.3754  2.4374  1.9136
  100MOL   H26040058   6.684   2.199   6.549 -0.3950 -0.0503  1.7090
  100MOL   H26140059   6.560   2.297   6.521  0.1032 -1.2883  0.7103
  100MOL   C26240060   6.740   2.407   6.595  0.2679  0.1284 -0.4849
  100MOL   C26340061   6.893   2.402   6.578 -0.1774  0.5852 -0.2002
  100MOL   C26440062   6.958   2.289   6.623  0.0187 -0.1682  0.5628
  100MOL   C26540063   7.097   2.272   6.599 -0.3541 -0.0521 -0.2499
  100MOL   C26640064   7.176   2.381   6.551 -0.4086 -0.1879 -0.4912
  100MOL   O26740065   7.308   2.384   6.531 -0.2871 -0.3653 -0.2344
  100MOL   C26840066   7.379   2.261   6.549 -0.1689 -0.2487  0.3754
  100MOL   C26940067   7.107   2.499   6.520  0.1551  0.4058 -0.5030
  100MOL   C27040068   6.967   2.514   6.535  0.1279 -0.1956 -1.1893
  100MOL   C27140069   6.689   2.397   6.744  0.0731  0.1357 -0.2589
  100MOL   H27240070   6.718   2.503   6.547  0.4193 -0.1633 -1.1430
  100MOL   H27340071   6.902   2.211   6.673  1.8312  0.1956  3.2423
  100MOL   H27440072   7.142   2.178   6.626 -2.1305 -0.4000  1.6157
  100MOL   H27540073   7.372   2.250   6.657  1.1758 -0.5357  0.4350
  100MOL   H27640074   7.484   2.266   6.523 -0.4456  1.7038 -0.4312
  100MOL   H27740075   7.335   2.181   6.490  1.0964 -0.7510  0.0885
  100MOL   H27840076   7.162   2.585   6.485  1.4073 -1.0973 -2.2786
  100MOL   H27940077   6.920   2.611   6.521  0.7036  0.1951 -0.4725
  100MOL   H28040078   6.586   2.428   6.722 -0.0522  0.3110  0.5859
  100MOL   H28140079   6.690   2.293   6.775 -0.5796 -0.2844 -1.5883
  100MOL   C28240080   6.768   2.467   6.854 -0.7368 -0.8623 -0.6133
  100MOL   C28340081   6.720   2.405   6.990  0.0845 -0.3021 -0.3109
  100MOL   C28440082   6.816   2.324   7.056 -0.5290  0.5096 -0.0903
  100MOL   C28540083   6.786   2.277   7.185  0.6123  0.6016  0.2889
  100MOL   C28640084   6.662   2.306   7.241  0.1562  0.7613  0.0151
  100MOL   O28740085   6.639   2.256   7.365  0.6168 -0.2944  0.1648
  100MOL   C28840086   6.556   2.343   7.446 -0.2876  0.1453 -0.1909
  100MOL   C28940087   6.568   2.390   7.170 -0.1630 -0.5386 -0.0064
  100MOL   C29040088   6.596   2.438   7.044 -0.0599  0.2372  0.5431
  100MOL   C29140089   6.755   2.628   6.841  0.4173  0.0310 -0.3164
  100MOL   H29240090   6.873   2.446   6.833  0.4656  3.9291  0.0368
  100MOL   H29340091   6.912   2.305   7.011 -0.4810  1.2021 -0.2908
  100MOL   H29440092   6.865   2.228   7.240 -0.5369 -0.1309  1.3265
  100MOL   H29540093   6.557   2.448   7.418  0.3925 -0.7498 -3.7738
  100MOL   H29640094   6.456   2.306   7.427 -0.5260  0.4015  0.5290
  100MOL   H29740095   6.575   2.329   7.553  1.9966  0.2889 -0.5382
  100MOL   H29840096   6.466   2.403   7.203 -0.2852  1.3210 -1.0584
  100MOL   H29940097   6.530   2.499   6.985  1.4107  0.9090 -0.4126
  100MOL   H30040098   6.783   2.661   6.741 -0.1781 -1.4837 -1.0019
  100MOL   H30140099   6.650   2.656   6.833  0.1059 -1.1410 -0.4991
  100MOL   C30240100   6.838   2.710   6.941 -0.1751  1.0059  0.3134
  100MOL   C30340101   6.961   2.780   6.868  0.4673  0.9196  0.3643
  100MOL   C30440102   7.089   2.732   6.894  0.0944  0.9518  0.3485
  100MOL   C30540103   7.200   2.791   6.830  0.3148  0.1998 -0.5155
  100MOL   C30640104   7.188   2.896   6.742 -0.3895  1.1150  0.1502
  100MOL   O30740105   7.291   2.949   6.670 -0.0196  0.7158  0.1260
  100MOL   C30840106   7.428   2.933   6.714 -0.3109  0.0337  0.4640
  100MOL   C30940107   7.065   2.945   6.717  0.8694 -0.2995 -0.7860
  100MOL   C31040108   6.949   2.890   6.784  0.0244 -0.3032 -0.0677
  100MOL   C31140109   6.742   2.813   7.012 -0.5479 -0.5418  0.1396
  100MOL   H31240110   6.880   2.629   7.001  1.0824 -1.0424 -3.1492
  100MOL   H31340111   7.105   2.653   6.966  1.0050  0.1606 -0.7152
  100MOL   H31440112   7.294   2.746   6.860 -0.8825 -0.9872  1.6119
  100MOL   H31540113   7.499   2.996   6.659 -0.6139 -0.4491 -0.4890
  100MOL   H31640114   7.447   2.827   6.702  1.1904  0.3707 -0.2620
  100MOL   H31740115   7.435   2.969   6.817 -0.0074 -1.6528  1.0510
  100MOL   H31840116   7.057   3.006   6.628 -0.0104 -0.2775 -0.6968
  100MOL   H31940117   6.856   2.942   6.769  0.6979  0.0037 -3.7940
  100MOL   H32040118   6.649   2.763   7.041 -1.6177  1.9848  1.2618
  100MOL   H32140119   6.707   2.884   6.937 -1.0343 -0.9553 -0.0272
  100MOL   C32240120   6.809   2.888   7.130  0.2638  0.1667  0.2576
  100MOL   C32340121   6.871   2.790   7.236  0.0472  0.1149  0.3303
  100MOL   C32440122   6.804   2.675   7.271  0.5067  0.0295  0.1382
  100MOL   C32540123   6.862   2.589   7.361 -0.7527 -0.0691  0.4146
  100MOL   C32640124   6.977   2.624   7.433  0.1238  0.0363  0.5230
  100MOL   O32740125   7.020   2.547   7.538 -0.3710  0.5964 -0.0814
  100MOL   C32840126   6.921   2.470   7.607 -0.3886  0.8836  0.4590
  100MOL   C32940127   7.041   2.749   7.410  0.1599 -0.3148 -0.0274
  100MOL   C33040128   6.986   2.830   7.305  0.3626 -0.3577 -0.6234
  100MOL   C33140129   6.723   2.996   7.201  0.1560 -0.1440 -0.3262
  100MOL   H33240130   6.892   2.939   7.080  1.5204 -0.9105  1.2012
  100MOL   H33340131   6.725   2.637   7.209  1.2852 -2.8203  0.8194
  100MOL   H33440132   6.820   2.492   7.380  0.9652 -1.5529 -2.9366
  100MOL   H33540133   6.903   2.372   7.562 -3.5911  2.5805 -2.1662
  100MOL   H33640134   6.833   2.533   7.612 -1.3748 -0.5623  1.4015
  100MOL   H33740135   6.947   2.467   7.713 -1.7487 -0.8568  0.7573
  100MOL   H33840136   7.123   2.785   7.469  0.7838  1.9957 -2.2282
  100MOL   H33940137   7.032   2.923   7.278  1.3812 -0.6742  0.0177
  100MOL   H34040138   6.631   2.944   7.226 -0.1424  1.0949  1.1989
  100MOL   H34140139   6.768   3.020   7.298  2.1800 -0.6668 -1.0937
  100MOL   C34240140   6.711   3.131   7.124 -0.8392 -0.2699  0.1237
  100MOL   C34340141   6.849   3.198   7.092 -0.4643 -0.3849  0.4792
  100MOL   C34440142   6.896   3.207   6.957  0.2236 -0.3040  0.3533
  100MOL   C34540143   7.033   3.247   6.931  0.6307  0.0553 -0.8246
  100MOL   C34640144   7.127   3.283   7.028 -0.1039  0.0959 -0.1954
  100MOL   O34740145   7.259   3.316   7.011  0.6315 -0.0719  0.0941
  100MOL   C34840146   7.323   3.265   6.899 -0.3065 -0.1755 -0.1132
  100MOL   C34940147   7.074   3.281   7.152 -0.4476 -0.1337 -0.9245
  100MOL   C35040148   6.945   3.232   7.191 -0.1348 -0.3595 -0.2506
  100MOL   C35140149   6.622   3.224   7.213 -0.8235  0.8713  0.9517
  100MOL   H35240150   6.653   3.105   7.036 -0.7561 -0.5957  0.1675
  100MOL   H35340151   6.827   3.187   6.877  0.0402 -0.5706  0.5769
  100MOL   H35440152   7.057   3.238   6.826 -0.2658  0.1424 -1.0374
  100MOL   H35540153   7.323   3.339   6.819  0.0810  0.6564  0.6472
  100MOL   H35640154   7.427   3.262   6.932 -0.1352  0.5802 -0.5910
  100MOL   H35740155   7.283   3.165   6.882 -0.7164  0.2020 -1.4108
  100MOL   H35840156   7.134   3.315   7.235  1.1602 -0.2851 -2.0136
  100MOL   H35940157   6.907   3.218   7.292 -2.1834 -0.3949 -0.9987
  100MOL   H36040158   6.536   3.162   7.235  0.3373 -0.6683  1.2295
  100MOL   H36140159   6.673   3.225   7.309 -1.6250  2.2609  1.3638
  100MOL   C36240160   6.576   3.359   7.151 -0.2668  0.1092  0.7276
  100MOL   C36340161   6.684   3.463   7.186  0.0703  0.0066  0.0079
  100MOL   C36440162   6.725   3.497   7.320  0.6890 -0.3658  0.0477
  100MOL   C36540163   6.839   3.581   7.342  0.3649  1.3026  0.1866
  100MOL   C36640164   6.903   3.629   7.229  0.1524 -0.2291 -0.5995
  100MOL   O36740165   7.003   3.716   7.228  0.2760 -0.1303  0.4739
  100MOL   C36840166   7.044   3.780   7.350 -0.1381  0.0153  0.1210
  100MOL   C36940167   6.852   3.600   7.096  0.2202 -0.4466 -0.4238
  100MOL   C37040168   6.752   3.511   7.073  0.0852 -0.2373  0.7306
  100MOL   C37140169   6.435   3.409   7.187  0.1004 -0.5307  0.0238
  100MOL   H37240170   6.568   3.336   7.044 -1.0255  0.9808  0.5922
  100MOL   H37340171   6.660   3.470   7.402  0.5980  2.1625  0.8270
  100MOL   H37440172   6.863   3.608   7.444 -0.4165 -0.8421  0.9733
  100MOL   H37540173   6.958   3.842   7.378 -1.3524 -1.5518 -0.0829
  100MOL   H37640174   7.076   3.711   7.428  0.3131 -1.3369 -1.2540
  100MOL   H37740175   7.123   3.854   7.334  0.3785 -0.1598  1.7368
  100MOL   H37840176   6.905   3.649   7.015  0.6000 -0.4707 -0.1942
  100MOL   H37940177   6.730   3.476   6.974 -2.2466  1.2613  0.6951
  100MOL   H38040178   6.364   3.335   7.150 -2.1133 -0.1761  3.3129
  100MOL   H38140179   6.417   3.403   7.294 -0.5728 -0.0505 -0.0587
  100MOL   C38240180   6.381   3.543   7.143 -0.0508 -0.1533  0.0067
  100MOL   C38340181   6.256   3.587   7.215 -0.2141 -0.6865  0.5543
  100MOL   C38440182   6.233   3.719   7.260 -0.1416 -0.4695  0.3652
  100MOL   C38540183   6.124   3.750   7.341  0.3298  0.3295  0.2068
  100MOL   C38640184   6.030   3.649   7.371  0.4295 -0.2030 -0.1049
  100MOL   O38740185   5.922   3.682   7.451 -0.4188 -0.8362 -0.0380
  100MOL   C38840186   5.876   3.589   7.550  0.1904  0.4729 -0.0508
  100MOL   C38940187   6.044   3.517   7.307  0.2708 -0.1146  0.3087
  100MOL   C39040188   6.160   3.484   7.235 -0.0715  0.5580 -1.1471
  100MOL   C39140189   6.352   3.532   6.990 -0.6695  0.3739 -0.4068
  100MOL   H39240190   6.461   3.616   7.147 -0.9460  0.7318  2.7300
  100MOL   H39340191   6.296   3.804   7.238 -1.8264  0.9976  1.0204
  100MOL   H39440192   6.122   3.851   7.379 -0.3726  0.0207  1.0350
  100MOL   H39540193   5.961   3.524   7.572 -0.1216 -0.0478 -0.3998
  100MOL   H39640194   5.796   3.524   7.517 -1.0604  0.5290  2.7361
  100MOL   H39740195   5.843   3.635   7.643  0.4755  0.8694 -0.1416
  100MOL   H39840196   5.975   3.436   7.327 -1.1532  1.3357  1.4026
  100MOL   H39940197   6.177   3.390   7.183  0.4420  0.2413 -0.4226
  100MOL   H40040198   6.264   3.473   6.964 -2.0469  1.5778  1.3300
  100MOL   H40140199   6.439   3.497   6.935 -1.3170 -0.7587 -0.7165
  100MOL   H40240200   6.338   3.628   6.939  0.7026  0.5635 -0.4329
  101MOL     C140201   6.510   5.221   4.213 -0.0012  0.6379  0.8173
  101MOL     C240202   6.538   5.105   4.122 -0.1156 -0.0228  0.4224
  101MOL     C340203   6.603   4.991   4.165  0.8059  0.2786  0.4293
  101MOL     C440204   6.613   4.878   4.086  0.1134 -0.4875 -0.7496
  101MOL     C540205   6.558   4.877   3.955  0.3091 -0.0684 -0.1098
  101MOL     O640206   6.557   4.756   3.890 -0.4952  0.3261  0.4008
  101MOL     C740207   6.510   4.752   3.756 -0.1950 -0.5772  0.0188
  101MOL     C840208   6.506   4.999   3.899  0.1569 -0.2113  0.4257
  101MOL     C940209   6.501   5.118   3.983  0.1660 -0.0385 -0.7228
  101MOL    C1040210   6.562   5.355   4.158 -0.2598 -0.2910  0.1390
  101MOL    H1140211   6.540   5.205   4.317  0.9826 -0.9676  0.3084
  101MOL    H1240212   6.633   4.990   4.269  1.7133 -1.5458  0.1703
  101MOL    H1340213   6.634   4.784   4.135 -0.8023 -1.4619 -2.2084
  101MOL    H1440214   6.548   4.660   3.711  2.0177 -0.2657  1.2088
  101MOL    H1540215   6.401   4.753   3.745 -0.1684  0.2023 -0.1783
  101MOL    H1640216   6.546   4.828   3.686 -1.3901 -0.8623 -0.9384
  101MOL    H1740217   6.475   5.007   3.796  0.5323 -0.5200  0.2894
  101MOL    H1840218   6.475   5.213   3.936  1.4586  0.2174 -0.9498
  101MOL    H1940219   6.670   5.352   4.139 -0.1698  1.4323  0.3699
  101MOL    H2040220   6.508   5.377   4.066  0.5194 -1.3641 -0.5938
  101MOL    H2140221   6.403   5.238   4.221 -0.0728  0.5678 -0.0010
  101MOL    C2240222   6.540   5.471   4.263 -0.3285 -0.0530 -0.9349
  101MOL    C2340223   6.620   5.429   4.393  0.2070  0.4747  0.1527
  101MOL    C2440224   6.548   5.399   4.509  0.4101  0.5151  0.0100
  101MOL    C2540225   6.607   5.360   4.623  0.0808  0.0999  0.1450
  101MOL    C2640226   6.749   5.346   4.635 -0.8800 -0.2035 -0.2079
  101MOL    O2740227   6.817   5.299   4.746 -0.1128  0.0984 -0.2661
  101MOL    C2840228   6.731   5.238   4.850  0.2123 -0.6334 -0.0130
  101MOL    C2940229   6.819   5.381   4.520 -0.1304  0.0265 -0.3017
  101MOL    C3040230   6.758   5.424   4.400  0.0305 -0.5897 -0.5871
  101MOL    C3140231   6.582   5.607   4.213  0.0178 -0.1565  0.0233
  101MOL    H3240232   6.432   5.479   4.271 -0.2731 -1.3426  1.5958
  101MOL    H3340233   6.443   5.421   4.520 -0.4623 -2.8943 -0.9023
  101MOL    H3440234   6.548   5.345   4.712  0.1973 -1.4801 -0.0143
  101MOL    H3540235   6.648   5.296   4.891  0.9955  0.1408  0.5044
  101MOL    H3640236   6.784   5.202   4.938 -1.4147  0.7555  1.5760
  101MOL    H3740237   6.700   5.146   4.801 -1.0021 -0.2397  0.0183
  101MOL    H3840238   6.927   5.383   4.513 -0.0009 -2.5030  0.3738
  101MOL    H3940239   6.812   5.459   4.313  0.1364 -0.4163 -0.4533
  101MOL    H4040240   6.686   5.589   4.182  1.2516  1.4943  2.9873
  101MOL    H4140241   6.535   5.634   4.119  0.8519 -0.9962 -0.6530
  101MOL    C4240242   6.567   5.717   4.324  0.0151  0.3570 -0.2767
  101MOL    C4340243   6.425   5.739   4.357 -0.4247  0.5874  0.4897
  101MOL    C4440244   6.336   5.785   4.261  0.4196 -0.2288 -0.1002
  101MOL    C4540245   6.203   5.826   4.303 -0.5090  0.3075  0.0465
  101MOL    C4640246   6.159   5.791   4.434  0.4217 -0.7847 -0.4084
  101MOL    O4740247   6.028   5.819   4.477 -0.3095  0.0180  0.3947
  101MOL    C4840248   5.979   5.766   4.600  0.1947 -0.5408  0.8105
  101MOL    C4940249   6.256   5.746   4.526 -0.0885 -0.4086  0.1161
  101MOL    C5040250   6.383   5.711   4.479  0.4705 -0.1189  0.0419
  101MOL    C5140251   6.647   5.842   4.287  0.4700  0.3338 -0.0648
  101MOL    H5240252   6.617   5.677   4.412  0.6720  1.9023  0.0850
  101MOL    H5340253   6.372   5.808   4.162  1.6875 -0.1326  0.3856
  101MOL    H5440254   6.145   5.886   4.235 -2.2013 -0.6166  0.6457
  101MOL    H5540255   6.025   5.824   4.679  1.2129  0.6777 -0.6582
  101MOL    H5640256   5.870   5.778   4.597  0.0330 -2.3352 -2.7745
  101MOL    H5740257   6.004   5.660   4.606 -2.0696 -1.1197  0.8500
  101MOL    H5840258   6.236   5.727   4.630 -0.4872 -1.6283 -0.1794
  101MOL    H5940259   6.446   5.666   4.555 -0.5371  0.1617  1.0652
  101MOL    H6040260   6.614   5.862   4.185  1.3060  3.7489  0.2791
  101MOL    H6140261   6.755   5.834   4.279  0.2797 -1.0258 -1.4644
  101MOL    C6240262   6.620   5.968   4.375 -0.4798  0.1830  0.1756
  101MOL    C6340263   6.614   6.100   4.293 -0.1446 -0.6244  0.3924
  101MOL    C6440264   6.716   6.158   4.216  0.2495  0.0709 -0.5427
  101MOL    C6540265   6.697   6.288   4.150 -1.0056  0.3149  0.2734
  101MOL    C6640266   6.569   6.351   4.155 -0.1772 -0.4091  1.0093
  101MOL    O6740267   6.557   6.466   4.083 -0.2224 -0.1899  0.3373
  101MOL    C6840268   6.442   6.553   4.108  0.0754  0.4763 -0.3088
  101MOL    C6940269   6.471   6.302   4.244  0.2192  0.0359  0.0900
  101MOL    C7040270   6.493   6.178   4.306 -0.1377 -0.5628  0.1156
  101MOL    C7140271   6.726   5.978   4.491 -0.4449 -0.5302 -0.0076
  101MOL    H7240272   6.525   5.955   4.426 -0.4215 -0.2960  0.1606
  101MOL    H7340273   6.803   6.095   4.203 -0.5802 -1.1803 -0.1654
  101MOL    H7440274   6.770   6.330   4.082  0.0801 -0.4051  0.9754
  101MOL    H7540275   6.344   6.504   4.109  0.4071 -0.2022 -1.5370
  101MOL    H7640276   6.434   6.637   4.038  2.4543  2.5845  1.8367
  101MOL    H7740277   6.442   6.592   4.210 -1.0459  3.8809 -1.5096
  101MOL    H7840278   6.375   6.349   4.257  0.5663  1.1098 -1.1203
  101MOL    H7940279   6.414   6.141   4.370  0.0639  2.0209  1.9450
  101MOL    H8040280   6.744   5.879   4.533  2.2189  0.0750  0.3399
  101MOL    H8140281   6.822   5.999   4.445  0.5193 -0.1542  2.1345
  101MOL    C8240282   6.680   6.082   4.600  0.7603 -0.5043  0.1554
  101MOL    C8340283   6.547   6.051   4.675 -0.1046  0.2302  0.1550
  101MOL    C8440284   6.438   6.139   4.652 -0.1243 -0.0513 -0.0069
  101MOL    C8540285   6.314   6.108   4.711 -0.4331  0.1676  0.8233
  101MOL    C8640286   6.299   5.997   4.793  0.1936  0.7970 -0.3727
  101MOL    O8740287   6.177   5.961   4.839  0.4111  0.6406  0.2722
  101MOL    C8840288   6.085   6.066   4.876 -0.1361 -0.0815  0.4321
  101MOL    C8940289   6.412   5.915   4.812 -0.7503  0.1655  0.4922
  101MOL    C9040290   6.533   5.933   4.747 -0.1153 -0.4953 -0.3170
  101MOL    C9140291   6.796   6.105   4.698 -0.4741 -0.7512  0.2265
  101MOL    H9240292   6.666   6.172   4.540 -0.8572 -1.2000 -0.5290
  101MOL    H9340293   6.449   6.221   4.582 -0.0559  0.4982  0.6356
  101MOL    H9440294   6.228   6.169   4.687 -1.9927 -2.0544  0.5918
  101MOL    H9540295   6.009   6.017   4.936  0.7973  0.7113  2.2923
  101MOL    H9640296   6.040   6.106   4.785 -1.1469  0.5981  1.2071
  101MOL    H9740297   6.143   6.146   4.923  0.8773 -0.6368  0.1308
  101MOL    H9840298   6.411   5.829   4.877  2.2903  0.3965  0.9324
  101MOL    H9940299   6.611   5.859   4.759 -2.6543 -3.2039  0.1900
  101MOL   H10040300   6.814   6.011   4.750 -1.6780  0.0993  2.2138
  101MOL   H10140301   6.893   6.115   4.649 -0.3241  0.6937  0.8083
  101MOL   C10240302   6.768   6.229   4.799 -0.0495  0.5627 -0.0673
  101MOL   C10340303   6.836   6.214   4.934  0.5320 -0.4863  0.1805
  101MOL   C10440304   6.768   6.222   5.058  0.0985  0.3096 -0.0321
  101MOL   C10540305   6.838   6.208   5.179 -0.2920  0.2230  0.2250
  101MOL   C10640306   6.976   6.189   5.183 -0.4054 -0.0131 -0.1912
  101MOL   O10740307   7.037   6.186   5.311  0.1392 -0.1402 -0.6740
  101MOL   C10840308   6.966   6.256   5.416  0.3067  0.3785 -0.2646
  101MOL   C10940309   7.041   6.167   5.065 -0.2635 -1.0025 -0.4395
  101MOL   C11040310   6.972   6.178   4.941  0.5474  0.1648 -0.5848
  101MOL   C11140311   6.797   6.361   4.726  0.2825  0.6805  0.2510
  101MOL   H11240312   6.662   6.227   4.823  0.4480 -1.0658  2.2143
  101MOL   H11340313   6.663   6.244   5.059  0.0478  0.0509  0.7264
  101MOL   H11440314   6.782   6.211   5.272  1.4830  0.5612  1.3176
  101MOL   H11540315   6.893   6.181   5.444  0.3525 -0.0507 -1.2571
  101MOL   H11640316   7.032   6.288   5.496  0.3707 -2.4306  0.8590
  101MOL   H11740317   6.914   6.348   5.388 -0.3231  0.8225  2.2157
  101MOL   H11840318   7.142   6.130   5.080 -0.9466 -2.0817  1.7275
  101MOL   H11940319   7.028   6.149   4.853 -1.4486 -0.9875 -1.5242
  101MOL   H12040320   6.905   6.374   4.727  0.4724 -0.5455 -1.4108
  101MOL   H12140321   6.762   6.340   4.624 -0.6469 -2.3928  1.1359
  101MOL   C12240322   6.713   6.473   4.797  0.0432 -1.1906 -0.0750
  101MOL   C12340323   6.566   6.469   4.767  0.0513 -0.4727 -0.2024
  101MOL   C12440324   6.520   6.467   4.634  0.0596 -0.0842  0.4564
  101MOL   C12540325   6.383   6.473   4.605  0.0694  0.1601 -0.2908
  101MOL   C12640326   6.290   6.491   4.707 -0.1120 -0.0749  0.5888
  101MOL   O12740327   6.155   6.499   4.675  0.4644  0.1316  0.1712
  101MOL   C12840328   6.069   6.573   4.751 -0.5055 -0.6019 -0.3335
  101MOL   C12940329   6.334   6.506   4.842 -0.2310 -0.0228  0.6887
  101MOL   C13040330   6.471   6.477   4.871  0.5906 -0.2493 -0.3155
  101MOL   C13140331   6.769   6.603   4.745 -0.0618 -0.5275 -0.1107
  101MOL   H13240332   6.727   6.465   4.905 -0.1346 -0.8359 -0.0262
  101MOL   H13340333   6.582   6.471   4.546  0.9924  0.1618  1.1176
  101MOL   H13440334   6.347   6.482   4.503 -1.6944 -0.7106  0.2405
  101MOL   H13540335   6.104   6.674   4.773 -1.0434 -0.2833 -0.9082
  101MOL   H13640336   5.962   6.558   4.732 -0.6575 -1.1229  0.8821
  101MOL   H13740337   6.076   6.534   4.852 -0.5942 -1.7986 -0.7886
  101MOL   H13840338   6.273   6.527   4.929  1.0494 -0.1521  1.6290
  101MOL   H13940339   6.502   6.487   4.974 -1.9258  0.4086  0.4110
  101MOL   H14040340   6.757   6.604   4.637  0.0509 -1.0218 -0.1331
  101MOL   H14140341   6.876   6.598   4.766 -0.0511  1.1048  0.2593
  101MOL   C14240342   6.707   6.729   4.821 -0.6967  0.0039  0.4996
  101MOL   C14340343   6.723   6.734   4.973  0.0559  0.4182 -0.2240
  101MOL   C14440344   6.853   6.734   5.029  0.8463 -0.6174 -0.2153
  101MOL   C14540345   6.868   6.718   5.173 -0.6003  0.0028 -0.3964
  101MOL   C14640346   6.750   6.724   5.256 -0.7372 -0.7856 -1.1053
  101MOL   O14740347   6.761   6.719   5.397  0.7390  0.0191 -0.0614
  101MOL   C14840348   6.890   6.731   5.451 -0.4625  0.1062 -0.0738
  101MOL   C14940349   6.624   6.723   5.192 -0.2139  0.8993 -0.2033
  101MOL   C15040350   6.608   6.735   5.053 -0.0387 -0.2600 -0.1052
  101MOL   C15140351   6.766   6.859   4.757 -0.4373 -0.0723 -0.5300
  101MOL   H15240352   6.600   6.731   4.799 -0.4622  4.6540 -0.8838
  101MOL   H15340353   6.939   6.730   4.965  0.7970  0.8919 -0.3809
  101MOL   H15440354   6.967   6.713   5.216  0.1453 -1.0380 -2.1833
  101MOL   H15540355   6.940   6.824   5.424  1.5652 -0.9344  0.0050
  101MOL   H15640356   6.886   6.725   5.560  0.1924 -1.0968 -0.1013
  101MOL   H15740357   6.949   6.650   5.408 -1.6647 -1.5480  1.3072
  101MOL   H15840358   6.540   6.721   5.260  1.1472 -0.7251  1.4727
  101MOL   H15940359   6.510   6.737   5.008  0.3731 -0.1197 -1.0054
  101MOL   H16040360   6.757   6.861   4.648 -0.7419  2.1749 -0.4752
  101MOL   H16140361   6.873   6.865   4.778 -0.9216 -0.7021  2.2520
  101MOL   C16240362   6.711   6.995   4.816  0.6009 -0.1122  0.1966
  101MOL   C16340363   6.558   7.015   4.783 -0.0284  0.6935  0.1979
  101MOL   C16440364   6.520   7.022   4.648 -0.3990 -0.7573  0.1813
  101MOL   C16540365   6.382   7.039   4.627 -0.2194 -0.0295  0.0972
  101MOL   C16640366   6.291   7.043   4.730  0.1607  0.6328  0.2348
  101MOL   O16740367   6.154   7.063   4.706 -0.2274  0.1442 -0.0514
  101MOL   C16840368   6.111   7.085   4.571  0.0049 -0.0392  0.1367
  101MOL   C16940369   6.335   7.035   4.864 -0.3235 -0.2208 -0.0368
  101MOL   C17040370   6.470   7.018   4.890 -0.1841 -0.6547  0.2341
  101MOL   C17140371   6.786   7.119   4.764  0.2538  0.1066 -0.5198
  101MOL   H17240372   6.714   6.994   4.925  0.2386  0.2768  0.2128
  101MOL   H17340373   6.594   6.999   4.572 -2.0445 -1.7584 -1.1538
  101MOL   H17440374   6.348   7.036   4.525 -2.0895  1.6189  0.6366
  101MOL   H17540375   6.127   6.989   4.522  0.4894 -0.8108  1.7616
  101MOL   H17640376   6.164   7.164   4.519  0.9629 -1.6882 -1.4243
  101MOL   H17740377   6.007   7.119   4.569  0.8144  2.4422 -1.4326
  101MOL   H17840378   6.268   7.043   4.948  1.5932 -0.7055  1.6002
  101MOL   H17940379   6.509   7.016   4.990 -2.5135 -2.2037  1.1400
  101MOL   H18040380   6.730   7.168   4.685  0.8868  0.0721 -1.0001
  101MOL   H18140381   6.874   7.080   4.712 -2.1977 -3.0595 -2.4808
  101MOL   C18240382   6.839   7.232   4.863  0.2898  0.4311 -0.0782
  101MOL   C18340383   6.935   7.163   4.957 -0.0138  0.1609 -0.1138
  101MOL   C18440384   7.058   7.117   4.907  0.6160  0.5138  0.1407
  101MOL   C18540385   7.143   7.034   4.977 -0.3270 -0.6297  0.2376
  101MOL   C18640386   7.116   7.005   5.112 -0.0695  0.2909 -0.0061
  101MOL   O18740387   7.190   6.923   5.201 -0.2217 -0.0489  0.2278
  101MOL   C18840388   7.286   6.844   5.145  0.0562 -0.5064  0.6787
  101MOL   C18940389   7.002   7.060   5.170  0.1089 -0.1300 -0.0040
  101MOL   C19040390   6.912   7.140   5.093  0.2427 -0.7772  0.2459
  101MOL   C19140391   6.725   7.304   4.927  0.1762  0.0907  0.0772
  101MOL   H19240392   6.902   7.293   4.797  0.5079  1.3104  0.9181
  101MOL   H19340393   7.088   7.150   4.809  0.0342 -0.4007 -0.3596
  101MOL   H19440394   7.231   6.996   4.927 -0.5208  1.5381 -1.8424
  101MOL   H19540395   7.236   6.790   5.064 -0.0933  0.4300  0.1402
  101MOL   H19640396   7.317   6.767   5.215 -1.2014 -2.5463 -0.9504
  101MOL   H19740397   7.373   6.902   5.115 -1.7066  0.8844 -1.9156
  101MOL   H19840398   6.977   7.041   5.274  0.0653  0.4793  0.1014
  101MOL   H19940399   6.822   7.172   5.144  1.3630 -0.1036  1.8617
  101MOL   H20040400   6.649   7.334   4.855  0.1837 -1.3590 -0.5454
  101MOL   H20140401   6.681   7.233   4.997 -0.1493  1.0301  0.8545
  101MOL   C20240402   6.763   7.439   5.001 -0.5472  0.0938 -0.1542
  101MOL   C20340403   6.682   7.456   5.125 -0.3974 -0.0614  0.2053
  101MOL   C20440404   6.545   7.448   5.128  0.1033 -0.5355 -0.4494
  101MOL   C20540405   6.468   7.489   5.247  0.3639  0.5490  0.6508
  101MOL   C20640406   6.538   7.533   5.360 -0.1927 -0.4318  0.5119
  101MOL   O20740407   6.465   7.547   5.477  0.5778  0.7855  0.0762
  101MOL   C20840408   6.507   7.628   5.588  0.6755  0.2836 -0.8554
  101MOL   C20940409   6.676   7.551   5.356 -0.7354  0.3748 -0.4614
  101MOL   C21040410   6.746   7.502   5.239  0.2318  0.3656 -0.1743
  101MOL   C21140411   6.746   7.563   4.905  0.3631 -0.3179  0.0614
  101MOL   H21240412   6.868   7.426   5.029 -0.6494  0.3294  0.3339
  101MOL   H21340413   6.501   7.400   5.042 -0.7755 -1.5942  0.5719
  101MOL   H21440414   6.361   7.484   5.247  0.4598 -2.7468  1.2223
  101MOL   H21540415   6.587   7.570   5.634  0.6931 -0.4295 -1.7510
  101MOL   H21640416   6.550   7.725   5.563  1.0165  0.2198 -0.5178
  101MOL   H21740417   6.424   7.643   5.657  0.0531 -2.1280 -1.0256
  101MOL   H21840418   6.729   7.582   5.444  1.2337  1.0827 -1.8703
  101MOL   H21940419   6.853   7.520   5.237  0.3770 -0.1433  1.5424
  101MOL   H22040420   6.678   7.636   4.949 -2.1935 -2.4767 -0.1854
  101MOL   H22140421   6.689   7.543   4.815  1.9853  2.8901 -1.7700
  101MOL   C22240422   6.872   7.648   4.875  0.1751  0.6228 -0.2568
  101MOL   C22340423   6.981   7.566   4.811 -0.0710  0.1969  0.2694
  101MOL   C22440424   7.082   7.506   4.884  0.1530  0.2251 -0.2354
  101MOL   C22540425   7.190   7.435   4.829 -0.9084  0.1951  0.0815
  101MOL   C22640426   7.185   7.407   4.691 -0.5450 -0.3664  0.3416
  101MOL   O22740427   7.270   7.324   4.623 -0.7600 -0.0760  0.2860
  101MOL   C22840428   7.371   7.264   4.712  0.4174  0.0454  0.4467
  101MOL   C22940429   7.082   7.463   4.612  0.9002  0.5861 -0.3145
  101MOL   C23040430   6.982   7.543   4.672  0.3678  0.2172 -0.6866
  101MOL   C23140431   6.850   7.786   4.820  0.1015  0.2156 -0.0770
  101MOL   H23240432   6.912   7.658   4.976  0.2196 -2.1160  0.0435
  101MOL   H23340433   7.084   7.511   4.992  0.1448  0.8114 -0.2638
  101MOL   H23440434   7.267   7.395   4.893 -0.9593  0.5189  0.3420
  101MOL   H23540435   7.330   7.191   4.782  1.7159 -0.3946  0.7629
  101MOL   H23640436   7.447   7.204   4.662 -0.1638  0.2028 -0.6446
  101MOL   H23740437   7.430   7.345   4.754  2.0012 -0.7761 -0.1690
  101MOL   H23840438   7.078   7.447   4.505  0.8418 -1.2115 -0.0698
  101MOL   H23940439   6.903   7.589   4.615 -0.4603 -2.4749 -1.7458
  101MOL   H24040440   6.947   7.821   4.783  0.1839 -0.4898 -0.5336
  101MOL   H24140441   6.783   7.768   4.737 -1.5533 -2.4690  1.7712
  101MOL   C24240442   6.769   7.885   4.904  0.8681  0.3109 -0.2506
  101MOL   C24340443   6.809   7.898   5.049  0.9027  0.0011 -0.0835
  101MOL   C24440444   6.718   7.877   5.151  0.5941  0.5221 -0.3217
  101MOL   C24540445   6.765   7.867   5.280 -0.5530  0.1223 -0.0753
  101MOL   C24640446   6.894   7.888   5.315 -0.0538 -0.5222 -0.0144
  101MOL   O24740447   6.922   7.878   5.453 -0.5082  0.1137  0.1567
  101MOL   C24840448   7.047   7.938   5.502  0.3673  0.6536 -0.2720
  101MOL   C24940449   6.985   7.929   5.216 -0.0702 -0.1300  0.1038
  101MOL   C25040450   6.940   7.926   5.085  0.5426 -0.1613  0.6062
  101MOL   C25140451   6.768   8.024   4.832 -0.2871 -0.2919 -0.0361
  101MOL   H25240452   6.664   7.855   4.906  0.9392 -0.3339 -3.5797
  101MOL   H25340453   6.612   7.873   5.131  0.7701 -1.8617 -1.0245
  101MOL   H25440454   6.701   7.857   5.366 -0.0799 -1.1165  0.1402
  101MOL   H25540455   7.129   7.904   5.438 -1.0558  1.8048 -2.8033
  101MOL   H25640456   7.048   0.007   5.494  2.2859  0.8303  1.8891
  101MOL   H25740457   7.067   7.930   5.609  0.5972 -0.4024 -0.3920
  101MOL   H25840458   7.089   7.952   5.235 -0.6732  1.5023  1.5734
  101MOL   H25940459   7.002   7.944   4.999 -0.0673 -0.3859  0.1131
  101MOL   H26040460   6.853   8.029   4.765 -0.7073  2.2714 -0.4398
  101MOL   H26140461   6.784   0.063   4.905  2.2356 -0.8065  0.0050
  101MOL   C26240462   6.643   0.026   4.751 -0.1912  0.0353  0.1837
  101MOL   C26340463   6.524   0.035   4.848  0.2375 -0.0009  0.0678
  101MOL   C26440464   6.422   7.980   4.844 -0.2052  0.6833  0.1140
  101MOL   C26540465   6.307   7.997   4.926 -0.1082 -0.2473  0.6879
  101MOL   C26640466   6.312   0.058   5.032 -0.5870  0.2487 -0.1917
  101MOL   O26740467   6.217   0.071   5.134  0.9237  0.1328 -0.4930
  101MOL   C26840468   6.126   8.008   5.146 -0.0673 -0.2315  0.2792
  101MOL   C26940469   6.425   0.144   5.042  0.8482  0.4912  0.1518
  101MOL   C27040470   6.531   0.135   4.945 -0.2891  0.4654  0.3126
  101MOL   C27140471   6.611   7.974   4.622  0.0371  0.4379 -0.1060
  101MOL   H27240472   6.656   0.132   4.728  0.3123 -0.1833 -0.5611
  101MOL   H27340473   6.410   7.903   4.769  0.0622  1.8404 -1.1364
  101MOL   H27440474   6.217   7.940   4.908 -0.4293  0.9008 -1.5239
  101MOL   H27540475   6.182   7.921   5.181  0.0309 -0.5045 -0.5519
  101MOL   H27640476   6.074   7.998   5.051  1.4904  0.3348 -0.6538
  101MOL   H27740477   6.048   8.034   5.218  0.2071 -1.6830  1.1181
  101MOL   H27840478   6.428   0.221   5.118 -0.9152  0.9516 -0.2394
  101MOL   H27940479   6.614   0.204   4.953  0.1757 -0.2303  1.7737
  101MOL   H28040480   6.595   7.871   4.652 -0.0631  0.7354  0.8804
  101MOL   H28140481   6.513   8.007   4.588 -0.2582  1.9200  2.1064
  101MOL   C28240482   6.706   7.978   4.500  0.1169 -0.7909 -0.5257
  101MOL   C28340483   6.718   0.078   4.432 -0.4833  0.0164 -0.2504
  101MOL   C28440484   6.606   0.140   4.373  0.4411  0.9832 -0.3757
  101MOL   C28540485   6.616   0.261   4.307  0.2046 -0.1106  0.7512
  101MOL   C28640486   6.743   0.314   4.287 -0.2024  0.0618 -0.1198
  101MOL   O28740487   6.752   0.426   4.210 -0.6657 -0.3744  0.0354
  101MOL   C28840488   6.869   0.500   4.194 -0.0077 -0.5509  0.1043
  101MOL   C28940489   6.860   0.253   4.346 -0.1960  0.3798  0.5368
  101MOL   C29040490   6.844   0.133   4.415 -0.6469 -0.1454  0.0742
  101MOL   C29140491   6.666   7.864   4.399 -0.2503  0.1993  0.2102
  101MOL   H29240492   6.805   7.949   4.535  1.2054  1.5417 -1.5340
  101MOL   H29340493   6.506   0.100   4.378  0.3854  1.0504 -0.9221
  101MOL   H29440494   6.533   0.315   4.263 -0.6043 -1.1399  1.0116
  101MOL   H29540495   6.843   0.577   4.120  0.8624  1.6849  2.0531
  101MOL   H29640496   6.893   0.548   4.289 -2.2848  0.6444  0.1333
  101MOL   H29740497   6.954   0.451   4.147  1.0727  0.2386  1.2047
  101MOL   H29840498   6.958   0.292   4.324 -0.4701 -0.8981 -3.2467
  101MOL   H29940499   6.932   0.086   4.457  0.4301  2.4146  0.7792
  101MOL   H30040500   6.689   7.767   4.442 -1.7377  0.1049  0.8077
  101MOL   H30140501   6.561   7.881   4.375  0.2402  0.8528 -1.6490
  101MOL   C30240502   6.754   7.868   4.274  0.3757 -0.6794  0.6616
  101MOL   C30340503   6.902   7.859   4.303  1.2675  0.2055 -0.3279
  101MOL   C30440504   6.957   7.747   4.379  0.5867 -0.3879 -0.0828
  101MOL   C30540505   7.094   7.745   4.411  0.3015 -0.0105 -1.0593
  101MOL   C30640506   7.181   7.845   4.365  0.3667 -0.3347 -0.2460
  101MOL   O30740507   7.317   7.828   4.368  0.0779  0.1309  0.2011
  101MOL   C30840508   7.376   7.699   4.369 -0.3922  0.2605  0.2757
  101MOL   C30940509   7.134   7.946   4.284  0.3133  0.3391 -0.2869
  101MOL   C31040510   6.992   7.958   4.267  0.2992  0.0839 -0.3892
  101MOL   C31140511   6.717   7.758   4.169  0.6735  1.2376  0.6537
  101MOL   H31240512   6.735   7.960   4.219  1.5239 -0.6245  0.3486
  101MOL   H31340513   6.891   7.667   4.408 -1.3273  0.8188 -0.9124
  101MOL   H31440514   7.134   7.659   4.464 -0.7979  0.4202  0.4906
  101MOL   H31540515   7.321   7.619   4.318  0.6088 -0.5395  0.4222
  101MOL   H31640516   7.423   7.659   4.459  1.2851 -0.2406 -0.7932
  101MOL   H31740517   7.454   7.699   4.293  0.1427 -1.4723  0.7882
  101MOL   H31840518   7.204   8.017   4.242 -1.6192  3.1414  1.0276
  101MOL   H31940519   6.958   0.003   4.209 -2.3590  0.5828  1.8167
  101MOL   H32040520   6.731   7.664   4.222  0.2446  1.6801  1.5560
  101MOL   H32140521   6.800   7.755   4.098  1.5471  2.5985  1.6048
  101MOL   C32240522   6.577   7.759   4.112  0.3720  0.5594 -0.3371
  101MOL   C32340523   6.499   7.634   4.159 -0.4052  0.2603 -0.1016
  101MOL   C32440524   6.389   7.645   4.252  0.1010 -0.2505  0.3180
  101MOL   C32540525   6.325   7.532   4.297 -0.3259 -0.5520  0.3314
  101MOL   C32640526   6.360   7.401   4.255 -0.2199  0.5382 -0.1133
  101MOL   O32740527   6.275   7.299   4.298  0.2242 -0.1548 -0.1506
  101MOL   C32840528   6.302   7.168   4.250  0.5409 -0.3039 -0.4724
  101MOL   C32940529   6.471   7.391   4.167 -0.5441 -0.4460  0.4812
  101MOL   C33040530   6.537   7.505   4.114  0.0694  0.5044 -0.7405
  101MOL   C33140531   6.572   7.778   3.958 -0.0964  0.7651  0.0099
  101MOL   H33240532   6.522   7.842   4.155 -0.2228  0.2785 -0.5562
  101MOL   H33340533   6.370   7.747   4.284  2.4085  1.2530 -2.7847
  101MOL   H33440534   6.242   7.537   4.366 -1.2803 -1.5444 -0.7151
  101MOL   H33540535   6.240   7.092   4.299  2.4189 -1.0402  0.8301
  101MOL   H33640536   6.405   7.142   4.276  0.2374 -0.1934  0.8974
  101MOL   H33740537   6.283   7.167   4.143  1.1104  2.7709 -0.6521
  101MOL   H33840538   6.503   7.294   4.130 -0.0639 -0.3010  0.5147
  101MOL   H33940539   6.616   7.494   4.042 -1.2029 -0.2001 -2.0563
  101MOL   H34040540   6.627   7.705   3.900 -2.2967  0.3203 -1.5451
  101MOL   H34140541   6.466   7.768   3.939 -0.8458  0.3492  3.9161
  101MOL   C34240542   6.618   7.914   3.910  0.2559 -0.2867  0.5923
  101MOL   C34340543   6.503   8.019   3.908 -0.4640  0.1947 -0.0426
  101MOL   C34440544   6.399   8.008   3.816 -0.0889 -0.6947  0.0231
  101MOL   C34540545   6.287   0.059   3.831 -0.6303  0.2139  0.2027
  101MOL   C34640546   6.294   0.169   3.923  0.6889  0.6207  0.4383
  101MOL   O34740547   6.186   0.249   3.939  0.6990  0.0131  0.2283
  101MOL   C34840548   6.065   0.222   3.875  0.9630 -0.1761  0.0110
  101MOL   C34940549   6.409   0.191   3.995  0.0582  0.1253  0.3326
  101MOL   C35040550   6.514   0.096   3.991 -0.5638  0.4064 -0.0120
  101MOL   C35140551   6.690   7.896   3.775 -0.4128 -0.5447  0.8334
  101MOL   H35240552   6.693   7.951   3.980 -0.5932 -1.0654  1.9351
  101MOL   H35340553   6.410   7.928   3.745 -0.2848  0.3691 -1.2190
  101MOL   H35440554   6.204   0.047   3.764  0.5119 -1.2778 -0.9827
  101MOL   H35540555   6.028   0.124   3.904 -0.6604  0.6852  0.9284
  101MOL   H35640556   5.996   0.294   3.918  0.3637 -0.7185 -0.0340
  101MOL   H35740557   6.068   0.238   3.767 -1.0619 -0.4864 -0.1038
  101MOL   H35840558   6.422   0.272   4.065 -2.5064  1.1020 -0.2610
  101MOL   H35940559   6.608   0.107   4.043 -0.7371 -2.4353  1.0098
  101MOL   H36040560   6.631   7.822   3.721 -0.4818  0.9204 -1.1702
  101MOL   H36140561   6.677   7.989   3.719  0.2609 -0.2910  1.0944
  101MOL   C36240562   6.840   7.858   3.783  0.0318 -0.2092  0.0956
  101MOL   C36340563   6.917   7.973   3.852 -0.0275  0.0642  0.4008
  101MOL   C36440564   6.876   0.071   3.843 -0.2000  0.0551  0.7412
  101MOL   C36540565   6.960   0.167   3.902 -0.5959 -0.0427 -0.1358
  101MOL   C36640566   7.083   0.130   3.965  0.3949 -0.5004 -0.0099
  101MOL   O36740567   7.163   0.224   4.021  0.0218  0.1758  0.3059
  101MOL   C36840568   7.276   0.262   3.940  0.4100  0.7818 -0.2032
  101MOL   C36940569   7.120   8.033   3.967  0.2955  0.4847 -0.2950
  101MOL   C37040570   7.032   7.935   3.922  0.4417  0.1381 -0.8915
  101MOL   C37140571   6.906   7.811   3.654  0.1690 -0.2279  0.1358
  101MOL   H37240572   6.837   7.770   3.847 -0.0896 -0.8342 -0.7652
  101MOL   H37340573   6.793   0.113   3.789  0.5588 -1.0847 -1.3970
  101MOL   H37440574   6.940   0.273   3.905  1.8993  0.4132  1.9033
  101MOL   H37540575   7.318   0.351   3.985  1.1232  0.9649 -1.2271
  101MOL   H37640576   7.351   0.183   3.935  1.0093  1.0884  3.1084
  101MOL   H37740577   7.245   0.297   3.841 -0.4010  0.9586  0.1059
  101MOL   H37840578   7.210   7.992   4.011  1.5092  1.7470 -1.5419
  101MOL   H37940579   7.062   7.832   3.924 -2.4551 -0.7883 -1.8109
  101MOL   H38040580   6.911   7.891   3.581  0.9429 -1.1084 -0.7872
  101MOL   H38140581   7.011   7.796   3.681 -0.3637 -2.9517  0.8831
  101MOL   C38240582   6.834   7.680   3.590 -0.6450 -1.2787 -0.4769
  101MOL   C38340583   6.808   7.567   3.692 -0.0576 -0.4245  0.3862
  101MOL   C38440584   6.906   7.524   3.777  0.2249 -0.3150  0.1086
  101MOL   C38540585   6.877   7.415   3.864 -0.0632  0.1273  0.9694
  101MOL   C38640586   6.748   7.353   3.866  0.5105 -0.0624  0.2436
  101MOL   O38740587   6.713   7.254   3.956 -0.2267 -0.0985 -0.5193
  101MOL   C38840588   6.806   7.219   4.056 -0.1007  0.6402  0.1575
  101MOL   C38940589   6.643   7.411   3.784  0.0899  0.1743  0.2192
  101MOL   C39040590   6.679   7.512   3.692 -0.2590 -0.3449 -0.1488
  101MOL   C39140591   6.925   7.625   3.482  0.7675  0.6966 -0.0689
  101MOL   H39240592   6.742   7.706   3.537 -1.6880  0.0793  1.9416
  101MOL   H39340593   7.002   7.573   3.777  0.2463 -0.3275 -1.3302
  101MOL   H39440594   6.964   7.376   3.916  0.9305  0.1440 -0.6393
  101MOL   H39540595   6.768   7.140   4.120  0.2034 -0.9574 -1.6085
  101MOL   H39640596   6.818   7.307   4.120  2.3977 -0.0443  0.6571
  101MOL   H39740597   6.898   7.173   4.020 -0.0651  1.5277 -0.9205
  101MOL   H39840598   6.550   7.357   3.786  0.3575 -0.2677  1.6657
  101MOL   H39940599   6.601   7.546   3.624 -0.9697  1.0483  1.3375
  101MOL   H40040600   6.880   7.536   3.437 -0.9672  0.5061  1.9262
  101MOL   H40140601   7.029   7.607   3.509  0.5047 -1.2543 -0.3122
  101MOL   H40240602   6.945   7.697   3.403  3.2315 -0.4635 -0.5412
  102MOL     C140603   5.295   1.562   7.307 -0.5781 -0.0715  0.1989
  102MOL     C240604   5.328   1.711   7.298 -0.6229  0.2299  0.1315
  102MOL     C340605   5.253   1.807   7.367  0.7283 -0.4907 -1.0350
  102MOL     C440606   5.275   1.945   7.351  0.3661 -0.7009 -0.5471
  102MOL     C540607   5.367   1.990   7.258 -0.8238  0.2268  0.4830
  102MOL     O640608   5.392   2.123   7.253 -0.3497  0.2848  0.0052
  102MOL     C740609   5.287   2.221   7.260  0.3323 -0.3704 -0.4308
  102MOL     C840610   5.448   1.898   7.187  0.2088 -0.8973 -0.3762
  102MOL     C940611   5.433   1.756   7.209 -0.4903  0.6491 -0.8483
  102MOL    C1040612   5.173   1.510   7.237  0.4693 -0.3282  0.1715
  102MOL    H1140613   5.278   1.540   7.412  0.8499  2.7777  1.0766
  102MOL    H1240614   5.180   1.769   7.437  2.6808 -0.7219  0.9665
  102MOL    H1340615   5.221   2.020   7.408  2.5466  0.7398 -0.3265
  102MOL    H1440616   5.338   2.312   7.229  2.6428 -0.8470  1.7082
  102MOL    H1540617   5.196   2.209   7.202 -0.4012  3.0874 -0.1400
  102MOL    H1640618   5.267   2.251   7.363 -0.2239  0.8380 -0.8798
  102MOL    H1740619   5.521   1.943   7.122 -0.5862 -1.6259 -1.7905
  102MOL    H1840620   5.493   1.689   7.149  0.6724 -1.4290  2.5192
  102MOL    H1940621   5.099   1.591   7.235 -1.3547 -1.9374 -2.7202
  102MOL    H2040622   5.203   1.473   7.139  0.7898  2.2232 -0.7391
  102MOL    H2140623   5.380   1.500   7.278 -1.6017 -1.8586  0.9774
  102MOL    C2240624   5.102   1.387   7.282  0.2802  0.1970 -0.0689
  102MOL    C2340625   4.968   1.369   7.212 -0.2436 -0.4548 -0.4397
  102MOL    C2440626   4.866   1.445   7.271 -0.0538  0.1517  0.2269
  102MOL    C2540627   4.736   1.441   7.220 -0.1413 -0.3303  0.0061
  102MOL    C2640628   4.705   1.365   7.106  0.0149 -0.0670 -0.1854
  102MOL    O2740629   4.580   1.361   7.043  0.0995 -0.2613  0.9682
  102MOL    C2840630   4.487   1.458   7.086  0.2397 -0.3596 -0.0556
  102MOL    C2940631   4.813   1.295   7.045  0.4675 -1.0829 -0.3454
  102MOL    C3040632   4.939   1.291   7.099  0.3261  0.1942 -1.1955
  102MOL    C3140633   5.190   1.257   7.269  0.6599 -0.2046  0.0581
  102MOL    H3240634   5.082   1.418   7.384 -0.6214 -0.9925  0.1244
  102MOL    H3340635   4.888   1.513   7.352 -0.8288  0.3659  0.2606
  102MOL    H3440636   4.660   1.507   7.258 -0.1329  0.0073 -0.5635
  102MOL    H3540637   4.397   1.441   7.027  0.3368  2.8442 -1.2145
  102MOL    H3640638   4.527   1.555   7.056 -1.1414  0.3592  0.3831
  102MOL    H3740639   4.462   1.455   7.193 -0.2504 -1.2613 -0.1943
  102MOL    H3840640   4.801   1.234   6.957 -1.7288 -0.2071 -0.6844
  102MOL    H3940641   5.015   1.223   7.062  1.6925  0.4741  0.9791
  102MOL    H4040642   5.245   1.245   7.175  0.2219  2.7645 -0.6113
  102MOL    H4140643   5.269   1.285   7.338  0.8886 -0.1129 -0.2401
  102MOL    C4240644   5.131   1.118   7.321 -0.0660  0.0844  0.7586
  102MOL    C4340645   5.066   1.128   7.458 -0.0283 -0.0523  0.1233
  102MOL    C4440646   4.926   1.136   7.474 -0.4984  0.5639 -0.0260
  102MOL    C4540647   4.868   1.167   7.595  0.3878 -0.3896  0.5632
  102MOL    C4640648   4.947   1.177   7.710  0.3590 -0.0595 -0.8061
  102MOL    O4740649   4.897   1.198   7.838  0.1407  0.3030  0.3554
  102MOL    C4840650   4.765   1.246   7.847  0.8044 -0.2302 -0.0863
  102MOL    C4940651   5.091   1.171   7.696  0.0472 -0.7244 -0.3326
  102MOL    C5040652   5.152   1.147   7.573  0.1967 -0.6523  0.7138
  102MOL    C5140653   5.227   0.993   7.302 -1.3091 -0.0475 -0.5842
  102MOL    H5240654   5.050   1.092   7.253  1.5036 -0.2634 -1.0280
  102MOL    H5340655   4.871   1.131   7.381 -1.6695 -1.0036  0.7166
  102MOL    H5440656   4.762   1.186   7.604 -0.1868 -2.9677 -0.4786
  102MOL    H5540657   4.689   1.170   7.828 -0.6731  1.5237 -1.4484
  102MOL    H5640658   4.735   1.286   7.943  0.4719 -0.0538 -0.2615
  102MOL    H5740659   4.735   1.337   7.795  0.4149  0.3367  1.1239
  102MOL    H5840660   5.153   1.179   7.784  0.1050  3.2269 -0.6794
  102MOL    H5940661   5.260   1.143   7.568  0.1521 -0.7629 -0.1502
  102MOL    H6040662   5.324   1.040   7.316 -0.2863 -1.8903 -1.2863
  102MOL    H6140663   5.224   0.965   7.197 -0.2503  0.1358 -0.6658
  102MOL    C6240664   5.210   0.877   7.395 -0.4182  0.3703 -0.2245
  102MOL    C6340665   5.322   0.775   7.372 -0.0176 -0.2188 -0.0580
  102MOL    C6440666   5.402   0.740   7.487 -0.0316  0.3756  0.0423
  102MOL    C6540667   5.506   0.649   7.472  0.2149 -0.2692 -0.1893
  102MOL    C6640668   5.543   0.603   7.337 -0.0520 -0.0310  0.0468
  102MOL    O6740669   5.644   0.509   7.310 -0.5164 -0.3694  0.3864
  102MOL    C6840670   5.686   0.417   7.414  0.6047 -0.2348  0.4482
  102MOL    C6940671   5.458   0.630   7.230  0.2493 -0.4738 -0.0166
  102MOL    C7040672   5.350   0.716   7.248 -0.2930  0.0134  0.6268
  102MOL    C7140673   5.077   0.805   7.368 -0.3526 -0.4122 -0.2119
  102MOL    H7240674   5.211   0.907   7.500  1.8909 -1.5020  0.3565
  102MOL    H7340675   5.384   0.790   7.581  0.8206  0.5713  0.1093
  102MOL    H7440676   5.571   0.622   7.553 -0.0084  0.8584  0.3658
  102MOL    H7540677   5.721   0.475   7.499 -2.1471  0.2197  1.3315
  102MOL    H7640678   5.767   0.351   7.382  1.0011  0.8436 -0.8166
  102MOL    H7740679   5.607   0.354   7.456  1.1409 -0.6844  0.7814
  102MOL    H7840680   5.468   0.594   7.129 -0.4752  0.0903 -0.2969
  102MOL    H7940681   5.294   0.750   7.162 -1.1228  0.8421  1.4879
  102MOL    H8040682   4.998   0.878   7.381 -1.3684 -0.8067 -3.7913
  102MOL    H8140683   5.074   0.780   7.262 -0.3656 -0.8944 -0.1001
  102MOL    C8240684   5.037   0.678   7.438 -0.1363  0.5519  0.4217
  102MOL    C8340685   5.037   0.696   7.589  0.1145  0.6991  0.7388
  102MOL    C8440686   4.928   0.761   7.655  0.2295  0.1419  0.1778
  102MOL    C8540687   4.940   0.794   7.793 -0.2320 -0.2494 -0.0807
  102MOL    C8640688   5.060   0.761   7.869 -0.3788  0.4003  0.6865
  102MOL    O8740689   5.083   0.783   8.000  0.2527 -0.0783 -0.1580
  102MOL    C8840690   4.990   0.869   0.025  0.3224  0.8040 -0.0868
  102MOL    C8940691   5.165   0.701   7.799 -0.4420  0.7484 -0.1531
  102MOL    C9040692   5.149   0.671   7.664 -0.0993  0.5912  0.6535
  102MOL    C9140693   4.905   0.618   7.375  0.2060 -0.0016  0.2382
  102MOL    H9240694   5.110   0.598   7.423  0.9484  1.6929 -0.5226
  102MOL    H9340695   4.847   0.789   7.589  0.7782  0.5094 -0.3425
  102MOL    H9440696   4.855   0.843   7.838 -0.3386  0.0366 -0.5830
  102MOL    H9540697   4.992   0.961   8.007 -2.1045 -1.0329 -3.2682
  102MOL    H9640698   5.012   0.882   0.131  0.3666 -0.1604  0.0271
  102MOL    H9740699   4.891   0.823   0.028  0.5155 -0.0429 -4.4036
  102MOL    H9840700   5.256   0.674   7.851 -0.0688  0.4350 -0.9530
  102MOL    H9940701   5.227   0.629   7.601 -0.2739  1.3068 -0.0492
  102MOL   H10040702   4.827   0.693   7.390 -1.1780 -1.5094  0.6996
  102MOL   H10140703   4.893   0.604   7.267  1.4575 -0.4870  0.1556
  102MOL   C10240704   4.856   0.478   7.433 -0.5701  0.2588  0.0085
  102MOL   C10340705   4.721   0.430   7.394  0.1124  0.0356  0.2932
  102MOL   C10440706   4.617   0.436   7.485  0.3550  0.2535  0.2529
  102MOL   C10540707   4.493   0.379   7.462  0.1685  0.5042  0.4252
  102MOL   C10640708   4.465   0.319   7.339 -0.4937  0.7191 -0.0459
  102MOL   O10740709   4.338   0.276   7.310  0.4458  0.4385  0.4610
  102MOL   C10840710   4.312   0.180   7.211 -0.2477 -0.1945 -0.2150
  102MOL   C10940711   4.569   0.309   7.242 -0.7259  0.0193 -0.0728
  102MOL   C11040712   4.697   0.362   7.270 -0.3419 -0.4319 -0.4918
  102MOL   C11140713   4.965   0.368   7.424 -0.1505  0.1157 -0.1241
  102MOL   H11240714   4.842   0.500   7.539 -1.6297 -0.7290  0.0867
  102MOL   H11340715   4.624   0.471   7.587 -0.6424  1.7219 -0.1634
  102MOL   H11440716   4.421   0.379   7.542  0.5719  1.8119  0.7964
  102MOL   H11540717   4.210   0.141   7.223  0.3260 -1.6706 -0.0546
  102MOL   H11640718   4.308   0.222   7.111 -3.4152 -0.1126 -0.1277
  102MOL   H11740719   4.385   0.099   7.222  0.5147  0.4819 -0.2978
  102MOL   H11840720   4.559   0.267   7.143  0.7432 -1.2172  0.2951
  102MOL   H11940721   4.782   0.364   7.204 -0.1296 -0.4051 -0.2231
  102MOL   H12040722   4.979   0.342   7.320  1.6609  0.2473  0.0768
  102MOL   H12140723   5.063   0.392   7.464  0.7668 -4.1280  0.3694
  102MOL   C12240724   4.938   0.235   7.501  0.4610 -0.5097  0.3689
  102MOL   C12340725   4.906   0.273   7.648  0.1962 -0.0598 -0.0372
  102MOL   C12440726   4.993   0.334   7.731  0.4004  0.1517  0.1619
  102MOL   C12540727   4.968   0.355   7.862 -0.0237 -0.1572  0.1001
  102MOL   C12640728   4.839   0.330   7.917 -0.1919  0.0374 -0.2716
  102MOL   O12740729   4.819   0.372   0.010  0.1200 -0.3342  0.1065
  102MOL   C12840730   4.729   0.289   0.084 -0.7274 -0.0309  0.8057
  102MOL   C12940731   4.745   0.266   7.836  0.4390  0.0441 -0.0548
  102MOL   C13040732   4.778   0.237   7.697 -0.2171  0.2915 -0.5613
  102MOL   C13140733   5.059   0.138   7.482  0.8113 -1.3480 -0.2079
  102MOL   H13240734   4.845   0.196   7.460 -0.2189 -0.0894  1.4996
  102MOL   H13340735   5.087   0.363   7.686 -0.4809 -0.9005 -2.3957
  102MOL   H13440736   5.047   0.407   7.914 -0.3161  0.6562 -0.2641
  102MOL   H13540737   4.758   0.185   0.073  0.8133  0.3137  1.4672
  102MOL   H13640738   4.724   0.297   0.192 -0.7821  0.1929  0.7860
  102MOL   H13740739   4.623   0.300   0.059 -0.6499 -1.0060  0.0055
  102MOL   H13840740   4.645   0.250   7.875  0.1864 -0.6863 -0.9810
  102MOL   H13940741   4.709   0.182   7.634  1.2878 -1.5947 -0.6044
  102MOL   H14040742   5.088   0.092   7.576  0.8617  0.8935  0.9050
  102MOL   H14140743   5.142   0.199   7.446 -1.2156  0.1312 -2.5387
  102MOL   C14240744   5.041   0.037   7.368 -0.2332  0.3986 -0.5443
  102MOL   C14340745   5.172   8.032   7.308 -0.0849  0.2405 -0.3803
  102MOL   C14440746   5.204   0.023   7.172 -0.1604  0.9120 -0.1584
  102MOL   C14540747   5.322   8.014   7.112  0.0447 -0.4390 -0.6225
  102MOL   C14640748   5.417   7.943   7.192  0.0965  0.0055 -0.1490
  102MOL   O14740749   5.538   7.894   7.144 -0.2357 -0.0983  0.4327
  102MOL   C14840750   5.585   7.952   7.024 -0.0844  0.5093 -0.0410
  102MOL   C14940751   5.387   7.923   7.328  0.1254 -0.0372  0.2226
  102MOL   C15040752   5.267   7.966   7.384  0.0488  0.7525  0.1369
  102MOL   C15140753   4.984   7.939   7.412  0.0618  0.8278 -0.2247
  102MOL   H15240754   4.989   0.088   7.287 -1.4870  1.9646  1.2261
  102MOL   H15340755   5.123   0.072   7.121 -1.0518  0.5531  0.8853
  102MOL   H15440756   5.334   8.027   7.006 -0.3992  0.7859 -0.5279
  102MOL   H15540757   5.512   7.942   6.944  0.6279 -0.4109 -0.5857
  102MOL   H15640758   5.629   0.012   7.024  1.4285 -0.0992 -2.8508
  102MOL   H15740759   5.662   7.881   6.993  0.8033  0.9327  1.1458
  102MOL   H15840760   5.465   7.881   7.389 -1.1982 -0.0907  1.8986
  102MOL   H15940761   5.255   7.939   7.488  1.8195 -1.1539 -0.1227
  102MOL   H16040762   4.895   7.954   7.473  0.4892 -1.1840  0.9355
  102MOL   H16140763   5.045   7.892   7.489 -1.3926  0.2040  0.5708
  102MOL   C16240764   4.959   7.843   7.290 -0.5969 -0.3166  0.3780
  102MOL   C16340765   4.884   7.906   7.172 -0.1099 -0.7615  0.6483
  102MOL   C16440766   4.774   7.989   7.198  1.0317  0.3275  1.2002
  102MOL   C16540767   4.698   8.037   7.088  0.1080 -0.6729 -0.3059
  102MOL   C16640768   4.735   8.008   6.955 -0.3523  0.5946 -0.4512
  102MOL   O16740769   4.650   0.004   6.849 -0.1667 -0.1760  0.0272
  102MOL   C16840770   4.516   0.053   6.870  0.0428 -0.8332 -0.0342
  102MOL   C16940771   4.847   7.928   6.931  1.0541 -0.5893  0.2615
  102MOL   C17040772   4.924   7.882   7.036  0.5982  0.1668  0.9047
  102MOL   C17140773   4.910   7.705   7.321  0.2541 -0.6475  0.4592
  102MOL   H17240774   5.057   7.819   7.248 -0.4472 -2.0223  1.6387
  102MOL   H17340775   4.747   7.998   7.302  1.0348 -4.5269  1.7477
  102MOL   H17440776   4.604   0.048   7.102  0.3848 -0.1170 -0.4863
  102MOL   H17540777   4.467   0.037   6.774 -0.4546 -2.0346  0.4009
  102MOL   H17640778   4.518   0.157   6.902  1.2591 -1.4513  2.0239
  102MOL   H17740779   4.466   8.031   6.945 -3.1309  0.5585 -0.9486
  102MOL   H17840780   4.874   7.916   6.827 -1.0205  2.2214 -0.6490
  102MOL   H17940781   5.011   7.823   7.012 -1.4757 -3.7286  2.4530
  102MOL   H18040782   4.898   7.636   7.238 -0.2743  0.1775 -0.1574
  102MOL   H18140783   4.817   7.730   7.372  0.7492 -0.7740  1.4511
  102MOL   C18240784   4.987   7.630   7.436  0.1527  0.7894  0.1928
  102MOL   C18340785   5.140   7.620   7.411 -0.3422  0.4136  0.1199
  102MOL   C18440786   5.240   7.611   7.516 -0.0074 -0.6550 -0.3905
  102MOL   C18540787   5.378   7.617   7.492  0.3135 -0.3851  0.1727
  102MOL   C18640788   5.430   7.587   7.362  0.3795 -0.3431 -0.3646
  102MOL   O18740789   5.564   7.591   7.343 -0.8220 -0.1732  0.8918
  102MOL   C18840790   5.616   7.550   7.214 -0.1814  1.0530 -0.7745
  102MOL   C18940791   5.328   7.564   7.264  0.6578 -0.4688  0.0216
  102MOL   C19040792   5.195   7.586   7.286  0.6596 -0.1359 -0.0949
  102MOL   C19140793   4.943   7.483   7.459  1.0479 -0.8028 -0.0127
  102MOL   H19240794   4.980   7.699   7.520  0.4028  2.3713 -1.0661
  102MOL   H19340795   5.218   7.627   7.621 -1.3832 -1.4319 -0.5557
  102MOL   H19440796   5.448   7.618   7.575  1.0576  0.2072 -0.4520
  102MOL   H19540797   5.608   7.629   7.139  0.0501  2.1536  0.3563
  102MOL   H19640798   5.565   7.465   7.167 -1.5745  1.3946  0.0971
  102MOL   H19740799   5.723   7.534   7.215 -0.3561 -0.1146  0.9848
  102MOL   H19840800   5.363   7.534   7.166  0.0801  0.4603 -0.4707
  102MOL   H19940801   5.132   7.554   7.204  0.8292 -0.9346  0.0787
  102MOL   H20040802   4.969   7.419   7.374  2.4007 -1.8628  1.1734
  102MOL   H20140803   5.011   7.450   7.537  0.6053  1.0359  1.1703
  102MOL   C20240804   4.801   7.466   7.516  1.5716 -0.0553 -0.7169
  102MOL   C20340805   4.758   7.580   7.606  0.0224 -0.5262  0.1155
  102MOL   C20440806   4.638   7.641   7.582 -0.4907  0.9025  0.2064
  102MOL   C20540807   4.591   7.743   7.668 -0.2076  0.4098  0.4698
  102MOL   C20640808   4.670   7.786   7.775 -0.2517  0.3876  0.4318
  102MOL   O20740809   4.650   7.887   7.863  0.0334  0.1913 -0.2127
  102MOL   C20840810   4.530   7.957   7.857 -0.4409 -0.2578 -0.7576
  102MOL   C20940811   4.798   7.727   7.792  0.6142  0.4143  0.0016
  102MOL   C21040812   4.835   7.611   7.721  0.3900 -0.0886 -0.5472
  102MOL   C21140813   4.787   7.345   7.606  0.1403  0.2717 -0.5371
  102MOL   H21240814   4.734   7.446   7.432 -1.3985 -1.9076  1.9530
  102MOL   H21340815   4.581   7.621   7.492  1.1689  1.9128 -1.1068
  102MOL   H21440816   4.496   7.779   7.633  0.2610  0.9288 -0.2933
  102MOL   H21540817   4.456   7.896   7.909 -0.5371 -0.3220 -0.9676
  102MOL   H21640818   4.535   0.009   7.915 -1.1690 -1.8277  1.8464
  102MOL   H21740819   4.497   7.986   7.757 -1.2194  1.1761 -0.0916
  102MOL   H21840820   4.862   7.764   7.871  0.5415 -1.7880  1.1251
  102MOL   H21940821   4.930   7.564   7.742  0.8568  0.8439 -0.5403
  102MOL   H22040822   4.698   7.350   7.668  0.6791  2.6884  0.0971
  102MOL   H22140823   4.865   7.338   7.682 -0.6650 -2.3120  0.0975
  102MOL   C22240824   4.793   7.198   7.549 -0.3650 -0.8085  0.0667
  102MOL   C22340825   4.933   7.171   7.494  0.4324 -0.4401 -0.3567
  102MOL   C22440826   5.042   7.178   7.587 -0.2191  0.7559  0.0656
  102MOL   C22540827   5.175   7.155   7.543  0.4177  0.2679  0.0247
  102MOL   C22640828   5.192   7.092   7.419  0.4801  0.2598 -0.1201
  102MOL   O22740829   5.313   7.047   7.384 -0.2511  0.1844 -0.3373
  102MOL   C22840830   5.425   7.132   7.409 -0.0156 -0.7758 -0.1944
  102MOL   C22940831   5.084   7.071   7.329  1.1324 -0.1138 -0.5062
  102MOL   C23040832   4.956   7.121   7.368  0.0690  0.3192  0.0314
  102MOL   C23140833   4.749   7.085   7.647  0.3709 -0.3849  0.1142
  102MOL   H23240834   4.717   7.212   7.471 -1.0722 -0.2087  0.8532
  102MOL   H23340835   5.031   7.213   7.688 -0.9300  3.5965 -0.9399
  102MOL   H23440836   5.258   7.153   7.613 -0.4164 -2.5871  1.0134
  102MOL   H23540837   5.501   7.098   7.479 -1.1429  1.3888  2.1347
  102MOL   H23640838   5.492   7.130   7.323 -0.7269  0.7145 -0.7982
  102MOL   H23740839   5.401   7.235   7.434  1.1550 -0.3902 -0.6284
  102MOL   H23840840   5.101   7.038   7.228  1.1091  2.4003 -1.3761
  102MOL   H23940841   4.867   7.115   7.306 -0.2417  0.4246  0.4640
  102MOL   H24040842   4.825   7.088   7.725 -0.2378 -0.3928  0.7046
  102MOL   H24140843   4.663   7.125   7.700  0.5220  0.1450 -0.0380
  102MOL   C24240844   4.718   6.945   7.576 -0.4343 -1.1620  0.3332
  102MOL   C24340845   4.833   6.845   7.591 -0.1595  0.3718  0.1770
  102MOL   C24440846   4.896   6.831   7.712  0.7676  0.3521 -0.3275
  102MOL   C24540847   5.003   6.741   7.731 -0.4910  0.9425  0.0393
  102MOL   C24640848   5.038   6.654   7.628  0.6593  0.1407 -0.3688
  102MOL   O24740849   5.120   6.555   7.663 -0.9817 -0.5600  0.1767
  102MOL   C24840850   5.109   6.430   7.599  0.0509  0.4593  0.6444
  102MOL   C24940851   4.982   6.676   7.500 -0.5997 -0.2647  0.2112
  102MOL   C25040852   4.880   6.767   7.475  0.0585 -0.7489 -0.9242
  102MOL   C25140853   4.581   6.876   7.615 -0.0922 -0.0673  0.4126
  102MOL   H25240854   4.705   6.964   7.470 -0.2817  0.8579  0.6562
  102MOL   H25340855   4.851   6.883   7.796 -2.6195 -2.2721 -0.3964
  102MOL   H25440856   5.058   6.734   7.824 -1.9296 -0.2253  0.8235
  102MOL   H25540857   5.153   6.440   7.500  1.7237 -2.0715  1.0980
  102MOL   H25640858   5.170   6.363   7.658 -0.4228 -0.4885  0.0597
  102MOL   H25740859   5.006   6.397   7.589  1.0395 -2.7719  0.7575
  102MOL   H25840860   5.033   6.628   7.417  1.1297  1.3331  0.3071
  102MOL   H25940861   4.837   6.788   7.378 -0.4346  2.9412  0.0553
  102MOL   H26040862   4.578   6.840   7.718  2.1136  1.1158  0.9079
  102MOL   H26140863   4.592   6.789   7.550  0.8037  1.5031 -1.6080
  102MOL   C26240864   4.455   6.933   7.556 -0.2068 -0.2791 -0.0384
  102MOL   C26340865   4.420   7.066   7.623  0.5943 -0.0255 -0.5895
  102MOL   C26440866   4.368   7.060   7.754 -0.5052  0.2552  0.7896
  102MOL   C26540867   4.347   7.179   7.826  0.4471  1.1032  0.5784
  102MOL   C26640868   4.385   7.302   7.767  0.2630  0.1267 -0.5532
  102MOL   O26740869   4.385   7.420   7.838  0.2133 -0.4984  0.1907
  102MOL   C26840870   4.358   7.417   7.979 -0.8559 -0.3381 -0.2696
  102MOL   C26940871   4.424   7.306   7.632 -0.7167 -0.0961 -0.1504
  102MOL   C27040872   4.429   7.187   7.561 -0.5298  0.2491 -0.4876
  102MOL   C27140873   4.340   6.827   7.554 -0.9023  0.1834 -0.1159
  102MOL   H27240874   4.473   6.969   7.455  0.0230 -0.2486  0.0134
  102MOL   H27340875   4.346   6.971   7.811 -1.8864 -0.2899 -0.5398
  102MOL   H27440876   4.315   7.165   7.928 -0.4719  0.5591  0.2157
  102MOL   H27540877   4.351   7.521   8.013 -1.7917 -0.5284  0.1354
  102MOL   H27640878   4.426   7.354   8.037 -1.1070 -1.1391 -0.8342
  102MOL   H27740879   4.257   7.381   8.002 -0.0212 -0.8443  2.8866
  102MOL   H27840880   4.439   7.394   7.570  0.4887 -1.8388 -2.3983
  102MOL   H27940881   4.457   7.202   7.457  0.7614 -1.5392 -0.4311
  102MOL   H28040882   4.362   6.732   7.505 -0.4524  1.0988 -1.6993
  102MOL   H28140883   4.325   6.806   7.660  1.1225  0.2334  0.2006
  102MOL   C28240884   4.207   6.878   7.498  0.0524 -0.0728 -0.4278
  102MOL   C28340885   4.089   6.787   7.529 -0.4473 -1.4948  1.0500
  102MOL   C28440886   3.981   6.835   7.599  0.1233  0.8836  0.3193
  102MOL   C28540887   3.855   6.758   7.615  0.1231 -0.3604 -0.8111
  102MOL   C28640888   3.853   6.632   7.559 -0.3940 -0.5756  0.5661
  102MOL   O28740889   3.737   6.566   7.558 -0.5851  0.6737 -0.1626
  102MOL   C28840890   3.705   6.477   7.452 -0.1687 -0.0497  0.0978
  102MOL   C28940891   3.972   6.575   7.502 -0.4227  0.7382  1.0043
  102MOL   C29040892   4.087   6.657   7.482  0.2068  0.0692  0.0901
  102MOL   C29140893   4.205   6.902   7.340 -0.2642  0.0309  0.8693
  102MOL   H29240894   4.191   6.974   7.546 -1.3059  0.0686 -1.1460
  102MOL   H29340895   3.982   6.939   7.626 -0.4139  1.1969 -0.8484
  102MOL   H29440896   3.758   6.789   7.650  0.7102 -0.3300  0.8020
  102MOL   H29540897   3.720   6.517   7.352 -0.0262 -2.0378 -0.6766
  102MOL   H29640898   3.752   6.379   7.449  0.8273  0.4317 -0.4116
  102MOL   H29740899   3.598   6.461   7.461  0.1194 -1.3492  1.2666
  102MOL   H29840900   3.960   6.480   7.450  0.0850  2.1117 -1.7189
  102MOL   H29940901   4.173   6.618   7.430  0.8542  0.0937  1.1221
  102MOL   H30040902   4.289   6.970   7.324  1.3894 -1.9973  0.6555
  102MOL   H30140903   4.236   6.812   7.288 -1.1839  0.1888  0.0315
  102MOL   C30240904   4.092   6.974   7.258  0.4695 -0.2809  0.3843
  102MOL   C30340905   4.094   7.122   7.286 -0.3102 -0.0455 -0.4016
  102MOL   C30440906   4.003   7.181   7.372  0.3234 -0.8928 -0.3146
  102MOL   C30540907   4.006   7.316   7.399 -0.4519 -0.0286  0.2615
  102MOL   C30640908   4.103   7.402   7.335  1.1386  0.5052  0.2061
  102MOL   O30740909   4.088   7.535   7.358 -0.3891  0.1340  0.6004
  102MOL   C30840910   4.158   7.615   7.257 -0.4725  0.2057 -0.5748
  102MOL   C30940911   4.204   7.340   7.262  0.2101 -0.1522  0.2070
  102MOL   C31040912   4.200   7.201   7.234 -0.5365 -0.3050 -0.3736
  102MOL   C31140913   4.091   6.947   7.106 -0.2847  0.3042 -0.4039
  102MOL   H31240914   3.996   6.928   7.281  0.2371 -0.5731 -1.0841
  102MOL   H31340915   3.934   7.112   7.419 -0.4150 -0.0505 -0.1557
  102MOL   H31440916   3.944   7.361   7.475 -0.5289  1.3616 -0.6217
  102MOL   H31540917   4.120   7.602   7.156 -0.5191  3.0687 -0.9497
  102MOL   H31640918   4.266   7.601   7.267 -0.6915 -0.0772  1.8471
  102MOL   H31740919   4.142   7.719   7.284  0.2732 -0.4724  2.7332
  102MOL   H31840920   4.279   7.393   7.205 -0.5981  0.3992 -0.3426
  102MOL   H31940921   4.287   7.167   7.179  0.9990  2.3700  0.3371
  102MOL   H32040922   4.111   6.844   7.077 -0.2026 -0.1572  1.2027
  102MOL   H32140923   4.184   6.995   7.075 -0.8118  2.6811  1.5759
  102MOL   C32240924   3.960   6.991   7.034 -0.6098  0.6059  0.3064
  102MOL   C32340925   3.837   6.895   7.062 -0.5963  0.2376 -0.0824
  102MOL   C32440926   3.713   6.944   7.098 -0.1330 -0.4232 -0.2532
  102MOL   C32540927   3.600   6.860   7.110  0.3060 -0.9967 -0.0949
  102MOL   C32640928   3.616   6.722   7.098  0.4215  0.3830 -0.0278
  102MOL   O32740929   3.508   6.639   7.106  0.1188  0.0163  0.3127
  102MOL   C32840930   3.374   6.702   7.109  0.7138  0.3104 -0.0104
  102MOL   C32940931   3.742   6.667   7.084 -0.5412 -0.4324  0.2368
  102MOL   C33040932   3.856   6.751   7.071  0.7574 -0.6663 -0.0122
  102MOL   C33140933   3.978   7.015   6.880  0.1421  0.3988 -0.2370
  102MOL   H33240934   3.929   7.079   7.090 -1.5545  0.3986  0.1268
  102MOL   H33340935   3.708   7.051   7.112 -1.5378 -0.2566 -1.8381
  102MOL   H33440936   3.509   6.917   7.119  2.5629  2.4876  1.6718
  102MOL   H33540937   3.291   6.640   7.144  1.5484  1.3581  4.1438
  102MOL   H33640938   3.356   6.766   7.023  0.1826  0.6460  0.3463
  102MOL   H33740939   3.381   6.772   7.192 -0.8998 -0.1685  0.5476
  102MOL   H33840940   3.743   6.559   7.088  2.2725 -0.5005 -0.8483
  102MOL   H33940941   3.959   6.717   7.072  1.2161  0.5989  2.8598
  102MOL   H34040942   4.009   6.919   6.839  2.2321  0.6317  0.7470
  102MOL   H34140943   3.881   7.032   6.833 -0.1816  1.0155  0.6478
  102MOL   C34240944   4.073   7.129   6.846  0.6438 -0.4977 -0.4545
  102MOL   C34340945   3.998   7.257   6.805  0.7711  0.1249  0.2788
  102MOL   C34440946   3.958   7.271   6.670 -0.2971 -0.1690  0.4360
  102MOL   C34540947   3.893   7.388   6.631  0.3512 -1.1723 -0.5964
  102MOL   C34640948   3.874   7.500   6.724 -0.5530  0.7584 -0.0401
  102MOL   O34740949   3.823   7.617   6.690  0.3903  0.0374 -0.4276
  102MOL   C34840950   3.786   7.636   6.556 -0.1244  0.5903 -0.9177
  102MOL   C34940951   3.912   7.483   6.856  0.4552 -0.0976  0.1450
  102MOL   C35040952   3.972   7.361   6.897 -0.8065 -0.1109 -0.1028
  102MOL   C35140953   4.168   7.086   6.737 -0.7458  0.0395 -0.3975
  102MOL   H35240954   4.142   7.153   6.927  0.3368  0.1134 -0.3697
  102MOL   H35340955   3.974   7.197   6.593 -0.0948 -1.8903  2.0926
  102MOL   H35440956   3.859   7.408   6.531 -0.4945  0.7508  0.0571
  102MOL   H35540957   3.711   7.563   6.527  0.5318 -0.5709  0.2690
  102MOL   H35640958   3.744   7.737   6.552 -0.0867  0.7230  1.5577
  102MOL   H35740959   3.877   7.631   6.496  0.5047  0.4160  0.0411
  102MOL   H35840960   3.895   7.564   6.925  0.6705 -0.3216  0.4639
  102MOL   H35940961   3.992   7.344   7.002  1.2414 -0.9551 -0.6089
  102MOL   H36040962   4.112   7.044   6.653  0.5335  0.1317 -1.3213
  102MOL   H36140963   4.212   7.179   6.702 -1.2450  0.4300  0.0126
  102MOL   C36240964   4.277   6.992   6.786 -0.3996  0.2619  0.0691
  102MOL   C36340965   4.376   7.042   6.887 -0.4254 -0.2768  0.5680
  102MOL   C36440966   4.421   6.961   6.990 -0.4266  0.0093  0.1797
  102MOL   C36540967   4.502   7.010   7.093  0.1168 -0.2591  0.8220
  102MOL   C36640968   4.562   7.140   7.084  0.7639  0.5337 -0.2733
  102MOL   O36740969   4.655   7.168   7.178  0.4753 -0.3917 -0.0356
  102MOL   C36840970   4.718   7.296   7.169 -0.6047  0.0172 -0.3398
  102MOL   C36940971   4.522   7.218   6.975  0.1895  0.0619  0.0148
  102MOL   C37040972   4.430   7.171   6.883  0.6830 -0.0362  1.1030
  102MOL   C37140973   4.347   6.932   6.662  0.0967 -1.4406 -0.1913
  102MOL   H37240974   4.234   6.909   6.843  0.0273 -0.5298 -0.7313
  102MOL   H37340975   4.388   6.858   6.982 -0.8600  0.1147  0.6015
  102MOL   H37440976   4.527   6.944   7.175 -1.9422 -1.7288  0.2963
  102MOL   H37540977   4.791   7.299   7.088  0.9275 -1.5563  0.9428
  102MOL   H37640978   4.652   7.383   7.175 -0.4832  0.0111  1.2442
  102MOL   H37740979   4.780   7.303   7.259 -0.9844  0.7477 -0.1276
  102MOL   H37840980   4.561   7.318   6.961  0.8104 -0.0786  0.7518
  102MOL   H37940981   4.393   7.235   6.804 -0.2435 -2.2815 -0.3171
  102MOL   H38040982   4.383   7.014   6.600  1.4808 -1.6214  0.3277
  102MOL   H38140983   4.439   6.878   6.687  0.9965  0.2487  0.2496
  102MOL   C38240984   4.258   6.835   6.581  0.0567 -0.4996 -0.6133
  102MOL   C38340985   4.203   6.719   6.669  0.1938  0.4873  0.4876
  102MOL   C38440986   4.294   6.634   6.744  0.3887  0.4104  0.2732
  102MOL   C38540987   4.237   6.533   6.832 -0.1501 -0.3468 -0.3548
  102MOL   C38640988   4.098   6.524   6.845  0.2398  0.2410 -0.7947
  102MOL   O38740989   4.032   6.437   6.927  0.0795  0.2758  0.4029
  102MOL   C38840990   4.090   6.402   7.048  0.3172 -0.2463 -0.8171
  102MOL   C38940991   4.017   6.614   6.778  1.0528  0.6915 -0.9641
  102MOL   C39040992   4.068   6.708   6.687 -0.2818 -0.1999  0.9427
  102MOL   C39140993   4.350   6.768   6.477 -0.1955 -0.6281 -0.1639
  102MOL   H39240994   4.167   6.879   6.540 -0.8697 -0.8404  1.0563
  102MOL   H39340995   4.400   6.652   6.733  0.2068  1.0791 -0.4105
  102MOL   H39440996   4.306   6.465   6.879  0.5314 -1.6073 -3.0498
  102MOL   H39540997   4.123   6.496   7.094  0.8188  0.1929 -2.0697
  102MOL   H39640998   4.181   6.342   7.044  0.0225 -0.6441 -1.5995
  102MOL   H39740999   4.019   6.362   7.121  3.0248 -2.0477  0.9627
  102MOL   H39841000   3.911   6.610   6.800  1.1827  1.2936 -0.1872
  102MOL   H39941001   4.005   6.772   6.626  1.0224 -0.2272 -0.4634
  102MOL   H40041002   4.423   6.703   6.525  0.2262 -0.0337  0.0115
  102MOL   H40141003   4.395   6.853   6.426 -1.3822  1.7804  2.6768
  102MOL   H40241004   4.291   6.709   6.407  0.1510 -0.5755 -0.4982
  103MOL     C141005   6.561   1.279   2.466 -0.4557 -0.4147  0.2445
  103MOL     C241006   6.551   1.420   2.412 -0.2033  0.0307  0.0500
  103MOL     C341007   6.668   1.496   2.381  0.5033 -0.4194 -0.0364
  103MOL     C441008   6.658   1.631   2.356  0.1729  0.4925 -0.2464
  103MOL     C541009   6.533   1.702   2.346 -0.0112 -0.5487 -0.3271
  103MOL     O641010   6.521   1.836   2.319  0.2587 -0.2502  0.2729
  103MOL     C741011   6.638   1.921   2.321  0.3033  0.6435 -0.1398
  103MOL     C841012   6.420   1.620   2.371  0.3354  0.2457 -0.3496
  103MOL     C941013   6.425   1.483   2.418  0.8586 -0.8191 -0.2339
  103MOL    C1041014   6.476   1.173   2.398  0.0295  0.8022  0.3776
  103MOL    H1141015   6.541   1.280   2.573  3.1715  1.6413  0.9962
  103MOL    H1241016   6.760   1.440   2.370 -0.6005 -2.2931 -0.0646
  103MOL    H1341017   6.751   1.686   2.351 -1.4455  3.3575 -0.1678
  103MOL    H1441018   6.704   1.912   2.235  0.4348  0.9879 -0.0742
  103MOL    H1541019   6.604   2.024   2.318  0.4821  0.6544 -2.5283
  103MOL    H1641020   6.699   1.903   2.410 -1.7015 -1.6226  0.8373
  103MOL    H1741021   6.323   1.668   2.380 -0.5186 -1.6291  0.9165
  103MOL    H1841022   6.334   1.432   2.446  0.9702 -1.2073 -0.5769
  103MOL    H1941023   6.512   1.080   2.444  0.6056 -0.5227 -2.6071
  103MOL    H2041024   6.374   1.172   2.437 -0.7912 -0.0701 -1.7405
  103MOL    H2141025   6.666   1.250   2.460 -0.6825 -1.2568  0.3152
  103MOL    C2241026   6.461   1.169   2.240 -0.1993 -0.3779 -0.2458
  103MOL    C2341027   6.601   1.192   2.186 -0.4600 -0.5583 -0.6561
  103MOL    C2441028   6.623   1.281   2.082  0.4401  0.7637  0.4739
  103MOL    C2541029   6.750   1.310   2.032  0.2232  0.2543  0.9564
  103MOL    C2641030   6.865   1.249   2.090  0.0822  0.4943 -0.8626
  103MOL    O2741031   6.993   1.283   2.052 -0.6411 -0.5239 -0.0842
  103MOL    C2841032   7.109   1.241   2.129 -0.4280  0.1014  0.2631
  103MOL    C2941033   6.840   1.149   2.188  0.1315  0.1118 -0.2154
  103MOL    C3041034   6.711   1.115   2.236  0.5002  0.1011  0.2264
  103MOL    C3141035   6.387   1.039   2.195 -0.2964 -0.1714  0.5196
  103MOL    H3241036   6.403   1.257   2.213 -0.1476 -1.0540 -2.6154
  103MOL    H3341037   6.543   1.343   2.042  0.6333  1.1176  0.6355
  103MOL    H3441038   6.769   1.389   1.961  0.8109 -0.0806  0.7384
  103MOL    H3541039   7.089   1.224   2.235  1.8977  1.5571  0.9626
  103MOL    H3641040   7.168   1.333   2.135  0.5167 -0.4298 -0.6847
  103MOL    H3741041   7.169   1.157   2.093  1.0379  2.0497 -1.9325
  103MOL    H3841042   6.922   1.086   2.218  0.7798  1.1357  0.2307
  103MOL    H3941043   6.702   1.031   2.304 -1.3943 -0.4693 -0.6914
  103MOL    H4041044   6.457   0.958   2.213 -0.1633  0.2251  1.8268
  103MOL    H4141045   6.301   1.027   2.261  0.0130  0.3672  1.0250
  103MOL    C4241046   6.324   1.038   2.055  0.1636  0.0478 -0.1977
  103MOL    C4341047   6.176   1.006   2.057 -0.0722 -0.9301 -0.0783
  103MOL    C4441048   6.138   0.879   2.114 -0.0702 -0.6284 -0.2341
  103MOL    C4541049   6.000   0.847   2.111  0.1894 -0.1689 -0.2842
  103MOL    C4641050   5.900   0.936   2.071 -0.0570  0.3051 -0.1522
  103MOL    O4741051   5.774   0.882   2.069 -0.1286 -0.3579 -0.6043
  103MOL    C4841052   5.667   0.973   2.091 -1.3325  0.0686  0.8487
  103MOL    C4941053   5.939   1.067   2.018 -0.4130  0.7460 -0.2875
  103MOL    C5041054   6.078   1.098   2.011  0.3240 -0.5283 -0.1885
  103MOL    C5141055   6.404   0.959   1.956 -0.2588 -0.1449  0.5802
  103MOL    H5241056   6.330   1.143   2.027 -1.4199  1.3801  3.9988
  103MOL    H5341057   6.208   0.807   2.154 -0.9144 -0.2151  2.0846
  103MOL    H5441058   5.972   0.749   2.148  1.5583 -0.6037 -0.3783
  103MOL    H5541059   5.697   1.062   2.148  1.8798 -2.4790  3.3098
  103MOL    H5641060   5.638   1.004   1.991  0.2561  0.0271  0.3691
  103MOL    H5741061   5.584   0.927   2.145 -0.6918 -3.6901 -1.2171
  103MOL    H5841062   5.871   1.145   1.985 -1.2994 -0.0837 -0.4564
  103MOL    H5941063   6.119   1.191   1.975 -4.6528  0.8260 -2.8394
  103MOL    H6041064   6.411   0.854   1.985  1.3981 -0.1274  0.3241
  103MOL    H6141065   6.506   0.997   1.951  0.2298 -1.3707  0.9634
  103MOL    C6241066   6.341   0.953   1.810  0.2608  0.3749 -0.7134
  103MOL    C6341067   6.400   0.835   1.728 -0.2052 -1.0722  0.5514
  103MOL    C6441068   6.515   0.854   1.649  0.2072 -0.9529 -0.5680
  103MOL    C6541069   6.553   0.748   1.564 -0.4313  0.3192 -0.0297
  103MOL    C6641070   6.495   0.622   1.574 -0.0595 -0.8529  0.3241
  103MOL    O6741071   6.539   0.513   1.494  0.0368  0.1832 -0.5573
  103MOL    C6841072   6.443   0.469   1.403 -0.2735 -0.1313 -0.1809
  103MOL    C6941073   6.389   0.604   1.666  0.8526  0.5028  0.5480
  103MOL    C7041074   6.339   0.710   1.738 -0.0299 -0.2734 -0.4438
  103MOL    C7141075   6.347   1.085   1.742  0.3012  0.1666  0.1633
  103MOL    H7241076   6.240   0.914   1.821  0.3921  0.0694 -0.5833
  103MOL    H7341077   6.572   0.945   1.649 -0.0810 -0.7645  1.0231
  103MOL    H7441078   6.637   0.775   1.501  0.3104 -0.3299  0.6583
  103MOL    H7541079   6.495   0.435   1.313  0.5211  1.8365 -0.4843
  103MOL    H7641080   6.388   0.557   1.370 -0.8696 -0.5285 -0.2522
  103MOL    H7741081   6.383   0.387   1.442 -0.9244  0.3614 -0.1450
  103MOL    H7841082   6.337   0.509   1.666  2.5656 -0.4794 -0.6495
  103MOL    H7941083   6.258   0.698   1.808  0.2923  1.7551  0.3161
  103MOL    H8041084   6.310   1.163   1.808  0.4621  0.1767  0.2409
  103MOL    H8141085   6.451   1.116   1.736  0.1592  0.7102  0.4281
  103MOL    C8241086   6.280   1.095   1.608 -0.9179  0.2932 -0.8216
  103MOL    C8341087   6.140   1.039   1.612 -0.7482 -0.2119  0.4047
  103MOL    C8441088   6.032   1.100   1.675 -0.2643 -1.1323  0.6859
  103MOL    C8541089   5.902   1.046   1.658 -0.3931  1.2307  0.1107
  103MOL    C8641090   5.880   0.917   1.590 -0.8390  0.4421  0.1578
  103MOL    O8741091   5.758   0.855   1.576  0.2183 -0.4151  0.3930
  103MOL    C8841092   5.643   0.915   1.634  0.2335 -0.3659  0.4744
  103MOL    C8941093   5.994   0.855   1.539  0.2146  0.5371  0.1894
  103MOL    C9041094   6.118   0.915   1.550  0.4646  0.0660  0.4571
  103MOL    C9141095   6.277   1.238   1.550  0.3382 -0.6538 -0.0454
  103MOL    H9241096   6.340   1.053   1.527  0.2122  2.2201 -1.0254
  103MOL    H9341097   6.050   1.193   1.726 -1.1056 -0.6392  0.0932
  103MOL    H9441098   5.820   1.094   1.708 -0.2978 -0.5737  2.0555
  103MOL    H9541099   5.569   0.853   1.582 -0.2849  1.7507 -1.3713
  103MOL    H9641100   5.613   1.012   1.595 -0.9763 -1.5287 -1.6173
  103MOL    H9741101   5.633   0.899   1.741  1.7758  1.0175  0.8431
  103MOL    H9841102   5.984   0.759   1.491 -2.4501 -0.1606  2.0036
  103MOL    H9941103   6.188   0.851   1.498 -1.4383 -1.2293 -0.5765
  103MOL   H10041104   6.229   1.230   1.452  0.5217  3.1336 -0.5086
  103MOL   H10141105   6.208   1.295   1.612 -0.5191 -2.2793  0.5537
  103MOL   C10241106   6.409   1.314   1.535  0.6024 -0.0001 -0.0202
  103MOL   C10341107   6.502   1.234   1.437 -0.0400 -0.1984 -0.0648
  103MOL   C10441108   6.613   1.166   1.495 -0.6113  0.1715 -0.5603
  103MOL   C10541109   6.699   1.086   1.413 -0.3553 -0.0360 -0.2615
  103MOL   C10641110   6.669   1.074   1.273 -0.2613 -0.0886 -0.7961
  103MOL   O10741111   6.733   0.996   1.183 -0.0685  0.5085  0.6934
  103MOL   C10841112   6.875   0.969   1.211  0.3432  0.6130  0.0273
  103MOL   C10941113   6.548   1.136   1.219 -0.4428  0.0332  0.5371
  103MOL   C11041114   6.464   1.209   1.303  0.4014  0.1845  0.2248
  103MOL   C11141115   6.408   1.460   1.502 -0.8200 -0.2787  0.3681
  103MOL   H11241116   6.447   1.309   1.637 -1.0491 -1.0213  0.5593
  103MOL   H11341117   6.644   1.170   1.598  1.1039 -1.9802 -0.9586
  103MOL   H11441118   6.783   1.037   1.461 -0.5982 -1.5321 -1.3413
  103MOL   H11541119   6.878   0.890   1.285  1.7696 -0.6944 -1.3877
  103MOL   H11641120   6.939   0.938   1.128  2.4108  1.2257  1.3525
  103MOL   H11741121   6.919   1.054   1.263 -0.6158 -0.2900  2.3766
  103MOL   H11841122   6.505   1.122   1.121  0.1205 -1.2315  0.4661
  103MOL   H11941123   6.370   1.248   1.266  0.2591 -0.8024 -0.4592
  103MOL   H12041124   6.483   1.490   1.429 -2.2703  1.9477 -0.2299
  103MOL   H12141125   6.307   1.488   1.475 -0.1054  0.6629 -1.3812
  103MOL   C12241126   6.440   1.555   1.614  0.3772 -1.0057  0.3303
  103MOL   C12341127   6.329   1.553   1.722 -0.1081  0.1135 -0.3606
  103MOL   C12441128   6.360   1.511   1.847 -0.0734 -0.0177 -0.3240
  103MOL   C12541129   6.266   1.496   1.949  0.7181  0.6693 -0.6247
  103MOL   C12641130   6.125   1.520   1.920  0.1534  0.5380 -0.4256
  103MOL   O12741131   6.033   1.514   2.015 -0.2900 -0.6228  0.1908
  103MOL   C12841132   5.898   1.523   1.982 -0.3500 -0.2186 -0.4648
  103MOL   C12941133   6.095   1.572   1.791  0.4595 -0.3367 -0.0074
  103MOL   C13041134   6.195   1.579   1.693 -0.2844 -0.4121  0.5770
  103MOL   C13141135   6.467   1.705   1.570  0.0423  0.8358  0.2096
  103MOL   H13241136   6.536   1.533   1.661 -0.1175 -3.4105  0.2791
  103MOL   H13341137   6.463   1.489   1.870 -0.2810 -0.4032  0.2552
  103MOL   H13441138   6.301   1.467   2.047  0.0132  2.2941  0.1188
  103MOL   H13541139   5.861   1.470   1.894 -1.3416  1.0379 -0.8337
  103MOL   H13641140   5.852   1.475   2.068  0.3359 -0.4565 -0.2315
  103MOL   H13741141   5.863   1.627   1.974  0.9610  0.3343  0.7739
  103MOL   H13841142   5.991   1.579   1.765  0.2161 -0.9051  0.8005
  103MOL   H13941143   6.166   1.608   1.593 -0.1203  1.4878  1.0497
  103MOL   H14041144   6.379   1.734   1.511 -0.1076 -0.0410 -0.0022
  103MOL   H14141145   6.549   1.714   1.498 -1.3947 -1.9945 -1.8644
  103MOL   C14241146   6.490   1.809   1.681 -0.2418  0.1033  0.1995
  103MOL   C14341147   6.609   1.778   1.765  0.3157 -0.3496  0.7381
  103MOL   C14441148   6.741   1.794   1.714 -0.4157  0.4272 -0.2861
  103MOL   C14541149   6.852   1.771   1.794 -0.4947  0.2171  0.1491
  103MOL   C14641150   6.834   1.729   1.934 -0.0503 -0.3435 -0.4049
  103MOL   O14741151   6.947   1.689   2.005  0.3974 -0.0140 -0.2255
  103MOL   C14841152   6.931   1.653   2.135 -0.3717  0.3252 -0.2049
  103MOL   C14941153   6.706   1.731   1.982 -0.0474 -0.4395 -0.7680
  103MOL   C15041154   6.594   1.752   1.905  0.4300  0.0951  0.4443
  103MOL   C15141155   6.488   1.955   1.624  0.5492 -0.1369 -0.8871
  103MOL   H15241156   6.409   1.804   1.753  0.9124  0.5682  1.5496
  103MOL   H15341157   6.757   1.806   1.608  0.1782 -0.7880 -0.3419
  103MOL   H15441158   6.949   1.786   1.750  0.6037 -1.3534  2.0059
  103MOL   H15541159   6.894   1.734   2.197  1.4337  0.6896  0.4161
  103MOL   H15641160   6.862   1.570   2.146 -0.9829  0.7696 -0.6287
  103MOL   H15741161   7.024   1.636   2.189  0.2406  0.6460 -1.1342
  103MOL   H15841162   6.685   1.716   2.087 -0.2128 -2.0509 -1.0169
  103MOL   H15941163   6.497   1.752   1.953  1.0655  0.6057  1.7544
  103MOL   H16041164   6.572   1.967   1.555  2.2741 -1.0278  1.0111
  103MOL   H16141165   6.490   2.019   1.712  0.9532 -2.3407  0.7249
  103MOL   C16241166   6.357   1.998   1.551 -0.6922  0.6260  0.1437
  103MOL   C16341167   6.360   1.968   1.403 -0.0226  0.1753  0.1793
  103MOL   C16441168   6.475   1.991   1.320 -0.7465  0.1090 -0.1258
  103MOL   C16541169   6.463   1.975   1.182 -0.6653 -0.7064 -0.4908
  103MOL   C16641170   6.345   1.929   1.121 -1.0903  0.2978 -0.0970
  103MOL   O16741171   6.351   1.935   0.989  0.4303  0.0119  0.1264
  103MOL   C16841172   6.239   1.890   0.932  0.1405 -0.4527  0.2059
  103MOL   C16941173   6.237   1.891   1.202  0.5986  0.1057  0.0975
  103MOL   C17041174   6.247   1.910   1.340 -0.3143  0.4361  0.0800
  103MOL   C17141175   6.324   2.145   1.570 -0.4641  0.6395 -0.5853
  103MOL   H17241176   6.287   1.937   1.608 -0.9642 -0.4104 -1.2642
  103MOL   H17341177   6.568   2.025   1.363 -0.7003 -0.1792  0.0009
  103MOL   H17441178   6.548   1.991   1.117 -0.4651 -0.0381 -0.0680
  103MOL   H17541179   6.213   1.789   0.964 -0.8845 -0.4394 -0.5186
  103MOL   H17641180   6.253   1.872   0.825  1.1157  1.5590 -0.0365
  103MOL   H17741181   6.152   1.954   0.948 -1.3785 -2.7878  1.5096
  103MOL   H17841182   6.147   1.853   1.156  0.4956  0.1532  0.2580
  103MOL   H17941183   6.168   1.888   1.410 -2.9436  0.9122 -2.6418
  103MOL   H18041184   6.238   2.164   1.505 -1.0969  2.6373  0.7530
  103MOL   H18141185   6.413   2.205   1.551 -0.5610  1.2765  0.8860
  103MOL   C18241186   6.268   2.168   1.717 -0.2521  0.2362  0.7907
  103MOL   C18341187   6.145   2.089   1.747  0.1855 -0.4794 -0.1960
  103MOL   C18441188   6.025   2.111   1.677 -0.0135  0.1485  0.5884
  103MOL   C18541189   5.906   2.040   1.712 -0.3655  0.1530  0.6276
  103MOL   C18641190   5.919   1.933   1.811  0.0075 -0.5275  0.3466
  103MOL   O18741191   5.809   1.869   1.858  0.4523 -1.0288 -0.3516
  103MOL   C18841192   5.686   1.927   1.835  0.1674 -0.9595 -0.6990
  103MOL   C18941193   6.040   1.914   1.879  0.2443  0.1387  0.7120
  103MOL   C19041194   6.149   1.988   1.841  0.1767 -0.6330 -0.1240
  103MOL   C19141195   6.245   2.316   1.748  0.7451 -0.7003 -0.2869
  103MOL   H19241196   6.346   2.135   1.786 -1.0360  0.1733  1.6618
  103MOL   H19341197   6.014   2.197   1.613  0.8068  0.4304  0.8315
  103MOL   H19441198   5.820   2.047   1.648 -0.4594  0.3244  0.7719
  103MOL   H19541199   5.664   1.947   1.730 -2.2227 -3.4560 -0.7137
  103MOL   H19641200   5.669   2.022   1.886 -0.0119 -0.6591 -1.3102
  103MOL   H19741201   5.605   1.875   1.886  1.6898 -1.6354  1.1212
  103MOL   H19841202   6.054   1.844   1.960 -0.1903 -0.5567  0.2029
  103MOL   H19941203   6.243   1.966   1.888 -0.0989 -0.6791  0.4091
  103MOL   H20041204   6.191   2.369   1.670 -0.9142 -1.1775  0.5077
  103MOL   H20141205   6.180   2.323   1.835  2.7885 -0.4696  1.2504
  103MOL   C20241206   6.369   2.401   1.763 -0.4654  0.2413  0.5087
  103MOL   C20341207   6.461   2.344   1.872 -0.6474  0.3449  0.5114
  103MOL   C20441208   6.598   2.310   1.841  0.7228  0.8019 -0.3467
  103MOL   C20541209   6.683   2.253   1.938  0.2199  0.2996  0.0759
  103MOL   C20641210   6.638   2.234   2.070  0.1588  0.9264 -0.7682
  103MOL   O20741211   6.711   2.204   2.185 -0.7667 -0.2560 -0.5226
  103MOL   C20841212   6.848   2.160   2.168 -0.9058  0.1219 -0.0708
  103MOL   C20941213   6.503   2.263   2.102  0.6505 -0.4018 -0.0749
  103MOL   C21041214   6.418   2.320   2.006 -0.4781 -0.2465 -0.1038
  103MOL   C21141215   6.338   2.550   1.794  0.1327 -0.6133 -0.3177
  103MOL   H21241216   6.434   2.401   1.676 -0.1467 -3.3378  0.6966
  103MOL   H21341217   6.635   2.337   1.743  1.1259  0.8045 -0.1980
  103MOL   H21441218   6.782   2.218   1.910  0.6621  0.1771  1.7289
  103MOL   H21541219   6.886   2.093   2.245  3.5686 -0.5602 -2.6895
  103MOL   H21641220   6.880   2.116   2.074  1.1315 -0.1453  0.7144
  103MOL   H21741221   6.907   2.252   2.173 -1.2018  0.3120 -0.0779
  103MOL   H21841222   6.472   2.239   2.202 -0.6717 -2.1038 -0.8628
  103MOL   H21941223   6.317   2.342   2.037 -0.2194 -1.1931  1.4865
  103MOL   H22041224   6.421   2.582   1.858 -0.9230  2.8129 -0.5924
  103MOL   H22141225   6.247   2.556   1.853 -0.0305 -0.1922 -0.6100
  103MOL   C22241226   6.337   2.648   1.671  0.0776  0.1714 -0.7447
  103MOL   C22341227   6.245   2.606   1.556  0.2796  0.3022 -0.0555
  103MOL   C22441228   6.295   2.521   1.451  0.1887 -0.4881 -0.3595
  103MOL   C22541229   6.215   2.482   1.343 -0.4518  0.3654 -0.4352
  103MOL   C22641230   6.073   2.517   1.338 -1.1095  0.3187 -0.3413
  103MOL   O22741231   5.989   2.477   1.232 -0.1101 -0.5976  0.0310
  103MOL   C22841232   6.025   2.347   1.174 -0.3555  0.2687  0.7169
  103MOL   C22941233   6.021   2.596   1.440  0.8395  0.6379 -0.4749
  103MOL   C23041234   6.106   2.649   1.540  0.1261  0.2364  0.1815
  103MOL   C23141235   6.315   2.793   1.715  0.4228 -0.1105 -0.5222
  103MOL   H23241236   6.437   2.640   1.628 -0.7112 -2.7512 -2.1635
  103MOL   H23341237   6.390   2.472   1.464 -1.0990 -2.8548  0.4625
  103MOL   H23441238   6.254   2.421   1.262  0.9087 -0.4267  0.7906
  103MOL   H23541239   6.053   2.274   1.249  0.3977 -0.0756  0.1145
  103MOL   H23641240   5.937   2.312   1.121 -0.7601  1.7596  0.3669
  103MOL   H23741241   6.100   2.345   1.095 -0.9848 -0.8340  0.1347
  103MOL   H23841242   5.914   2.616   1.435  0.7034  0.3521  0.9052
  103MOL   H23941243   6.070   2.713   1.620 -0.1958 -0.7727  0.8526
  103MOL   H24041244   6.264   2.840   1.631  1.5821 -1.6546 -2.1321
  103MOL   H24141245   6.240   2.793   1.794  0.2228 -1.4670 -0.7150
  103MOL   C24241246   6.436   2.887   1.753  0.0407  0.5221 -0.2368
  103MOL   C24341247   6.561   2.878   1.658  0.5787 -0.6114  0.2319
  103MOL   C24441248   6.669   2.796   1.679 -0.0346  0.1629 -0.2186
  103MOL   C24541249   6.776   2.788   1.593 -0.4914 -0.0893  0.0238
  103MOL   C24641250   6.783   2.879   1.484  0.4476 -0.2088 -0.2659
  103MOL   O24741251   6.901   2.868   1.403  0.5045  0.4143  0.1108
  103MOL   C24841252   6.928   2.977   1.312  0.1407  0.4613  1.0243
  103MOL   C24941253   6.684   2.969   1.457  0.7111  0.4917  0.0632
  103MOL   C25041254   6.578   2.972   1.549  0.6500 -0.6912  0.0497
  103MOL   C25141255   6.402   3.037   1.786  0.6622  0.1945  0.2355
  103MOL   H25241256   6.467   2.839   1.846 -1.3716  1.8708  0.9477
  103MOL   H25341257   6.667   2.721   1.757  0.6411 -0.9048 -1.2038
  103MOL   H25441258   6.854   2.717   1.611  0.4972  1.3934  1.7426
  103MOL   H25541259   6.917   3.064   1.376 -0.2858  2.0875 -1.2030
  103MOL   H25641260   7.034   2.969   1.285  0.4058  0.7699  1.9523
  103MOL   H25741261   6.858   2.974   1.228  1.1139 -0.1980  0.2164
  103MOL   H25841262   6.686   3.039   1.375  1.5399 -0.7402 -0.9875
  103MOL   H25941263   6.498   3.043   1.533  2.0663  0.7470 -0.8113
  103MOL   H26041264   6.337   3.077   1.707 -0.6161 -1.3378  0.4819
  103MOL   H26141265   6.490   3.101   1.789  0.6309  0.1753  1.6468
  103MOL   C26241266   6.331   3.071   1.917  0.2075 -0.7817  1.0413
  103MOL   C26341267   6.266   3.206   1.899 -0.3793 -0.0985 -0.6460
  103MOL   C26441268   6.134   3.200   1.851 -0.6236  0.1857 -0.2331
  103MOL   C26541269   6.067   3.318   1.806 -0.5751 -0.3641  0.1500
  103MOL   C26641270   6.134   3.443   1.830 -0.0868 -0.0931  0.5007
  103MOL   O26741271   6.071   3.566   1.800 -0.0205 -0.4305 -0.5171
  103MOL   C26841272   5.960   3.566   1.714  0.1225 -0.0137  0.1930
  103MOL   C26941273   6.265   3.447   1.877 -0.2234 -0.5187  0.6323
  103MOL   C27041274   6.326   3.330   1.920 -0.1260  0.1119 -0.5420
  103MOL   C27141275   6.408   3.066   2.047 -1.0354 -0.5220  0.6701
  103MOL   H27241276   6.255   2.993   1.918  0.8421 -1.4413 -0.6048
  103MOL   H27341277   6.095   3.101   1.835 -1.7920  0.9154 -2.0907
  103MOL   H27441278   5.970   3.324   1.758 -0.0917  1.0649 -0.6791
  103MOL   H27541279   5.995   3.518   1.623 -2.0501 -1.3657  0.0335
  103MOL   H27641280   5.935   3.672   1.699 -3.1036 -0.8515 -0.7619
  103MOL   H27741281   5.870   3.524   1.759  0.0153 -0.2725 -0.2613
  103MOL   H27841282   6.298   3.550   1.886 -2.4927  0.3438 -0.6152
  103MOL   H27941283   6.431   3.334   1.944 -0.9982  3.4679  3.2056
  103MOL   H28041284   6.510   3.097   2.020 -0.5656 -1.5904  1.1828
  103MOL   H28141285   6.375   3.140   2.120 -1.0623  1.0941 -0.9469
  103MOL   C28241286   6.409   2.932   2.113  0.7041  0.2504 -0.3167
  103MOL   C28341287   6.279   2.864   2.137  0.3473 -0.3367 -0.0399
  103MOL   C28441288   6.166   2.939   2.184 -0.1271 -0.0807 -0.0952
  103MOL   C28541289   6.042   2.877   2.205 -0.7281  0.3901  0.3108
  103MOL   C28641290   6.031   2.737   2.185 -0.3563  0.7438  0.2791
  103MOL   O28741291   5.920   2.668   2.214 -0.1488  0.3213  0.1654
  103MOL   C28841292   5.796   2.747   2.228 -0.3709  0.0169  0.0479
  103MOL   C28941293   6.144   2.658   2.143 -0.4644  0.7112 -0.4827
  103MOL   C29041294   6.263   2.725   2.114  0.0464  0.0587 -0.2016
  103MOL   C29141295   6.487   2.948   2.246 -0.3463 -0.2223 -0.4790
  103MOL   H29241296   6.468   2.876   2.040  0.8747  0.6838 -0.5110
  103MOL   H29341297   6.182   3.044   2.200  0.6804 -0.2251  0.1035
  103MOL   H29441298   5.967   2.937   2.254 -1.2901  0.6752 -0.8936
  103MOL   H29541299   5.770   2.813   2.146 -2.5771 -2.6059 -1.4458
  103MOL   H29641300   5.708   2.683   2.235 -1.2873  1.3011  0.3545
  103MOL   H29741301   5.812   2.804   2.320  2.0586 -0.2932 -0.1366
  103MOL   H29841302   6.121   2.553   2.129  1.1435 -0.0057  2.0669
  103MOL   H29941303   6.351   2.666   2.094 -0.9064 -1.3704 -0.2169
  103MOL   H30041304   6.571   3.017   2.243 -0.3575 -0.2316 -1.0678
  103MOL   H30141305   6.429   2.987   2.329 -0.8678  0.2697 -1.0685
  103MOL   C30241306   6.564   2.817   2.297  0.5659  0.1851  0.8518
  103MOL   C30341307   6.671   2.775   2.199 -0.4487  0.0506  0.1239
  103MOL   C30441308   6.770   2.863   2.152  0.4959 -0.0998 -0.0128
  103MOL   C30541309   6.848   2.820   2.042 -0.1697 -0.2554  0.1528
  103MOL   C30641310   6.851   2.691   1.990 -0.3420  1.3726 -0.1267
  103MOL   O30741311   6.928   2.632   1.898  0.4055  0.0858 -0.1777
  103MOL   C30841312   7.020   2.713   1.825  0.4631  0.3407  0.2091
  103MOL   C30941313   6.757   2.603   2.043 -0.1066  0.2643  0.7128
  103MOL   C31041314   6.666   2.642   2.144  0.5200 -0.4055  0.3060
  103MOL   C31141315   6.622   2.836   2.438  0.0014  0.2972  0.9487
  103MOL   H31241316   6.484   2.743   2.293  0.5335  0.2984 -1.0408
  103MOL   H31341317   6.765   2.968   2.173 -0.0488 -0.0611 -0.3275
  103MOL   H31441318   6.915   2.890   1.993  0.6784  0.5889  2.4224
  103MOL   H31541319   7.076   2.656   1.751 -1.8343 -0.5814 -0.8740
  103MOL   H31641320   7.085   2.759   1.900  0.5436 -0.2613  0.5081
  103MOL   H31741321   6.961   2.794   1.782 -0.8838 -1.7413 -1.9751
  103MOL   H31841322   6.748   2.502   2.005 -1.0170  0.1319  1.2727
  103MOL   H31941323   6.589   2.570   2.169  1.2682 -0.9718  0.9945
  103MOL   H32041324   6.589   2.932   2.478 -2.6732  0.0073 -0.4050
  103MOL   H32141325   6.730   2.838   2.432  0.0461  1.7048  2.0151
  103MOL   C32241326   6.574   2.718   2.523 -0.2808  0.9444 -0.2532
  103MOL   C32341327   6.564   2.756   2.667 -0.3376  0.2687  0.2826
  103MOL   C32441328   6.659   2.836   2.733  0.0617 -0.1942  0.0869
  103MOL   C32541329   6.634   2.874   2.863 -0.2539 -0.2317  0.0394
  103MOL   C32641330   6.523   2.827   2.935 -0.1179  0.2487 -0.4082
  103MOL   O32741331   6.503   2.870   3.063  0.0512 -0.6456  0.5615
  103MOL   C32841332   6.380   2.936   3.098 -0.3833 -0.3775 -0.1322
  103MOL   C32941333   6.423   2.756   2.867 -0.5490 -0.4217  0.2497
  103MOL   C33041334   6.445   2.721   2.732  1.1616 -0.0896  0.1397
  103MOL   C33141335   6.680   2.606   2.515  0.3108  0.1599 -0.1011
  103MOL   H33241336   6.474   2.690   2.489 -0.0101  1.0777 -1.1904
  103MOL   H33341337   6.748   2.879   2.690  0.4999 -0.1325  1.0463
  103MOL   H33441338   6.698   2.948   2.908 -0.1476 -0.2568 -0.0694
  103MOL   H33541339   6.359   3.016   3.027 -0.4175  0.2471  0.5669
  103MOL   H33641340   6.389   2.994   3.190  0.5828  0.6012 -0.8244
  103MOL   H33741341   6.291   2.874   3.095 -2.0690  1.8912  1.1751
  103MOL   H33841342   6.340   2.722   2.928 -1.8682 -0.5930 -1.6104
  103MOL   H33941343   6.364   2.679   2.675  1.9072 -0.1549 -0.8772
  103MOL   H34041344   6.706   2.603   2.409  0.1979  0.9081 -0.1513
  103MOL   H34141345   6.758   2.640   2.582 -1.4003  1.3130  1.3287
  103MOL   C34241346   6.634   2.462   2.554 -0.5260 -0.5435 -0.1378
  103MOL   C34341347   6.759   2.369   2.566  0.6026  0.2585 -0.6170
  103MOL   C34441348   6.871   2.379   2.486 -0.9660 -0.3288  0.1565
  103MOL   C34541349   6.981   2.294   2.505 -0.1392 -0.4834  0.3960
  103MOL   C34641350   6.979   2.193   2.604  0.1186 -0.0040 -0.0476
  103MOL   O34741351   7.081   2.102   2.627  0.0646 -0.1124  0.0105
  103MOL   C34841352   7.166   2.072   2.518 -0.0122 -0.4224 -0.0431
  103MOL   C34941353   6.866   2.192   2.687 -0.4592 -0.0022 -0.6977
  103MOL   C35041354   6.761   2.279   2.676  0.8047  0.4602  0.5720
  103MOL   C35141355   6.512   2.408   2.474 -0.1161  0.0216 -0.1516
  103MOL   H35241356   6.585   2.465   2.651 -0.8242 -0.8780 -0.2743
  103MOL   H35341357   6.880   2.447   2.402 -1.5879  0.5981  0.8371
  103MOL   H35441358   7.065   2.308   2.439 -1.7739 -0.6671 -1.7794
  103MOL   H35541359   7.240   1.999   2.550  2.0912  2.2236  1.3688
  103MOL   H35641360   7.113   2.035   2.431  0.6518 -3.1693  0.6800
  103MOL   H35741361   7.215   2.166   2.493 -1.4974  0.5995  0.7995
  103MOL   H35841362   6.884   2.115   2.761  0.8646  0.7447 -0.2106
  103MOL   H35941363   6.678   2.264   2.743 -1.2326  2.6928 -1.3614
  103MOL   H36041364   6.456   2.484   2.420 -2.5537 -1.0995  0.7176
  103MOL   H36141365   6.545   2.349   2.388  0.4817 -1.0451  0.7935
  103MOL   C36241366   6.415   2.301   2.547  0.2155  0.3360 -0.3473
  103MOL   C36341367   6.321   2.250   2.446  0.9060 -0.2385 -0.0702
  103MOL   C36441368   6.223   2.330   2.382 -0.3080 -0.3545 -0.3710
  103MOL   C36541369   6.114   2.274   2.311 -0.1305  0.5214 -0.0561
  103MOL   C36641370   6.112   2.133   2.273 -0.2344 -0.2297  0.4379
  103MOL   O36741371   6.018   2.081   2.187  0.1032 -0.2768 -0.1752
  103MOL   C36841372   5.923   2.163   2.123 -0.0339 -0.5570  1.2051
  103MOL   C36941373   6.218   2.057   2.318  0.6439  0.1809  0.1164
  103MOL   C37041374   6.319   2.111   2.410  0.3643 -0.9406  0.2930
  103MOL   C37141375   6.343   2.369   2.671  0.0623  0.0054  0.2644
  103MOL   H37241376   6.475   2.214   2.573  0.0823  0.8825  1.9767
  103MOL   H37341377   6.217   2.436   2.402 -0.0809 -0.3964 -0.0862
  103MOL   H37441378   6.047   2.342   2.261 -0.3537  0.8480  0.6732
  103MOL   H37541379   5.867   2.217   2.199  0.1407  0.9931  0.2462
  103MOL   H37641380   5.970   2.229   2.050 -0.1368 -0.1203  1.5261
  103MOL   H37741381   5.845   2.107   2.072 -2.5087  1.8476  2.1960
  103MOL   H37841382   6.228   1.951   2.295  0.5180  0.4445 -1.1877
  103MOL   H37941383   6.391   2.043   2.453 -0.2234 -1.0020  1.1754
  103MOL   H38041384   6.411   2.396   2.752  1.9624 -1.8447 -0.6446
  103MOL   H38141385   6.286   2.449   2.625 -1.6223 -1.2580  0.1341
  103MOL   C38241386   6.242   2.273   2.742 -0.3997  0.1493  0.5469
  103MOL   C38341387   6.117   2.350   2.782  0.2245  0.3068  0.2382
  103MOL   C38441388   6.124   2.474   2.849  0.0202 -0.1355  0.4396
  103MOL   C38541389   6.005   2.541   2.878  0.2007 -0.0168  0.0094
  103MOL   C38641390   5.883   2.485   2.844  0.2352 -0.5244 -0.7353
  103MOL   O38741391   5.777   2.571   2.877  0.7037  0.4072 -0.6772
  103MOL   C38841392   5.649   2.523   2.867 -0.2460  0.3635 -0.4895
  103MOL   C38941393   5.875   2.358   2.787  0.1467 -0.5637  0.3450
  103MOL   C39041394   5.994   2.289   2.752  0.0555  0.0053 -0.2750
  103MOL   C39141395   6.311   2.205   2.859 -0.1901  0.0643 -0.6616
  103MOL   H39241396   6.208   2.190   2.681  0.6639 -0.5620  0.9128
  103MOL   H39341397   6.216   2.510   2.891 -0.5144  1.2403  0.4549
  103MOL   H39441398   5.995   2.641   2.918 -1.6692 -0.0166 -0.3887
  103MOL   H39541399   5.645   2.432   2.926  2.2231  0.8095  0.4346
  103MOL   H39641400   5.612   2.497   2.768  2.4777 -1.3638 -1.0984
  103MOL   H39741401   5.574   2.583   2.918  0.7022 -0.2324  1.6593
  103MOL   H39841402   5.773   2.328   2.770  0.5767 -1.1125 -1.4365
  103MOL   H39941403   5.995   2.192   2.705 -0.5022  0.1539 -0.6038
  103MOL   H40041404   6.406   2.156   2.839 -0.1811 -0.9088  1.5270
  103MOL   H40141405   6.253   2.123   2.901  1.4956 -0.5030  0.6154
  103MOL   H40241406   6.333   2.275   2.940  0.3660 -0.2043 -0.5808
  104MOL     C141407   2.880   6.804   2.794  0.3939 -0.0879  0.0263
  104MOL     C241408   2.894   6.663   2.854 -0.2616 -0.2474  0.0167
  104MOL     C341409   2.788   6.592   2.913 -0.2364  0.2409  0.2899
  104MOL     C441410   2.812   6.470   2.987 -0.4185 -0.3695 -0.3372
  104MOL     C541411   2.944   6.417   2.995  0.1346  0.4694 -1.1884
  104MOL     O641412   2.970   6.298   3.065 -0.0909  0.2350  0.5393
  104MOL     C741413   2.861   6.213   3.103 -0.1054 -0.5727  0.0204
  104MOL     C841414   3.047   6.491   2.943  0.1434  0.2749  0.1874
  104MOL     C941415   3.024   6.605   2.864  0.4138 -0.2024 -0.4557
  104MOL    C1041416   2.935   6.908   2.887 -0.4436 -0.0231 -0.2141
  104MOL    H1141417   2.772   6.813   2.787  0.3598 -0.7311 -0.3550
  104MOL    H1241418   2.685   6.626   2.917 -0.8442 -1.7378  3.1638
  104MOL    H1341419   2.721   6.436   3.033 -1.6748 -0.9076 -3.1541
  104MOL    H1441420   2.800   6.271   3.173  0.6114  0.1369  0.0589
  104MOL    H1541421   2.786   6.181   3.031 -0.2836 -3.1788  1.3229
  104MOL    H1641422   2.884   6.122   3.159 -1.2082 -0.7513  0.2018
  104MOL    H1741423   3.150   6.462   2.961  0.3400 -0.1382 -1.4700
  104MOL    H1841424   3.110   6.653   2.820  1.3993 -1.0597  0.5054
  104MOL    H1941425   2.856   6.978   2.916 -0.4474 -0.7390  1.5899
  104MOL    H2041426   2.956   6.875   2.989 -0.7267 -0.4289 -0.2841
  104MOL    H2141427   2.924   6.809   2.694  0.5749  1.6053  0.1747
  104MOL    C2241428   3.056   6.985   2.824  0.8729 -0.1765  0.1831
  104MOL    C2341429   3.016   7.073   2.704 -0.1344 -0.3538  0.6429
  104MOL    C2441430   2.914   7.167   2.720  0.6205  0.0321  0.0500
  104MOL    C2541431   2.863   7.243   2.615  0.3736 -0.4850  0.2079
  104MOL    C2641432   2.926   7.225   2.488 -0.4206  0.0900 -0.5107
  104MOL    O2741433   2.887   7.286   2.371 -0.0038  0.2102 -0.3766
  104MOL    C2841434   2.757   7.342   2.373 -0.1078 -0.1833  0.4106
  104MOL    C2941435   3.030   7.127   2.472 -0.2810 -0.2223 -0.2717
  104MOL    C3041436   3.075   7.052   2.582  0.4296  0.5456  0.0960
  104MOL    C3141437   3.137   7.066   2.933 -0.2365 -0.5925 -0.5927
  104MOL    H3241438   3.124   6.907   2.793  0.6075 -0.8138  1.1793
  104MOL    H3341439   2.867   7.183   2.817  1.2690  1.6721  0.1151
  104MOL    H3441440   2.793   7.322   2.637  0.6054 -0.1891 -0.1038
  104MOL    H3541441   2.748   7.408   2.287 -1.7537 -1.4609 -0.4202
  104MOL    H3641442   2.746   7.412   2.456 -0.4852  0.5328 -0.2456
  104MOL    H3741443   2.676   7.270   2.359  0.3173 -0.1519 -2.5060
  104MOL    H3841444   3.064   7.115   2.370 -1.0906  1.6046 -0.7851
  104MOL    H3941445   3.161   6.988   2.577  1.0414  1.4304 -0.8758
  104MOL    H4041446   3.077   7.152   2.962  1.5754 -0.0288  1.6528
  104MOL    H4141447   3.139   6.997   3.017  0.6721  0.3772  0.1976
  104MOL    C4241448   3.279   7.114   2.897  0.1741  0.3543  0.3212
  104MOL    C4341449   3.369   7.116   3.023 -0.0318  0.4637 -0.8019
  104MOL    C4441450   3.457   7.006   3.044 -0.2255 -0.2760  0.6795
  104MOL    C4541451   3.546   7.012   3.153  0.2681 -0.5624 -0.2882
  104MOL    C4641452   3.543   7.122   3.245  0.0229 -1.0714 -0.3647
  104MOL    O4741453   3.625   7.130   3.366  0.1580 -0.5779  0.4312
  104MOL    C4841454   3.658   7.009   3.425  0.0251 -0.4111 -0.8013
  104MOL    C4941455   3.456   7.232   3.216  0.4740 -0.3435 -0.2528
  104MOL    C5041456   3.369   7.228   3.106  1.2483  0.7675 -0.5263
  104MOL    C5141457   3.284   7.242   2.814 -0.2152  1.2775  0.9986
  104MOL    H5241458   3.319   7.033   2.836 -1.6494  0.1767 -0.6791
  104MOL    H5341459   3.467   6.928   2.971  1.1317  2.7284 -2.5113
  104MOL    H5441460   3.606   6.922   3.163 -1.0890 -1.7210 -2.3375
  104MOL    H5541461   3.565   6.953   3.437 -1.5142  1.7470 -2.3540
  104MOL    H5641462   3.723   6.951   3.361 -0.5008 -1.2955 -0.5512
  104MOL    H5741463   3.709   7.005   3.522  0.3753  3.6693 -0.7488
  104MOL    H5841464   3.455   7.319   3.281 -0.2708 -2.0337  2.0352
  104MOL    H5941465   3.298   7.307   3.090  0.8114  0.1066 -1.8864
  104MOL    H6041466   3.276   7.338   2.865 -0.0730  2.8369 -1.8137
  104MOL    H6141467   3.199   7.248   2.746 -1.7063  0.2450  2.7255
  104MOL    C6241468   3.408   7.241   2.713 -0.3889 -0.8713  0.3212
  104MOL    C6341469   3.541   7.238   2.783  0.1000 -0.1355  0.5488
  104MOL    C6441470   3.586   7.344   2.857 -0.2220 -0.0597 -0.6443
  104MOL    C6541471   3.706   7.329   2.932 -0.4665 -0.2375 -0.4692
  104MOL    C6641472   3.787   7.216   2.925  0.5637 -0.4154 -0.4953
  104MOL    O6741473   3.881   7.189   3.014  0.3080  0.9126  0.1358
  104MOL    C6841474   3.889   7.261   3.140 -0.0101  0.8340  0.6683
  104MOL    C6941475   3.751   7.123   2.832 -0.2400  0.1637 -0.2086
  104MOL    C7041476   3.626   7.126   2.766  0.2774  0.4017 -0.2476
  104MOL    C7141477   3.389   7.366   2.613 -0.6610 -0.1293 -0.2575
  104MOL    H7241478   3.396   7.158   2.642 -1.1485  0.4863 -1.1608
  104MOL    H7341479   3.516   7.424   2.875 -0.6964 -0.5165 -0.4469
  104MOL    H7441480   3.723   7.401   3.011 -0.7504 -1.8089  1.0674
  104MOL    H7541481   3.972   7.217   3.196  0.4137  0.6575 -0.0872
  104MOL    H7641482   3.798   7.249   3.199 -0.3145  2.3567  0.5168
  104MOL    H7741483   3.908   7.366   3.122  0.2578  0.6993  0.1493
  104MOL    H7841484   3.803   7.029   2.815  0.1945 -0.1074  2.4270
  104MOL    H7941485   3.592   7.052   2.695  0.8355  0.8111 -0.9500
  104MOL    H8041486   3.299   7.346   2.554 -1.0378  2.7196 -0.7105
  104MOL    H8141487   3.373   7.456   2.673 -1.3018 -1.3089  1.3830
  104MOL    C8241488   3.500   7.393   2.514  0.1905 -0.2874 -0.3839
  104MOL    C8341489   3.544   7.279   2.427  0.8933 -0.1816 -0.1294
  104MOL    C8441490   3.679   7.259   2.389 -0.0368  0.4014 -0.5072
  104MOL    C8541491   3.720   7.149   2.313  0.1669 -0.8578 -0.4274
  104MOL    C8641492   3.624   7.060   2.264  0.7013  0.0444 -0.1967
  104MOL    O8741493   3.651   6.941   2.197  0.0101 -0.2228  0.0778
  104MOL    C8841494   3.779   6.925   2.155  0.7310 -0.6501  0.0427
  104MOL    C8941495   3.489   7.082   2.286  0.5673 -0.3295  0.0531
  104MOL    C9041496   3.446   7.186   2.367 -0.7849 -0.1921  0.5984
  104MOL    C9141497   3.471   7.513   2.419  0.0994  0.0954  0.1419
  104MOL    H9241498   3.591   7.419   2.567 -0.1555  0.7392 -0.2658
  104MOL    H9341499   3.759   7.326   2.417  1.2517 -1.3188  0.0126
  104MOL    H9441500   3.827   7.134   2.299  0.1822 -0.1153 -1.0753
  104MOL    H9541501   3.839   6.917   2.246 -0.1732 -1.2247  0.5979
  104MOL    H9641502   3.814   6.996   2.080 -0.5572 -0.0243  0.0226
  104MOL    H9741503   3.779   6.836   2.091 -1.2697  0.7552 -1.9560
  104MOL    H9841504   3.404   7.028   2.247 -0.7419  2.2004 -0.7331
  104MOL    H9941505   3.338   7.197   2.373 -0.6289  3.4237 -1.5500
  104MOL   H10041506   3.538   7.518   2.333  0.0685  1.4680  0.1793
  104MOL   H10141507   3.372   7.487   2.380  0.2846  0.6889 -0.7441
  104MOL   C10241508   3.482   7.655   2.485  0.0555  0.0293 -0.3929
  104MOL   C10341509   3.610   7.673   2.562  0.4374 -0.5190  0.5688
  104MOL   C10441510   3.731   7.702   2.492 -0.0144 -0.0550  0.6016
  104MOL   C10541511   3.852   7.688   2.563 -0.2556 -0.1613  0.3251
  104MOL   C10641512   3.854   7.660   2.697 -0.0322 -0.0620 -0.3450
  104MOL   O10741513   3.980   7.660   2.752 -0.1347 -0.0769  0.2531
  104MOL   C10841514   3.988   7.623   2.889 -0.0579  0.7960  0.0906
  104MOL   C10941515   3.735   7.641   2.771  0.0321  0.2717 -0.2800
  104MOL   C11041516   3.612   7.651   2.701 -0.2732 -0.6493 -1.3713
  104MOL   C11141517   3.470   7.770   2.377  0.6454 -0.3037 -0.2737
  104MOL   H11241518   3.396   7.668   2.550  0.8374 -0.4980  0.7698
  104MOL   H11341519   3.726   7.727   2.387  0.0415  1.7961  1.0175
  104MOL   H11441520   3.947   7.712   2.519  0.4866  0.3343  2.1671
  104MOL   H11541521   4.088   7.631   2.933  0.2692 -0.3975 -0.4271
  104MOL   H11641522   3.928   7.657   2.974 -0.5483 -1.0488  0.4916
  104MOL   H11741523   3.955   7.520   2.888 -1.2457  1.1574  0.7653
  104MOL   H11841524   3.745   7.594   2.868 -0.6257  0.0225 -0.3334
  104MOL   H11941525   3.519   7.629   2.751  0.5106 -1.4418 -0.2295
  104MOL   H12041526   3.509   7.867   2.408 -0.7858 -0.2000  1.3351
  104MOL   H12141527   3.516   7.731   2.287  1.0015 -0.8156  0.1267
  104MOL   C12241528   3.315   7.785   2.335 -0.2348  0.8745 -0.7744
  104MOL   C12341529   3.301   7.796   2.182 -0.3910 -0.3044 -0.2640
  104MOL   C12441530   3.383   7.886   2.109 -0.5970 -0.5496  0.6238
  104MOL   C12541531   3.363   7.905   1.967 -0.3024  0.6982  0.1359
  104MOL   C12641532   3.262   7.833   1.904 -0.2139 -0.1707  0.0295
  104MOL   O12741533   3.240   7.854   1.773 -0.4446  0.0717  0.2544
  104MOL   C12841534   3.265   7.976   1.710 -0.0711  0.3683  0.2881
  104MOL   C12941535   3.177   7.748   1.975 -0.3171  0.1534 -0.6384
  104MOL   C13041536   3.197   7.732   2.113  0.4625  0.2542 -0.0824
  104MOL   C13141537   3.240   7.902   2.411 -0.0821 -0.5064  0.1372
  104MOL   H13241538   3.271   7.688   2.355  1.3915  0.3696  0.4786
  104MOL   H13341539   3.463   7.936   2.162 -1.5544  0.0935  1.4711
  104MOL   H13441540   3.425   7.978   1.916 -0.7066  1.9880  1.4320
  104MOL   H13541541   3.370   8.003   1.699  0.1238  0.0036  1.2451
  104MOL   H13641542   3.212   7.976   1.615 -0.1332  1.6433  0.3086
  104MOL   H13741543   3.218   0.025   1.754  0.3167  0.6861  0.0614
  104MOL   H13841544   3.099   7.700   1.918  0.9063 -2.9341  0.2268
  104MOL   H13941545   3.128   7.670   2.169  0.9986 -0.9583 -0.7421
  104MOL   H14041546   3.245   7.999   2.362  0.1543  0.7571  2.5672
  104MOL   H14141547   3.300   7.925   2.499  1.4665  0.7077 -1.2084
  104MOL   C14241548   3.101   7.872   2.450 -0.1090  0.1129 -0.3139
  104MOL   C14341549   3.084   7.770   2.565 -0.4246  0.2006 -0.0102
  104MOL   C14441550   3.111   7.794   2.703 -0.6833  0.1643 -0.6446
  104MOL   C14541551   3.105   7.691   2.797  0.2646  0.5407  0.5929
  104MOL   C14641552   3.071   7.564   2.764 -0.5914 -0.0555  0.4382
  104MOL   O14741553   3.061   7.458   2.852 -0.5626  0.3975  0.3386
  104MOL   C14841554   3.094   7.481   2.984 -0.3024  0.1211  0.5773
  104MOL   C14941555   3.041   7.543   2.627 -0.4393  0.1177 -0.4722
  104MOL   C15041556   3.051   7.639   2.530  0.2330 -0.5076 -0.5221
  104MOL   C15141557   3.007   7.994   2.482  0.8069 -0.4085  0.0857
  104MOL   H15241558   3.054   7.830   2.362 -0.8868  0.1749  0.0610
  104MOL   H15341559   3.154   7.891   2.725 -1.0993  0.0926  0.5184
  104MOL   H15441560   3.129   7.720   2.899 -1.3685 -0.3731  1.2558
  104MOL   H15541561   3.084   7.386   3.037  0.9146 -0.5150 -0.3070
  104MOL   H15641562   3.187   7.527   3.017 -0.2750  0.4911 -0.0114
  104MOL   H15741563   3.020   7.552   3.022 -0.9211  1.3620 -2.7809
  104MOL   H15841564   3.017   7.443   2.593 -2.2603 -0.8962  3.4309
  104MOL   H15941565   3.035   7.619   2.425 -0.9784  0.2861 -0.5015
  104MOL   H16041566   2.994   0.018   2.395  0.2650  0.0903  0.5255
  104MOL   H16141567   3.059   0.019   2.553 -0.1307  0.8813 -0.3884
  104MOL   C16241568   2.863   7.964   2.537  0.1797  0.2446 -0.6293
  104MOL   C16341569   2.776   7.865   2.462  1.1814  0.3809  0.1081
  104MOL   C16441570   2.755   7.869   2.325 -0.3163  0.5725 -0.5753
  104MOL   C16541571   2.689   7.767   2.253 -0.2119  0.3827  0.3171
  104MOL   C16641572   2.617   7.673   2.326 -0.0036  0.9788  1.1198
  104MOL   O16741573   2.544   7.575   2.266  0.2536  0.2839  0.3633
  104MOL   C16841574   2.541   7.574   2.126  0.0367 -0.4868 -0.2291
  104MOL   C16941575   2.628   7.665   2.465 -0.2463 -0.4685 -0.0581
  104MOL   C17041576   2.707   7.763   2.529  0.3339 -0.5956  0.0496
  104MOL   C17141577   2.786   0.060   2.565  0.8328 -0.3875  0.6547
  104MOL   H17241578   2.871   7.910   2.631 -2.5996  0.1729 -0.3955
  104MOL   H17341579   2.816   7.946   2.279  0.8939 -0.2159 -0.2927
  104MOL   H17441580   2.696   7.769   2.145 -3.3550  0.6525  0.0792
  104MOL   H17541581   2.641   7.581   2.081  1.7333  0.2564  3.5131
  104MOL   H17641582   2.480   7.657   2.094  0.8677  0.1903 -0.0754
  104MOL   H17741583   2.485   7.485   2.095 -2.9226  1.7965 -1.6114
  104MOL   H17841584   2.568   7.591   2.516 -1.3310 -0.8179 -1.7839
  104MOL   H17941585   2.718   7.754   2.637  1.2821  0.8929  0.0953
  104MOL   H18041586   2.678   0.046   2.562  0.5411  2.0708 -1.9605
  104MOL   H18141587   2.807   0.115   2.473 -0.6885 -0.0229  0.5105
  104MOL   C18241588   2.834   0.138   2.689 -0.0410  0.1937 -0.2068
  104MOL   C18341589   2.807   0.057   2.819  0.1746 -0.2317 -0.3610
  104MOL   C18441590   2.907   0.002   2.901 -0.5239 -0.2730 -0.7492
  104MOL   C18541591   2.870   7.956   3.011 -0.0376 -0.6742 -0.2215
  104MOL   C18641592   2.734   7.941   3.050 -0.1453 -0.9121 -0.1125
  104MOL   O18741593   2.712   7.861   3.165  1.1968 -0.1081  0.3066
  104MOL   C18841594   2.576   7.843   3.200 -0.3357  0.6446  0.4840
  104MOL   C18941595   2.631   8.001   2.965 -0.1595  0.1113  0.1257
  104MOL   C19041596   2.669   0.038   2.855 -0.6120 -0.1931  0.0423
  104MOL   C19141597   2.761   0.269   2.700  0.3162  0.1719 -0.0698
  104MOL   H19241598   2.942   0.151   2.681  0.1735 -0.1384  1.9168
  104MOL   H19341599   3.010   0.025   2.879 -0.1953 -2.2630 -1.3381
  104MOL   H19441600   2.950   7.909   3.065 -0.0029  0.1590  0.4538
  104MOL   H19541601   2.525   7.930   3.242  0.1453  1.1703 -0.0162
  104MOL   H19641602   2.575   7.770   3.281  0.9383 -0.3506 -0.3679
  104MOL   H19741603   2.516   7.794   3.123 -1.2973  3.1340 -0.3782
  104MOL   H19841604   2.525   7.988   2.980  0.0707 -1.2678  0.5963
  104MOL   H19941605   2.590   0.078   2.792 -2.3373 -1.2151  1.5238
  104MOL   H20041606   2.655   0.251   2.682  0.5137  0.3627 -1.4947
  104MOL   H20141607   2.773   0.294   2.805 -0.8684 -0.5774  0.2629
  104MOL   C20241608   2.813   0.381   2.602 -0.3191 -0.0085  0.0407
  104MOL   C20341609   2.819   0.515   2.678  0.5320  0.5489  0.6829
  104MOL   C20441610   2.701   0.565   2.743  0.5462 -0.6431 -0.2051
  104MOL   C20541611   2.714   0.691   2.804 -0.0716  0.3237 -0.4679
  104MOL   C20641612   2.828   0.775   2.790 -0.4800 -0.2655  0.1896
  104MOL   O20741613   2.813   0.909   2.834  0.1307  0.2302  0.5700
  104MOL   C20841614   2.909   1.009   2.815 -0.2439 -0.3522  0.0097
  104MOL   C20941615   2.948   0.709   2.748  0.0306  0.0070  0.7313
  104MOL   C21041616   2.943   0.580   2.691 -0.7617 -0.1453  0.2260
  104MOL   C21141617   2.720   0.394   2.482  0.8374 -0.4240  0.4940
  104MOL   H21241618   2.914   0.350   2.576 -1.1502 -4.5504  1.8116
  104MOL   H21341619   2.603   0.518   2.747  0.4551 -0.4671 -0.3520
  104MOL   H21441620   2.619   0.730   2.839  0.4558  0.2015  1.1249
  104MOL   H21541621   3.008   0.986   2.854 -0.6373 -2.2056 -0.0675
  104MOL   H21641622   2.912   1.040   2.710  0.1754  1.3328  0.4996
  104MOL   H21741623   2.875   1.101   2.863  1.4476 -0.4616  1.4864
  104MOL   H21841624   3.043   0.760   2.742 -0.5396  0.8143 -2.4609
  104MOL   H21941625   3.027   0.548   2.631  1.9926  0.1286  3.7433
  104MOL   H22041626   2.624   0.422   2.524  1.5557 -0.1188  1.9994
  104MOL   H22141627   2.708   0.297   2.434  1.7016 -0.4215  0.2637
  104MOL   C22241628   2.757   0.477   2.366  0.0549  0.4454 -0.1292
  104MOL   C22341629   2.875   0.415   2.296 -0.2256 -0.0667 -0.8308
  104MOL   C22441630   2.864   0.328   2.189  0.2036 -0.0560  0.2648
  104MOL   C22541631   2.974   0.270   2.135  0.6290  0.0517 -0.5595
  104MOL   C22641632   3.107   0.305   2.172 -0.1260  0.2007  0.1797
  104MOL   O22741633   3.216   0.267   2.117 -0.2298  0.2280  0.0281
  104MOL   C22841634   3.222   0.134   2.059  0.2979  0.2900 -0.1810
  104MOL   C22941635   3.120   0.405   2.272 -0.4054  0.2376  0.3026
  104MOL   C23041636   3.004   0.457   2.334 -0.3072 -0.7866  0.0248
  104MOL   C23141637   2.636   0.516   2.262  0.6845 -1.0640  0.7806
  104MOL   H23241638   2.784   0.574   2.410 -0.1205 -0.1764  1.3715
  104MOL   H23341639   2.769   0.283   2.164  0.4242  0.7317 -2.1721
  104MOL   H23441640   2.957   0.205   2.050 -1.9162  0.5011 -0.4381
  104MOL   H23541641   3.322   0.104   2.027  1.0949  2.0044  0.6177
  104MOL   H23641642   3.180   0.070   2.136  3.0167  0.2754  1.3488
  104MOL   H23741643   3.167   0.121   1.966 -0.3498 -0.9442  0.3749
  104MOL   H23841644   3.214   0.440   2.312 -0.2175  0.0929 -0.0055
  104MOL   H23941645   3.016   0.525   2.417  0.9139 -0.5371 -0.3468
  104MOL   H24041646   2.676   0.582   2.185 -1.8737  1.8160  1.7768
  104MOL   H24141647   2.600   0.425   2.215  0.9248 -1.1540  0.7750
  104MOL   C24241648   2.506   0.589   2.322 -0.6931 -0.4588  0.6786
  104MOL   C24341649   2.536   0.730   2.376 -0.0507  0.5433  0.2554
  104MOL   C24441650   2.533   0.752   2.516  0.4197 -0.5098  0.1217
  104MOL   C24541651   2.556   0.874   2.578  0.1073  0.7619  0.0742
  104MOL   C24641652   2.578   0.986   2.494 -0.0763  0.1678 -0.0445
  104MOL   O24741653   2.597   1.108   2.543  0.0763 -0.4109 -0.2382
  104MOL   C24841654   2.529   1.153   2.660  0.4159 -0.4292  0.0589
  104MOL   C24941655   2.591   0.966   2.355 -0.0354  0.3707 -0.1063
  104MOL   C25041656   2.570   0.841   2.291 -1.3309  0.5534 -0.3226
  104MOL   C25141657   2.392   0.592   2.217  0.1024  0.5069 -0.4625
  104MOL   H25241658   2.467   0.542   2.412 -1.4951  0.4320  0.8000
  104MOL   H25341659   2.507   0.664   2.573  2.7701 -0.2129  1.7039
  104MOL   H25441660   2.547   0.880   2.686  0.7235 -1.7523  0.2954
  104MOL   H25541661   2.422   1.132   2.658  0.5079 -1.0108  1.0063
  104MOL   H25641662   2.577   1.105   2.745  1.8089  0.4494 -0.2176
  104MOL   H25741663   2.534   1.261   2.675  0.5461 -0.2699 -1.0678
  104MOL   H25841664   2.608   1.050   2.290 -1.3136 -0.6659 -1.8243
  104MOL   H25941665   2.569   0.823   2.184 -1.8896  0.9838 -0.3923
  104MOL   H26041666   2.384   0.500   2.160  1.0721  1.0246 -1.4557
  104MOL   H26141667   2.417   0.670   2.144 -0.1088  3.3628  2.4153
  104MOL   C26241668   2.253   0.619   2.267  0.5091  0.1033  0.1917
  104MOL   C26341669   2.207   0.514   2.361  0.1702 -0.2897 -0.1857
  104MOL   C26441670   2.161   0.551   2.493  0.2548 -0.0056 -0.0004
  104MOL   C26541671   2.111   0.443   2.580 -0.7949 -0.1819  0.7592
  104MOL   C26641672   2.092   0.313   2.525  0.2849 -0.1639 -0.5228
  104MOL   O26741673   2.037   0.221   2.613  0.1298  0.0867 -0.5725
  104MOL   C26841674   1.994   0.095   2.566  0.3253 -0.1433  0.8070
  104MOL   C26941675   2.137   0.280   2.394 -0.3934  0.1084  0.0599
  104MOL   C27041676   2.187   0.382   2.315  0.4755 -0.3361  0.4433
  104MOL   C27141677   2.154   0.643   2.148 -0.7712  0.1101 -0.4331
  104MOL   H27241678   2.258   0.718   2.312  0.5476  1.0431 -1.8381
  104MOL   H27341679   2.167   0.652   2.530  0.2338 -0.4067  1.1191
  104MOL   H27441680   2.080   0.464   2.681  0.5341  0.0492  1.1186
  104MOL   H27541681   1.937   0.049   2.646 -2.0168  3.2464  1.2033
  104MOL   H27641682   2.092   0.049   2.553  1.0511  1.2620  1.2083
  104MOL   H27741683   1.932   0.107   2.477  0.3664 -0.7909  0.6892
  104MOL   H27841684   2.134   0.182   2.349 -0.4411  0.0105  0.2731
  104MOL   H27941685   2.222   0.362   2.215  0.2226 -1.3864  0.5512
  104MOL   H28041686   2.191   0.734   2.102  1.6296  0.0317  1.1947
  104MOL   H28141687   2.164   0.562   2.075  0.7010  0.5889 -0.7856
  104MOL   C28241688   2.003   0.665   2.179 -0.9748 -0.0602  0.3878
  104MOL   C28341689   1.932   0.530   2.150  0.1907 -0.0081  1.0740
  104MOL   C28441690   1.929   0.494   2.013 -0.0637 -0.1632  0.7965
  104MOL   C28541691   1.873   0.368   1.972 -0.3919 -0.2851  0.3437
  104MOL   C28641692   1.808   0.295   2.073  0.1558  0.2038  0.0968
  104MOL   O28741693   1.743   0.172   2.050 -0.2481 -0.6953  0.0420
  104MOL   C28841694   1.734   0.123   1.916  0.0117  0.1867  0.2761
  104MOL   C28941695   1.800   0.340   2.209  0.2464  0.4840  0.0403
  104MOL   C29041696   1.853   0.461   2.243 -0.3758 -0.1193 -0.4292
  104MOL   C29141697   1.940   0.773   2.096  0.7863  0.4228 -1.1075
  104MOL   H29241698   1.996   0.699   2.282  0.5325 -1.1490  0.8578
  104MOL   H29341699   1.977   0.556   1.938 -1.1989 -1.1486 -0.7861
  104MOL   H29441700   1.874   0.331   1.871  0.2862 -1.9443  0.9473
  104MOL   H29541701   1.676   0.032   1.925  1.1677 -0.4923  1.0745
  104MOL   H29641702   1.681   0.194   1.853  1.0050  0.6324 -0.0704
  104MOL   H29741703   1.833   0.107   1.873 -0.4425 -2.1540  0.0273
  104MOL   H29841704   1.741   0.292   2.285 -0.6148  1.6891  0.1419
  104MOL   H29941705   1.850   0.499   2.344 -2.4135 -1.3386 -0.0087
  104MOL   H30041706   1.951   0.760   1.989 -0.1340 -2.6527 -0.8869
  104MOL   H30141707   1.832   0.761   2.102  0.7457  0.4330 -1.8215
  104MOL   C30241708   1.991   0.919   2.130 -0.0442 -0.6185 -0.7451
  104MOL   C30341709   2.076   0.986   2.017 -0.3551  0.2424 -0.2507
  104MOL   C30441710   2.008   1.009   1.891  0.1869  0.2620 -0.1425
  104MOL   C30541711   2.068   1.095   1.802  0.4780 -0.0034  0.4934
  104MOL   C30641712   2.195   1.147   1.825 -0.2675 -0.3173 -0.4606
  104MOL   O30741713   2.256   1.225   1.730  0.1716  0.5625  0.7061
  104MOL   C30841714   2.188   1.253   1.607  0.0589 -0.2925  0.5555
  104MOL   C30941715   2.258   1.127   1.948 -0.0219  0.3786  0.4806
  104MOL   C31041716   2.201   1.050   2.052 -0.0577 -0.5167  0.4538
  104MOL   C31141717   1.878   1.016   2.180 -0.1215  0.1652  0.2549
  104MOL   H31241718   2.056   0.908   2.217  0.4308  1.4743 -0.8092
  104MOL   H31341719   1.913   0.961   1.875  1.0356 -1.5154 -0.0313
  104MOL   H31441720   2.013   1.120   1.713  2.0813  2.1442  0.0742
  104MOL   H31541721   2.247   1.308   1.535  1.0908 -0.9463  0.8855
  104MOL   H31641722   2.098   1.309   1.634 -0.6160 -0.8411 -0.5328
  104MOL   H31741723   2.154   1.164   1.553  2.2809  0.2916 -1.8514
  104MOL   H31841724   2.352   1.176   1.969  0.4659 -1.1818  2.0735
  104MOL   H31941725   2.245   1.044   2.150  2.1993 -0.5047 -0.5218
  104MOL   H32041726   1.785   0.987   2.132 -0.0087  2.7290 -1.6682
  104MOL   H32141727   1.902   1.117   2.145 -0.5604  0.2220  0.1232
  104MOL   C32241728   1.876   1.019   2.338  0.3867 -0.0711 -0.0063
  104MOL   C32341729   1.799   0.895   2.389 -0.1517  0.4249  0.4344
  104MOL   C32441730   1.674   0.851   2.332 -0.6215  0.3467  0.0677
  104MOL   C32541731   1.608   0.737   2.384  0.2955  0.0188  0.7329
  104MOL   C32641732   1.660   0.673   2.499  0.8084  0.1538 -1.0073
  104MOL   O32741733   1.597   0.566   2.560 -0.0218  0.5065  0.5439
  104MOL   C32841734   1.472   0.528   2.505  0.0919 -0.1793 -0.7358
  104MOL   C32941735   1.780   0.722   2.551 -0.2760 -0.6002 -0.0847
  104MOL   C33041736   1.852   0.829   2.502 -0.2728 -0.2772 -0.0597
  104MOL   C33141737   1.802   1.139   2.396 -0.2293  0.0044  0.3041
  104MOL   H33241738   1.978   1.027   2.374  0.6021  0.6560 -0.7498
  104MOL   H33341739   1.628   0.906   2.251  0.1739  1.8456  0.6075
  104MOL   H33441740   1.520   0.713   2.326  0.0928 -0.9511  1.4408
  104MOL   H33541741   1.407   0.615   2.512  1.2874  0.6192  0.9074
  104MOL   H33641742   1.440   0.439   2.560 -1.0458  0.8212  0.2407
  104MOL   H33741743   1.480   0.486   2.405  2.3943 -2.2515  0.2420
  104MOL   H33841744   1.824   0.674   2.637  3.2306  0.9848 -0.9076
  104MOL   H33941745   1.943   0.852   2.555 -0.3744 -0.5617  0.2451
  104MOL   H34041746   1.695   1.128   2.375 -0.4022 -0.3339  1.3438
  104MOL   H34141747   1.804   1.113   2.502 -1.6220  1.4813  0.6970
  104MOL   C34241748   1.838   1.279   2.349  0.6936  0.0703 -0.2910
  104MOL   C34341749   1.987   1.304   2.334 -0.2037  0.5953 -0.6394
  104MOL   C34441750   2.081   1.285   2.441  0.4443 -0.1474 -0.5686
  104MOL   C34541751   2.219   1.298   2.411  0.3184  0.4205 -0.8887
  104MOL   C34641752   2.261   1.362   2.290 -0.3630 -0.3231  0.3686
  104MOL   O34741753   2.393   1.397   2.265  0.2775  0.3030 -0.2314
  104MOL   C34841754   2.465   1.450   2.375 -0.6809  0.4246  0.3142
  104MOL   C34941755   2.168   1.387   2.189 -0.1291 -0.1696 -0.2626
  104MOL   C35041756   2.029   1.360   2.209 -0.2427  0.2241  0.2399
  104MOL   C35141757   1.773   1.385   2.434  0.5445  0.5832 -0.6400
  104MOL   H35241758   1.798   1.273   2.248 -0.1944 -1.4100  0.1230
  104MOL   H35341759   2.045   1.247   2.536  2.9289 -0.0824  0.4378
  104MOL   H35441760   2.294   1.261   2.479 -0.6300  1.3911  0.7091
  104MOL   H35541761   2.431   1.549   2.405  1.0489  1.7356 -1.8428
  104MOL   H35641762   2.466   1.384   2.461 -1.5033 -0.0261 -0.0141
  104MOL   H35741763   2.566   1.458   2.335 -0.2516  0.5636  1.3975
  104MOL   H35841764   2.197   1.439   2.098 -1.7617  1.0756 -0.1157
  104MOL   H35941765   1.962   1.379   2.127  0.0852 -1.4518 -0.4448
  104MOL   H36041766   1.665   1.369   2.442  0.6606 -0.6742 -1.4131
  104MOL   H36141767   1.825   1.374   2.529  1.0726 -0.5535 -1.0513
  104MOL   C36241768   1.787   1.537   2.391 -0.0372 -0.2823  0.0671
  104MOL   C36341769   1.792   1.618   2.518 -0.3408  0.1608 -0.5468
  104MOL   C36441770   1.672   1.645   2.591 -0.3922 -0.6767  0.3412
  104MOL   C36541771   1.675   1.729   2.709 -0.6759  0.2361 -0.1985
  104MOL   C36641772   1.798   1.772   2.759 -0.2660 -0.3045 -0.7022
  104MOL   O36741773   1.794   1.846   2.881 -0.4837 -0.4908 -0.0301
  104MOL   C36841774   1.913   1.858   2.954 -0.0550  0.5080 -0.0201
  104MOL   C36941775   1.919   1.734   2.691 -0.5863  0.1189  0.4280
  104MOL   C37041776   1.909   1.659   2.568 -0.1652 -0.1723 -0.2816
  104MOL   C37141777   1.674   1.588   2.296 -0.5193 -0.6252 -0.3100
  104MOL   H37241778   1.880   1.549   2.336 -0.0137 -0.4148  0.0769
  104MOL   H37341779   1.575   1.616   2.553  0.1104 -0.8319 -0.8460
  104MOL   H37441780   1.586   1.762   2.761 -1.0424 -0.6629 -0.2443
  104MOL   H37541781   1.971   1.766   2.963  0.0807  0.5795 -0.1510
  104MOL   H37641782   1.984   1.922   2.902  0.3764  0.8988  1.0481
  104MOL   H37741783   1.893   1.896   3.054 -2.3379 -0.2310 -0.1685
  104MOL   H37841784   2.017   1.765   2.725 -0.3907 -0.6598  0.5610
  104MOL   H37941785   2.000   1.632   2.517  0.1189  0.8395 -0.3300
  104MOL   H38041786   1.662   1.518   2.213  1.2317  0.7528 -1.7724
  104MOL   H38141787   1.580   1.570   2.348  0.6557 -1.1128  1.6891
  104MOL   C38241788   1.706   1.732   2.241 -0.4386 -0.5263  0.1454
  104MOL   C38341789   1.579   1.813   2.210 -0.3078  0.2618 -0.3306
  104MOL   C38441790   1.483   1.759   2.115  0.5699  0.1635 -0.0478
  104MOL   C38541791   1.362   1.826   2.100  0.1252 -0.7521 -0.1428
  104MOL   C38641792   1.333   1.942   2.167 -0.3516 -0.0356 -0.0148
  104MOL   O38741793   1.219   2.009   2.133  0.1215 -0.2562 -0.4047
  104MOL   C38841794   1.174   2.118   2.213  0.4559  0.8070  0.2922
  104MOL   C38941795   1.424   1.990   2.261  0.4493 -0.1283  0.3357
  104MOL   C39041796   1.551   1.927   2.284  0.2803 -0.1602 -0.1632
  104MOL   C39141797   1.799   1.737   2.113 -0.2450 -0.3915 -0.2506
  104MOL   H39241798   1.759   1.778   2.324  0.8387 -0.2692 -0.8015
  104MOL   H39341799   1.491   1.665   2.063 -1.0422 -0.6937  1.2199
  104MOL   H39441800   1.296   1.779   2.028  1.1695  0.0135 -1.6232
  104MOL   H39541801   1.081   2.158   2.173  0.2131  1.7340  1.7282
  104MOL   H39641802   1.252   2.194   2.210  1.2210  0.2738  4.0195
  104MOL   H39741803   1.157   2.084   2.316  2.0493 -1.0718 -0.0289
  104MOL   H39841804   1.402   2.081   2.316 -3.1595  0.2269 -1.5465
  104MOL   H39941805   1.610   1.955   2.370  0.1294  0.7876 -0.3600
  104MOL   H40041806   1.838   1.838   2.098  0.3263 -0.7085 -0.9396
  104MOL   H40141807   1.746   1.704   2.024  1.5899 -2.8757 -0.4928
  104MOL   H40241808   1.884   1.670   2.131 -1.2058 -1.0945  1.9023
  105MOL     C141809   7.283   3.090   0.085 -0.5424  0.1262  0.6947
  105MOL     C241810   7.394   3.078   8.024 -0.0277  0.2790  0.0911
  105MOL     C341811   7.361   3.073   7.892  0.1374 -0.2669 -0.4050
  105MOL     C441812   7.460   3.071   7.790  0.0661 -0.2183  0.0462
  105MOL     C541813   7.593   3.040   7.819  0.1227 -0.4499 -0.3627
  105MOL     O641814   7.687   3.022   7.718 -0.0273 -0.1961  0.3229
  105MOL     C741815   7.649   3.049   7.586  0.3869 -0.4946  0.1489
  105MOL     C841816   7.623   3.033   7.959 -0.0939  0.1401  0.1699
  105MOL     C941817   7.527   3.057   0.017 -0.4418  0.5529 -0.1914
  105MOL    C1041818   7.255   2.961   0.161  0.1073  0.1074 -0.3164
  105MOL    H1141819   7.189   3.111   0.033  0.1376  0.1068 -0.5704
  105MOL    H1241820   7.256   3.075   7.867  0.1636 -1.7695 -0.7035
  105MOL    H1341821   7.420   3.068   7.689 -1.8957  3.2770  0.6458
  105MOL    H1441822   7.737   3.073   7.525  0.2152  1.9723  0.8263
  105MOL    H1541823   7.602   2.962   7.541  0.2570  0.0287 -0.7517
  105MOL    H1641824   7.594   3.143   7.577  1.2308  0.1149  1.2898
  105MOL    H1741825   7.727   3.021   7.984 -0.4672 -0.4181  1.4587
  105MOL    H1841826   7.553   3.062   0.122 -0.8994 -2.5965  0.1221
  105MOL    H1941827   7.222   2.890   0.084  1.0033 -0.2442 -0.3852
  105MOL    H2041828   7.347   2.910   0.192 -1.2921 -2.4351 -0.2166
  105MOL    H2141829   7.303   3.168   0.159  0.7963  0.8598 -0.4097
  105MOL    C2241830   7.156   2.961   0.273 -0.6005  0.1815  0.8504
  105MOL    C2341831   7.100   2.820   0.303  0.1100  0.1608  0.4009
  105MOL    C2441832   7.195   2.713   0.326  0.3562 -0.5610 -0.0817
  105MOL    C2541833   7.144   2.587   0.363  0.2490  0.2813 -0.5446
  105MOL    C2641834   7.005   2.562   0.378  0.5402  0.0482  0.6289
  105MOL    O2741835   6.947   2.449   0.432  0.6306 -0.3234  0.0889
  105MOL    C2841836   7.025   2.364   0.511 -0.8616 -0.0449  0.5979
  105MOL    C2941837   6.912   2.666   0.341 -0.3173 -0.2478  0.1718
  105MOL    C3041838   6.962   2.799   0.309 -0.6405 -0.1317 -0.7108
  105MOL    C3141839   7.217   3.035   0.394 -0.4072 -0.1147  0.0120
  105MOL    H3241840   7.073   3.024   0.241  1.0464  1.5446 -0.8616
  105MOL    H3341841   7.301   2.734   0.323  0.3141  0.3198  3.0129
  105MOL    H3441842   7.212   2.505   0.380  0.0728  0.8818  3.7300
  105MOL    H3541843   6.982   2.269   0.540  0.5358 -0.8693  0.0358
  105MOL    H3641844   7.048   2.423   0.600  0.5068  3.7251 -2.1188
  105MOL    H3741845   7.121   2.334   0.469 -0.7165 -0.7009  1.3931
  105MOL    H3841846   6.809   2.633   0.340 -0.5223  0.3684  1.1601
  105MOL    H3941847   6.895   2.881   0.290  1.6508  2.0872  0.5237
  105MOL    H4041848   7.312   2.993   0.426  1.7675  4.9727  0.7259
  105MOL    H4141849   7.249   3.136   0.368  1.0054 -0.6515 -0.3492
  105MOL    C4241850   7.122   3.036   0.518 -0.2593  1.0346  0.3362
  105MOL    C4341851   7.118   3.171   0.582  0.0737 -0.1807  0.2769
  105MOL    C4441852   6.995   3.214   0.628  0.0274 -0.8797 -0.3468
  105MOL    C4541853   6.989   3.338   0.691  0.2670 -1.4227  0.1170
  105MOL    C4641854   7.102   3.417   0.714  0.3984 -0.9208  0.1810
  105MOL    O4741855   7.085   3.539   0.778  0.1054 -0.2183  0.1460
  105MOL    C4841856   7.204   3.618   0.797  0.3473  0.0469  0.0509
  105MOL    C4941857   7.226   3.365   0.676  0.4336 -1.1283  0.3436
  105MOL    C5041858   7.237   3.250   0.603 -0.0271  0.3117 -0.2163
  105MOL    C5141859   7.173   2.937   0.626 -0.2776  0.1130  0.3936
  105MOL    H5241860   7.022   3.014   0.483  0.4219 -2.6154  0.5589
  105MOL    H5341861   6.901   3.162   0.625 -0.2579 -0.3748 -0.0524
  105MOL    H5441862   6.892   3.380   0.716  0.6027 -0.3284 -0.3940
  105MOL    H5541863   7.262   3.578   0.881  1.6655  2.4184  0.3181
  105MOL    H5641864   7.252   3.640   0.702  0.6345  0.0531  0.1963
  105MOL    H5741865   7.159   3.709   0.838  0.1834  0.2725 -0.6281
  105MOL    H5841866   7.315   3.427   0.682 -0.4400  0.5356 -2.6460
  105MOL    H5941867   7.332   3.215   0.564 -0.0033  0.4904 -0.3188
  105MOL    H6041868   7.271   2.968   0.662 -0.4183  0.9311  0.0842
  105MOL    H6141869   7.195   2.838   0.587 -0.9557 -0.9213  2.5709
  105MOL    C6241870   7.086   2.914   0.755  0.5425 -0.2061 -0.4394
  105MOL    C6341871   7.182   2.894   0.878  0.5706 -0.3103  0.0267
  105MOL    C6441872   7.280   2.797   0.875  0.6539  0.0638 -0.2787
  105MOL    C6541873   7.372   2.788   0.981 -0.3300 -0.1477 -0.0109
  105MOL    C6641874   7.361   2.865   1.096 -0.6695  0.5151 -0.2890
  105MOL    O6741875   7.454   2.832   1.197  0.0802 -0.2034  0.4144
  105MOL    C6841876   7.417   2.880   1.322  0.3943  0.3098 -0.3479
  105MOL    C6941877   7.260   2.965   1.096  0.3495  0.3770 -0.0083
  105MOL    C7041878   7.169   2.973   0.993 -0.1164  0.4461  0.1044
  105MOL    C7141879   6.975   2.806   0.753  0.2902  0.7428 -0.6487
  105MOL    H7241880   7.024   3.001   0.776 -1.8876 -2.0548  0.3082
  105MOL    H7341881   7.293   2.740   0.784  0.4957  1.9730 -1.5247
  105MOL    H7441882   7.453   2.718   0.964  0.7743  1.2045 -0.4131
  105MOL    H7541883   7.318   2.844   1.347  0.4815  0.8465  0.8019
  105MOL    H7641884   7.412   2.989   1.326 -0.5823  0.2525 -0.0721
  105MOL    H7741885   7.484   2.853   1.404 -0.6136 -1.6375 -0.1433
  105MOL    H7841886   7.248   3.028   1.183 -0.7859  1.9825 -1.3253
  105MOL    H7941887   7.092   3.049   0.998 -0.9423 -0.2329 -1.7303
  105MOL    H8041888   6.941   2.797   0.650 -0.7440 -2.2433 -0.1205
  105MOL    H8141889   7.019   2.709   0.778  0.4422  0.5740 -1.5540
  105MOL    C8241890   6.845   2.829   0.830 -0.5461  0.0481 -0.3510
  105MOL    C8341891   6.759   2.940   0.769 -0.6045 -0.7236  0.0682
  105MOL    C8441892   6.720   2.952   0.633 -0.0496  0.1751 -1.1549
  105MOL    C8541893   6.628   3.045   0.600  0.0227 -0.8230  0.9958
  105MOL    C8641894   6.565   3.133   0.692 -0.6137  0.5318  0.0982
  105MOL    O8741895   6.475   3.223   0.650 -0.2344 -0.4014  0.1897
  105MOL    C8841896   6.489   3.354   0.703  0.2646 -0.6248 -0.2154
  105MOL    C8941897   6.620   3.133   0.826 -0.3248 -0.0818  0.2606
  105MOL    C9041898   6.713   3.034   0.864  0.0930 -0.1740  0.0956
  105MOL    C9141899   6.762   2.706   0.847 -0.5737 -0.0660 -0.5439
  105MOL    H9241900   6.892   2.852   0.925  2.4854 -0.8526 -1.5600
  105MOL    H9341901   6.740   2.871   0.564 -2.4190  0.3415 -2.0840
  105MOL    H9441902   6.594   3.046   0.498 -2.6437  0.5360  1.8255
  105MOL    H9541903   6.586   3.393   0.672 -0.3514  0.5453 -0.7057
  105MOL    H9641904   6.484   3.366   0.811 -1.7286 -0.4101 -0.3082
  105MOL    H9741905   6.414   3.423   0.663  1.4778  0.3898 -0.7614
  105MOL    H9841906   6.591   3.203   0.903  2.4831  0.2849  1.0492
  105MOL    H9941907   6.754   3.029   0.964 -1.0244 -0.2265  0.5611
  105MOL   H10041908   6.712   2.690   0.751 -3.0812 -0.9827  0.8836
  105MOL   H10141909   6.823   2.620   0.873  0.0131  0.6460  0.4331
  105MOL   C10241910   6.657   2.715   0.962 -0.4859 -0.7719 -0.6458
  105MOL   C10341911   6.537   2.618   0.934  0.4876  0.0765 -0.1557
  105MOL   C10441912   6.555   2.487   0.877 -0.4734 -0.3961  0.3092
  105MOL   C10541913   6.438   2.405   0.852  0.0187 -0.4440 -0.2574
  105MOL   C10641914   6.309   2.455   0.878  0.2184  0.1822 -0.1846
  105MOL   O10741915   6.194   2.390   0.846 -0.1739  0.3503  0.3149
  105MOL   C10841916   6.196   2.259   0.794  0.1759 -0.3790  0.2165
  105MOL   C10941917   6.290   2.584   0.930  0.1004 -0.3296  0.1464
  105MOL   C11041918   6.405   2.665   0.957  0.3417  0.8129  0.7510
  105MOL   C11141919   6.713   2.707   1.104 -0.3159  0.5045 -0.2584
  105MOL   H11241920   6.617   2.816   0.969  0.8441 -0.2200 -0.8115
  105MOL   H11341921   6.648   2.435   0.858  0.1853  1.0616 -0.4713
  105MOL   H11441922   6.449   2.305   0.814 -0.5313  0.7223 -3.6367
  105MOL   H11541923   6.258   2.187   0.846  1.6958  0.3989 -0.4953
  105MOL   H11641924   6.095   2.217   0.787 -0.4349  1.2476 -1.1348
  105MOL   H11741925   6.236   2.277   0.694 -0.2038 -0.0441  0.1219
  105MOL   H11841926   6.190   2.622   0.947  0.7622  1.4602  0.1148
  105MOL   H11941927   6.389   2.769   0.980 -0.2383  1.0566 -0.6819
  105MOL   H12041928   6.772   2.795   1.131 -1.0490  0.7083  0.7323
  105MOL   H12141929   6.623   2.710   1.166 -0.8027 -1.5138 -0.8308
  105MOL   C12241930   6.791   2.582   1.144  0.4900  0.4352  0.7584
  105MOL   C12341931   6.733   2.507   1.268  0.1773 -0.7366  0.0872
  105MOL   C12441932   6.620   2.420   1.262 -0.3573  0.2632  0.1130
  105MOL   C12541933   6.602   2.326   1.366  0.1930 -0.1119 -0.1194
  105MOL   C12641934   6.691   2.314   1.479 -0.3974 -0.4835  0.2067
  105MOL   O12741935   6.681   2.202   1.563 -0.4651  0.0045 -0.1825
  105MOL   C12841936   6.794   2.149   1.620 -0.4650 -0.1731 -0.1473
  105MOL   C12941937   6.788   2.417   1.489  0.2994 -0.3327  0.3211
  105MOL   C13041938   6.810   2.517   1.383  0.3911 -0.4556 -0.3983
  105MOL   C13141939   6.943   2.613   1.152 -0.9680  0.7409  0.3140
  105MOL   H13241940   6.792   2.505   1.068  1.8459 -0.5502  1.7511
  105MOL   H13341941   6.550   2.409   1.180  2.3180 -2.5333 -1.9035
  105MOL   H13441942   6.518   2.259   1.356 -0.1271  0.4090 -0.9951
  105MOL   H13541943   6.843   2.201   1.701 -1.4257 -1.7407  1.4742
  105MOL   H13641944   6.775   2.048   1.656  0.3302 -0.9528 -1.8232
  105MOL   H13741945   6.866   2.128   1.540 -0.9901  0.7407 -0.8762
  105MOL   H13841946   6.858   2.419   1.571  2.2231  2.4609 -1.3223
  105MOL   H13941947   6.890   2.587   1.399 -0.7290  0.5839  0.8389
  105MOL   H14041948   6.964   2.697   1.219  2.4644  0.5776 -0.4634
  105MOL   H14141949   6.981   2.653   1.057  0.5527 -0.4252  0.4100
  105MOL   C14241950   7.029   2.481   1.175 -0.0832 -0.1963 -0.3373
  105MOL   C14341951   6.987   2.364   1.085  0.0782  0.1506  0.2678
  105MOL   C14441952   6.932   2.242   1.136  0.1932 -0.7072  0.5909
  105MOL   C14541953   6.888   2.136   1.053  0.2835 -0.6495  0.5254
  105MOL   C14641954   6.879   2.157   0.911  0.1193  0.9502 -0.3320
  105MOL   O14741955   6.822   2.049   0.845 -0.1941 -0.4743  0.4828
  105MOL   C14841956   6.778   2.075   0.713 -0.0538 -0.4607  0.1703
  105MOL   C14941957   6.927   2.278   0.858 -0.1557 -0.4066  0.4688
  105MOL   C15041958   6.993   2.372   0.944 -0.5917  0.2879  0.3279
  105MOL   C15141959   7.185   2.501   1.170  0.5661 -0.1751  0.0982
  105MOL   H15241960   7.016   2.454   1.280 -2.1794 -0.5106 -0.6672
  105MOL   H15341961   6.928   2.220   1.241 -1.9825 -0.4851  0.5959
  105MOL   H15441962   6.846   2.049   1.102 -2.5651 -0.1810 -0.9140
  105MOL   H15541963   6.852   2.031   0.647 -1.6018  0.7208 -2.4516
  105MOL   H15641964   6.679   2.030   0.712 -0.0792 -0.4252  0.6550
  105MOL   H15741965   6.770   2.181   0.688  0.9602 -0.4488 -0.1255
  105MOL   H15841966   6.918   2.289   0.751  1.3596 -1.3734  0.2222
  105MOL   H15941967   7.035   2.463   0.903  0.0459 -0.5894 -1.0163
  105MOL   H16041968   7.213   2.588   1.230  1.2129  0.5206 -1.2086
  105MOL   H16141969   7.223   2.520   1.070 -1.3172  0.1959 -0.5545
  105MOL   C16241970   7.269   2.385   1.229  0.3259 -0.1408 -0.5134
  105MOL   C16341971   7.215   2.327   1.360 -0.1655 -0.3808  0.2055
  105MOL   C16441972   7.220   2.408   1.477 -0.0053 -0.3006 -0.0247
  105MOL   C16541973   7.189   2.361   1.606  0.3018 -0.2412  0.4689
  105MOL   C16641974   7.153   2.225   1.614  1.0506 -0.4035 -0.1390
  105MOL   O16741975   7.126   2.183   1.745  0.1721  0.2430 -0.3623
  105MOL   C16841976   7.097   2.049   1.771 -0.1209  0.0209  0.3018
  105MOL   C16941977   7.141   2.139   1.499  0.1071 -0.1036 -0.3220
  105MOL   C17041978   7.173   2.190   1.371 -0.4590 -0.6313 -0.1238
  105MOL   C17141979   7.421   2.406   1.229  0.7776 -0.2347  0.1459
  105MOL   H17241980   7.263   2.296   1.167 -0.5657 -1.8587  1.9877
  105MOL   H17341981   7.249   2.511   1.466 -0.5785  0.0174  1.3878
  105MOL   H17441982   7.193   2.424   1.694  0.4546 -0.3000  0.5044
  105MOL   H17541983   7.031   2.009   1.694  1.1499  0.1592 -0.8602
  105MOL   H17641984   7.066   2.031   1.874 -0.8255  1.5329  0.3746
  105MOL   H17741985   7.188   1.990   1.775 -0.6688 -0.8279  0.3648
  105MOL   H17841986   7.099   2.040   1.512  1.7422 -0.7662  0.0259
  105MOL   H17941987   7.183   2.118   1.291  2.4756  0.9125 -1.2074
  105MOL   H18041988   7.463   2.318   1.278 -0.3322 -0.0817  1.3913
  105MOL   H18141989   7.447   2.492   1.289 -1.1395  2.1907 -2.3631
  105MOL   C18241990   7.496   2.430   1.095  0.0717 -0.5847  0.1545
  105MOL   C18341991   7.434   2.355   0.976 -0.1842  0.3031  0.1826
  105MOL   C18441992   7.394   2.425   0.859 -0.6132  0.2992  0.0644
  105MOL   C18541993   7.339   2.354   0.748 -0.2784 -0.3519 -0.4824
  105MOL   C18641994   7.324   2.214   0.747 -0.1972  0.1528 -0.3825
  105MOL   O18741995   7.274   2.158   0.632 -0.4972  0.1912 -0.1587
  105MOL   C18841996   7.230   2.025   0.636  0.0863 -0.5391  0.5440
  105MOL   C18941997   7.356   2.150   0.871 -0.2658  0.9021  0.1313
  105MOL   C19041998   7.412   2.214   0.979 -1.3776  0.4611  0.0119
  105MOL   C19141999   7.639   2.389   1.099  0.0569 -0.1508 -1.1405
  105MOL   H19242000   7.494   2.537   1.072 -1.0610 -0.5424  0.4197
  105MOL   H19342001   7.408   2.530   0.836  0.1550 -0.0110 -0.9328
  105MOL   H19442002   7.310   2.414   0.664  0.0259  1.2442  0.5280
  105MOL   H19542003   7.162   2.006   0.719 -0.4944  0.9286  0.4176
  105MOL   H19642004   7.312   1.954   0.643 -0.5242 -1.2053  0.9309
  105MOL   H19742005   7.162   2.014   0.552 -0.9249 -0.9546  1.4137
  105MOL   H19842006   7.337   2.045   0.883  0.4713  1.0480  2.7992
  105MOL   H19942007   7.428   2.158   1.070 -0.6561 -0.2186 -0.5300
  105MOL   H20042008   7.623   2.285   1.129  0.4521  0.4338  1.1722
  105MOL   H20142009   7.689   2.385   1.002  0.8092 -2.1496 -0.6950
  105MOL   C20242010   7.737   2.463   1.197  0.3228 -0.2735  0.1125
  105MOL   C20342011   7.780   2.598   1.143  0.1975 -0.1857  0.9428
  105MOL   C20442012   7.742   2.714   1.215  0.0644  0.3011  0.2371
  105MOL   C20542013   7.773   2.841   1.160  0.0335 -0.0416  1.0121
  105MOL   C20642014   7.847   2.852   1.042 -0.5436  0.0444  0.2993
  105MOL   O20742015   7.890   2.968   0.986 -0.3432 -0.3647  0.0852
  105MOL   C20842016   7.956   3.043   1.080  0.3127 -0.0800  0.3516
  105MOL   C20942017   7.887   2.740   0.975  0.1487  0.1278  0.0537
  105MOL   C21042018   7.852   2.613   1.017 -0.4015  0.0827 -0.4837
  105MOL   C21142019   7.851   2.367   1.231 -1.0246  0.2107 -0.1513
  105MOL   H21242020   7.684   2.486   1.289 -0.7172  1.4290 -0.8927
  105MOL   H21342021   7.701   2.719   1.314 -0.7565 -1.7957  0.0381
  105MOL   H21442022   7.744   2.921   1.226 -0.5719 -1.1774  2.1234
  105MOL   H21542023   7.887   3.079   1.156  1.1550 -1.6132  1.8814
  105MOL   H21642024   8.030   2.986   1.135 -0.0784 -1.8493 -0.9052
  105MOL   H21742025   8.007   3.118   1.020  0.4112 -0.7271 -0.3875
  105MOL   H21842026   7.939   2.748   0.881  0.9980  0.1277  0.5154
  105MOL   H21942027   7.873   2.522   0.962 -0.6491 -0.8811  0.9870
  105MOL   H22042028   7.901   2.331   1.140 -0.1668  0.9950 -0.0036
  105MOL   H22142029   7.817   2.276   1.280 -1.5623  0.5170  0.0457
  105MOL   C22242030   7.964   2.422   1.325  0.5607 -0.1836  0.5404
  105MOL   C22342031   7.901   2.479   1.455 -0.2554 -0.2713  0.1060
  105MOL   C22442032   7.908   2.617   1.478  0.7492  1.0265  0.2413
  105MOL   C22542033   7.866   2.673   1.603 -0.2680 -0.5466 -0.0184
  105MOL   C22642034   7.813   2.592   1.703  0.7418 -0.4837 -0.1618
  105MOL   O22742035   7.774   2.660   1.820  0.2256 -0.0396 -0.5662
  105MOL   C22842036   7.717   2.585   1.925 -0.5830 -0.5910 -0.4055
  105MOL   C22942037   7.805   2.455   1.684  0.0016  0.5601 -0.4260
  105MOL   C23042038   7.853   2.399   1.564  1.0738 -0.3025  0.1948
  105MOL   C23142039   0.050   2.337   1.356 -0.0243  0.9466  0.4118
  105MOL   H23242040   7.999   2.511   1.274  1.1636 -0.8253 -0.1622
  105MOL   H23342041   7.944   2.675   1.394  1.8447 -1.8142 -1.3244
  105MOL   H23442042   7.864   2.780   1.616  0.5273 -0.5599  0.2306
  105MOL   H23542043   7.758   2.486   1.942 -0.7155 -0.2852  1.8496
  105MOL   H23642044   7.749   2.642   2.013 -0.2254 -0.0330 -0.8930
  105MOL   H23742045   7.610   2.579   1.905 -0.8428 -0.4313  0.8626
  105MOL   H23842046   7.769   2.380   1.753  2.2918 -1.0078 -0.8900
  105MOL   H23942047   7.846   2.293   1.545 -0.1561 -0.1799 -0.0789
  105MOL   H24042048   0.105   2.384   1.437  0.7571  2.5081 -1.0069
  105MOL   H24142049   0.024   2.240   1.399  0.2507 -0.2301 -1.9781
  105MOL   C24242050   0.154   2.308   1.247 -0.1640 -0.4771 -0.0669
  105MOL   C24342051   0.170   2.420   1.148 -0.1512 -0.0016  0.5834
  105MOL   C24442052   0.110   2.413   1.020 -0.9149  0.5990 -1.0109
  105MOL   C24542053   0.137   2.514   0.925  0.2424 -0.2756 -0.1589
  105MOL   C24642054   0.215   2.622   0.963 -0.3474 -0.7022  0.0969
  105MOL   O24742055   0.252   2.732   0.880 -0.6701  0.6505  0.3834
  105MOL   C24842056   0.186   2.748   0.755  0.2986  0.1751 -0.1401
  105MOL   C24942057   0.258   2.639   1.096 -0.2583  0.2568  0.6115
  105MOL   C25042058   0.233   2.535   1.190 -0.1861  0.1072  0.1873
  105MOL   C25142059   0.286   2.250   1.308 -0.3893  0.0520 -0.2453
  105MOL   H25242060   0.118   2.222   1.191  1.6204 -1.2840 -0.0207
  105MOL   H25342061   0.069   2.315   0.998  1.7481 -0.6058 -0.8372
  105MOL   H25442062   0.109   2.496   0.822  0.5916  0.0197 -0.3099
  105MOL   H25542063   0.079   2.728   0.757  1.0902 -4.6597  1.0261
  105MOL   H25642064   0.205   2.845   0.708  3.1884  0.1464  0.8744
  105MOL   H25742065   0.226   2.672   0.688  2.3695  0.4460  0.7380
  105MOL   H25842066   0.296   2.736   1.127 -2.1074  0.9535  0.7407
  105MOL   H25942067   0.273   2.551   1.289  1.1881 -0.2279 -0.3029
  105MOL   H26042068   0.247   2.167   1.366 -2.3597  1.0307 -0.1281
  105MOL   H26142069   0.326   2.312   1.388  1.6222 -1.7926  0.1964
  105MOL   C26242070   0.410   2.216   1.224  0.5178 -0.5247  0.0339
  105MOL   C26342071   0.464   2.082   1.268  0.3548 -0.2151  0.0648
  105MOL   C26442072   0.481   1.966   1.185 -0.1578  0.4066  0.9913
  105MOL   C26542073   0.538   1.842   1.231 -0.1111 -0.3167  0.7460
  105MOL   C26642074   0.579   1.837   1.366  0.6994  0.1012  0.0347
  105MOL   O26742075   0.638   1.725   1.424  0.5320 -0.0112 -0.5951
  105MOL   C26842076   0.683   1.601   1.359  0.1826  0.1241 -0.2964
  105MOL   C26942077   0.577   1.956   1.439  0.1708 -0.0194 -0.6502
  105MOL   C27042078   0.519   2.075   1.400 -0.0950 -0.0091 -0.5856
  105MOL   C27142079   0.510   2.330   1.245  0.1687  0.2949  0.3771
  105MOL   H27242080   0.385   2.205   1.118 -0.6058  0.3558  0.1996
  105MOL   H27342081   0.424   1.965   1.093 -0.9726 -1.5589  1.5017
  105MOL   H27442082   0.531   1.749   1.176 -1.0488 -0.8883  1.8205
  105MOL   H27542083   0.778   1.621   1.309  0.7375 -0.3493  0.5602
  105MOL   H27642084   0.615   1.565   1.281  2.2667  0.9755 -2.5659
  105MOL   H27742085   0.690   1.519   1.430 -0.6747  0.2266 -0.0819
  105MOL   H27842086   0.614   1.952   1.540  0.2726 -0.6024 -0.7070
  105MOL   H27942087   0.511   2.162   1.464  2.2034  0.0047 -0.2799
  105MOL   H28042088   0.458   2.425   1.233  0.4753  0.2411 -1.4631
  105MOL   H28142089   0.552   2.336   1.346 -1.5939 -3.5870  1.4504
  105MOL   C28242090   0.626   2.326   1.143  0.0744 -0.0991  0.1257
  105MOL   C28342091   0.756   2.362   1.210 -0.6593  0.2268 -0.5298
  105MOL   C28442092   0.852   2.259   1.234 -0.2127 -0.0240 -0.4326
  105MOL   C28542093   0.972   2.287   1.308  0.2889  0.6220  0.3167
  105MOL   C28642094   0.992   2.419   1.358 -0.3178  0.3522 -0.1822
  105MOL   O28742095   1.111   2.461   1.419  0.1407 -0.0585  0.2984
  105MOL   C28842096   1.208   2.365   1.459  0.0762  0.7745 -0.0086
  105MOL   C28942097   0.899   2.523   1.324 -0.8179  0.3238 -0.0816
  105MOL   C29042098   0.781   2.492   1.256 -0.2602 -0.1034  0.1515
  105MOL   C29142099   0.593   2.411   1.015  0.1793 -0.7634  0.6668
  105MOL   H29242100   0.623   2.222   1.110  0.9016  0.1238 -0.6835
  105MOL   H29342101   0.842   2.162   1.186 -2.3972 -1.3795  2.6342
  105MOL   H29442102   1.050   2.213   1.307 -1.3914 -1.2150 -1.3091
  105MOL   H29542103   1.252   2.324   1.368  0.6037  0.2091  0.4959
  105MOL   H29642104   1.299   2.406   1.503  1.8816 -2.2781 -0.7606
  105MOL   H29742105   1.163   2.294   1.528  4.2163 -0.8407  1.1828
  105MOL   H29842106   0.926   2.627   1.330  0.4052  0.0818 -1.3927
  105MOL   H29942107   0.714   2.572   1.226 -0.3112 -1.3338 -3.2647
  105MOL   H30042108   0.487   2.396   0.998  0.4320 -0.5644 -1.2356
  105MOL   H30142109   0.611   2.518   1.026  1.9873 -0.9280 -0.4604
  105MOL   C30242110   0.667   2.350   0.892  0.3794 -0.3254 -0.3340
  105MOL   C30342111   0.599   2.212   0.861 -0.0802 -0.2967  0.1711
  105MOL   C30442112   0.664   2.090   0.879  0.3033  0.2735  0.2139
  105MOL   C30542113   0.593   1.967   0.846  0.5367  0.5592 -0.4160
  105MOL   C30642114   0.465   1.963   0.788  0.1522 -0.4630  0.3433
  105MOL   O30742115   0.413   1.842   0.760 -0.1679  0.2954  0.5198
  105MOL   C30842116   0.307   1.841   0.666  0.7807 -0.0178  0.3351
  105MOL   C30942117   0.410   2.089   0.758  0.2382 -0.1868  0.4039
  105MOL   C31042118   0.471   2.210   0.803  0.3986 -0.7307 -0.1034
  105MOL   C31142119   0.667   2.437   0.761  0.4833 -0.0443 -0.4029
  105MOL   H31242120   0.769   2.336   0.927  1.1303  0.6725 -2.0637
  105MOL   H31342121   0.767   2.083   0.908  0.2671 -1.4725 -0.0056
  105MOL   H31442122   0.643   1.872   0.863 -3.7703 -1.6578  0.4150
  105MOL   H31542123   0.214   1.892   0.688  0.3840 -0.8558  0.6166
  105MOL   H31642124   0.287   1.735   0.650 -0.3661  0.4517 -1.4096
  105MOL   H31742125   0.332   1.878   0.566 -0.9153  4.8762  1.6157
  105MOL   H31842126   0.317   2.112   0.709  0.0065  0.3455  1.0703
  105MOL   H31942127   0.407   2.296   0.785 -0.4951 -1.1860  0.8961
  105MOL   H32042128   0.712   2.526   0.806 -2.0036 -0.6346  3.4831
  105MOL   H32142129   0.566   2.450   0.723  0.3810 -1.0800 -0.4934
  105MOL   C32242130   0.762   2.394   0.645 -0.1897  0.1430  0.4072
  105MOL   C32342131   0.826   2.512   0.575 -0.9423  0.0964 -0.6859
  105MOL   C32442132   0.747   2.601   0.509 -0.1748 -0.1103  0.9971
  105MOL   C32542133   0.793   2.715   0.442  0.0408 -0.2707 -0.0385
  105MOL   C32642134   0.930   2.752   0.459 -0.1796  0.3213 -0.3342
  105MOL   O32742135   0.978   2.868   0.412  0.0557 -0.1747  0.1373
  105MOL   C32842136   0.933   2.919   0.283  0.0691  0.3596  0.4182
  105MOL   C32942137   1.021   2.666   0.522  0.6826  1.1478  0.0452
  105MOL   C33042138   0.970   2.540   0.572 -0.4281 -0.0264  0.1605
  105MOL   C33142139   0.692   2.295   0.543 -0.2563 -0.1310 -0.8010
  105MOL   H33242140   0.841   2.337   0.694 -0.2867  0.3850  0.8480
  105MOL   H33342141   0.640   2.586   0.514 -0.3049 -0.6342 -2.1726
  105MOL   H33442142   0.724   2.781   0.391 -1.3064  1.0273  3.3134
  105MOL   H33542143   0.928   2.831   0.219 -1.5723 -0.0725  1.1076
  105MOL   H33642144   1.010   2.982   0.239 -0.8341  0.2804 -1.3291
  105MOL   H33742145   0.837   2.970   0.290  0.3749  1.0904 -0.5555
  105MOL   H33842146   1.122   2.697   0.546  1.0116  0.5044 -0.4913
  105MOL   H33942147   1.037   2.467   0.615  1.6263  0.8093 -1.5885
  105MOL   H34042148   0.658   2.211   0.603  0.7381  0.5939  0.8037
  105MOL   H34142149   0.615   2.351   0.491 -2.1975 -0.9986  1.0778
  105MOL   C34242150   0.777   2.224   0.434 -0.0121 -0.0506 -1.3999
  105MOL   C34342151   0.806   2.316   0.314 -0.0008  0.4349  0.5193
  105MOL   C34442152   0.937   2.377   0.290 -0.2337  0.0824 -0.5814
  105MOL   C34542153   0.954   2.468   0.181 -0.9140  0.6534 -0.4660
  105MOL   C34642154   0.847   2.485   0.089 -0.2448 -0.5744 -0.5695
  105MOL   O34742155   0.848   2.552   8.007 -0.1496  0.3024 -0.1658
  105MOL   C34842156   0.971   2.619   7.977 -0.1122 -0.2214 -0.4535
  105MOL   C34942157   0.721   2.431   0.121  0.0433 -0.4551 -0.1035
  105MOL   C35042158   0.701   2.351   0.228  0.4915 -0.0857 -0.2920
  105MOL   C35142159   0.711   2.088   0.391 -0.3509 -0.2642 -0.0196
  105MOL   H35242160   0.873   2.195   0.477 -0.7415 -0.5922 -0.1204
  105MOL   H35342161   1.026   2.359   0.349  0.5907  0.4241 -1.6932
  105MOL   H35442162   1.053   2.502   0.155 -0.1344  0.5186  2.1776
  105MOL   H35542163   0.964   2.651   7.873  1.2165 -2.9287 -1.4283
  105MOL   H35642164   0.993   2.706   0.000 -0.5094 -0.9952  0.7621
  105MOL   H35742165   1.057   2.553   7.983  0.0754  0.1928  1.9580
  105MOL   H35842166   0.650   2.469   0.049  0.8493 -0.6904 -1.0187
  105MOL   H35942167   0.598   2.319   0.236  0.7731 -0.6967  1.2413
  105MOL   H36042168   0.606   2.107   0.412 -1.5701 -2.3720 -3.8276
  105MOL   H36142169   0.728   2.071   0.285 -0.9153  0.2170 -0.1835
  105MOL   C36242170   0.758   1.966   0.476 -0.4225 -0.4913 -0.2437
  105MOL   C36342171   0.911   1.934   0.474 -0.0067  0.0337  0.2337
  105MOL   C36442172   0.992   1.951   0.361  0.6303 -0.3522  0.3206
  105MOL   C36542173   1.132   1.931   0.362 -0.6099 -0.4721  0.4524
  105MOL   C36642174   1.200   1.887   0.480 -0.2168  0.1639 -0.2838
  105MOL   O36742175   1.334   1.863   0.485  0.3530 -0.2713  0.3413
  105MOL   C36842176   1.409   1.847   0.365  0.6037 -0.0798 -0.0249
  105MOL   C36942177   1.118   1.876   0.595 -0.5587 -0.2802 -0.4333
  105MOL   C37042178   0.981   1.903   0.598  0.0497  0.3425  0.0700
  105MOL   C37142179   0.661   1.846   0.472 -0.2483  0.3117 -0.0908
  105MOL   H37242180   0.743   1.991   0.581 -2.0014  0.1852 -0.6145
  105MOL   H37342181   0.959   1.989   0.265 -0.2061  0.5710  0.9665
  105MOL   H37442182   1.178   1.951   0.267 -3.2574 -0.6856 -0.9179
  105MOL   H37542183   1.403   1.936   0.302  2.6654 -0.3871 -0.7001
  105MOL   H37642184   1.513   1.824   0.386  0.5404 -2.5794 -2.2318
  105MOL   H37742185   1.371   1.762   0.309  0.9909 -1.0624  1.1925
  105MOL   H37842186   1.163   1.843   0.688 -1.1250 -1.2914 -0.5094
  105MOL   H37942187   0.928   1.895   0.692  1.3877  1.4686  0.9456
  105MOL   H38042188   0.690   1.788   0.560  1.7538  1.6421  0.1516
  105MOL   H38142189   0.567   1.897   0.495 -0.7095 -0.4674 -0.2284
  105MOL   C38242190   0.647   1.759   0.343  0.1620  0.2205 -0.7924
  105MOL   C38342191   0.522   1.681   0.360  0.2558  0.1320 -0.6054
  105MOL   C38442192   0.422   1.676   0.258 -0.9516 -0.2187 -0.6964
  105MOL   C38542193   0.293   1.635   0.293  0.0632 -0.4754  0.0807
  105MOL   C38642194   0.269   1.565   0.416  0.0344 -0.8915 -0.4931
  105MOL   O38742195   0.143   1.526   0.438 -0.1000 -0.5848 -0.1612
  105MOL   C38842196   0.113   1.489   0.569  0.1410 -0.1918 -0.1495
  105MOL   C38942197   0.375   1.539   0.504  0.1118  0.3349 -0.6495
  105MOL   C39042198   0.497   1.609   0.481 -0.1423 -0.4067 -0.0989
  105MOL   C39142199   0.771   1.661   0.322  0.7121  0.1130 -0.3294
  105MOL   H39242200   0.631   1.834   0.265  0.8954  1.0138 -0.1856
  105MOL   H39342201   0.443   1.715   0.160  0.4737  0.3757 -0.1770
  105MOL   H39442202   0.213   1.646   0.221  2.3599  0.9254 -2.3219
  105MOL   H39542203   0.164   1.400   0.604 -0.8123 -0.8224 -0.3362
  105MOL   H39642204   0.007   1.467   0.557  0.1123  0.5153 -1.2816
  105MOL   H39742205   0.137   1.558   0.650  0.2332 -0.2433 -0.1331
  105MOL   H39842206   0.365   1.491   0.601  1.5772  0.5116 -0.3947
  105MOL   H39942207   0.573   1.590   0.556 -1.8276  0.6574  1.9318
  105MOL   H40042208   0.766   1.607   0.228 -0.4570  0.4284 -0.4581
  105MOL   H40142209   0.784   1.580   0.393 -0.7784  0.8531  0.8228
  105MOL   H40242210   0.865   1.716   0.329 -0.4057  1.9237  0.9004
  106MOL     C142211   2.047   6.674   7.608 -0.1870 -0.1389  0.1456
  106MOL     C242212   2.121   6.564   7.535 -0.7899 -0.1139  0.0806
  106MOL     C342213   2.134   6.570   7.394  0.3276 -0.1188 -0.2414
  106MOL     C442214   2.191   6.461   7.328 -0.3007  0.0964  0.5285
  106MOL     C542215   2.248   6.353   7.404  0.1056 -0.4247 -0.0450
  106MOL     O642216   2.301   6.253   7.325 -0.0784 -0.0463  0.2327
  106MOL     C742217   2.370   6.148   7.386  0.2227  0.1816  0.2804
  106MOL     C842218   2.254   6.359   7.544 -0.3913  0.2866 -0.5730
  106MOL     C942219   2.183   6.458   7.606  0.7249  0.3557 -0.0819
  106MOL    C1042220   1.897   6.647   7.634  0.4829  0.3550  0.1141
  106MOL    H1142221   2.070   6.761   7.546  0.0301 -0.5588 -0.3671
  106MOL    H1242222   2.106   6.648   7.326  1.2917  0.5836  0.1650
  106MOL    H1342223   2.188   6.456   7.220 -0.1690 -1.5833  0.5854
  106MOL    H1442224   2.406   6.086   7.304 -1.5098  2.1160 -2.0258
  106MOL    H1542225   2.451   6.182   7.451  1.1390 -0.5402 -0.4562
  106MOL    H1642226   2.293   6.097   7.444  0.2458  0.8846  0.9372
  106MOL    H1742227   2.302   6.285   7.606 -1.7736 -0.6322 -0.5562
  106MOL    H1842228   2.177   6.453   7.714 -2.2767 -0.6336 -0.2494
  106MOL    H1942229   1.847   6.631   7.539 -0.3172  0.0898  0.5740
  106MOL    H2042230   1.898   6.560   7.700 -1.2324 -0.2467 -0.6261
  106MOL    H2142231   2.091   6.698   7.704 -0.8474 -0.7567  0.6078
  106MOL    C2242232   1.838   6.762   7.713  0.2609 -0.1410  0.2957
  106MOL    C2342233   1.830   6.904   7.639 -0.0993  0.5030  0.7587
  106MOL    C2442234   1.879   7.020   7.706  0.2188  0.5524  0.5637
  106MOL    C2542235   1.881   7.149   7.641  0.1977 -0.1833  0.7655
  106MOL    C2642236   1.818   7.167   7.514  0.4107  0.1457  0.5030
  106MOL    O2742237   1.826   7.283   7.438  0.3816  0.3639  0.9613
  106MOL    C2842238   1.859   7.402   7.511  0.1159  0.1236  0.0424
  106MOL    C2942239   1.762   7.051   7.453  0.6040 -0.3098 -0.5419
  106MOL    C3042240   1.772   6.925   7.509  0.5508  0.0353  0.6947
  106MOL    C3142241   1.687   6.722   7.747  0.1102  0.2179  0.1363
  106MOL    H3242242   1.889   6.778   7.808  0.3880 -0.6931  0.3235
  106MOL    H3342243   1.941   7.011   7.794  0.5039 -1.2691  0.1849
  106MOL    H3442244   1.946   7.224   7.683  2.0653 -1.0077 -0.5727
  106MOL    H3542245   1.838   7.496   7.460 -0.1561 -0.8206 -1.6298
  106MOL    H3642246   1.964   7.391   7.539  0.1177 -2.4676 -0.8582
  106MOL    H3742247   1.797   7.416   7.600  1.2628  0.3162  0.8335
  106MOL    H3842248   1.723   7.062   7.352 -0.4598 -1.6578 -0.2829
  106MOL    H3942249   1.743   6.834   7.458  1.2655  1.9934 -3.4061
  106MOL    H4042250   1.623   6.708   7.661 -0.9127 -0.9040  1.0626
  106MOL    H4142251   1.691   6.616   7.775  0.2213 -0.1973 -1.3967
  106MOL    C4242252   1.611   6.784   7.869 -0.0436  0.6978  0.1522
  106MOL    C4342253   1.705   6.827   7.974  0.3485  0.1532 -0.9555
  106MOL    C4442254   1.783   6.744   0.016 -0.5933 -0.0475 -0.4595
  106MOL    C4542255   1.871   6.794   0.115 -0.0613 -0.1943 -0.4473
  106MOL    C4642256   1.884   6.930   0.139 -0.3347  0.4670 -0.1631
  106MOL    O4742257   1.976   6.978   0.231 -0.3281  0.5620 -0.4654
  106MOL    C4842258   2.036   6.891   0.324 -0.2905  0.4178 -0.1613
  106MOL    C4942259   1.802   7.017   0.065 -0.5276 -0.2585 -0.1213
  106MOL    C5042260   1.721   6.969   7.999 -0.3225  0.6672 -0.4874
  106MOL    C5142261   1.500   6.686   7.916 -0.0910  0.0182  0.3362
  106MOL    H5242262   1.558   6.875   7.842 -1.3567 -0.0577  0.1685
  106MOL    H5342263   1.781   6.640   8.027  1.4693 -0.2789  0.1691
  106MOL    H5442264   1.949   6.726   0.147  1.1964  1.0698 -0.7727
  106MOL    H5542265   2.121   6.848   0.271 -0.0076 -0.9804  1.3522
  106MOL    H5642266   2.085   6.963   0.390 -0.4139  1.8633 -1.6249
  106MOL    H5742267   1.976   6.815   0.374 -0.1676  0.2571 -0.2540
  106MOL    H5842268   1.806   7.124   0.082  1.2192 -0.3345  0.0403
  106MOL    H5942269   1.661   7.040   7.944 -1.1593  2.3562  2.4274
  106MOL    H6042270   1.553   6.598   7.952 -0.1832 -0.7912 -1.4462
  106MOL    H6142271   1.439   6.640   7.838 -0.4628  3.6137 -1.6056
  106MOL    C6242272   1.408   6.745   8.015  0.0522  0.3639  0.0236
  106MOL    C6342273   1.344   6.642   0.072 -0.0949 -0.0318 -0.2783
  106MOL    C6442274   1.222   6.571   0.047 -0.0061  0.1699 -0.0638
  106MOL    C6542275   1.175   6.472   0.129 -0.0424  0.2506 -0.5865
  106MOL    C6642276   1.251   6.436   0.244 -0.7195 -0.1185 -0.0148
  106MOL    O6742277   1.216   6.334   0.333  0.3382 -0.3132  0.4162
  106MOL    C6842278   1.124   6.228   0.287  0.1401  0.0568  0.2652
  106MOL    C6942279   1.364   6.516   0.279  0.3334 -0.4037 -0.2593
  106MOL    C7042280   1.409   6.617   0.194 -0.2172 -0.6089  0.3732
  106MOL    C7142281   1.299   6.841   7.956  1.1698 -0.1387  0.2014
  106MOL    H7242282   1.468   6.801   0.047 -0.8486  2.8964 -1.1479
  106MOL    H7342283   1.161   6.591   8.000  0.3098  0.5118 -0.2068
  106MOL    H7442284   1.083   6.422   0.102  0.0678 -1.5787  2.1386
  106MOL    H7542285   1.021   6.258   0.269  0.6144  0.5768 -1.7334
  106MOL    H7642286   1.121   6.147   0.360 -0.8582  0.6667  0.9131
  106MOL    H7742287   1.141   6.179   0.191 -3.5726 -1.3347  0.2453
  106MOL    H7842288   1.430   6.493   0.361  0.8451 -1.4929 -0.9568
  106MOL    H7942289   1.500   6.668   0.221 -0.3104 -0.0127 -0.4298
  106MOL    H8042290   1.353   6.902   7.883 -1.8197 -0.6223 -2.5216
  106MOL    H8142291   1.228   6.789   7.893 -0.5493 -0.5701  2.4322
  106MOL    C8242292   1.221   6.925   0.018 -0.4952  0.0397  0.0241
  106MOL    C8342293   1.311   7.019   0.106 -0.6857 -0.0411 -0.1208
  106MOL    C8442294   1.287   7.036   0.246 -0.1189 -0.3089 -0.1432
  106MOL    C8542295   1.364   7.123   0.320  0.3965 -0.0513  0.3576
  106MOL    C8642296   1.477   7.191   0.265 -0.0149  0.2896  0.1955
  106MOL    O8742297   1.541   7.286   0.338  0.0605  0.1675  0.0591
  106MOL    C8842298   1.673   7.310   0.309  0.4776  1.0341  0.6496
  106MOL    C8942299   1.501   7.173   0.126 -0.7181 -0.2719 -0.1699
  106MOL    C9042300   1.419   7.094   0.046 -0.2077  0.8723 -0.4407
  106MOL    C9142301   1.129   7.023   7.979 -0.2016  0.5514 -0.0177
  106MOL    H9242302   1.158   6.872   0.089 -1.0348  0.7292  0.0603
  106MOL    H9342303   1.211   6.973   0.289 -1.0361  0.6478 -0.3375
  106MOL    H9442304   1.335   7.149   0.420  0.3307 -0.4134  0.4311
  106MOL    H9542305   1.730   7.345   0.395 -1.4317  0.8914  1.9900
  106MOL    H9642306   1.691   7.380   0.227  1.4055 -1.1908 -1.1068
  106MOL    H9742307   1.727   7.224   0.269  0.2737  1.4921 -0.6216
  106MOL    H9842308   1.581   7.228   0.079 -1.7375  2.5914  1.3624
  106MOL    H9942309   1.439   7.064   7.984  2.3234 -0.2822  0.3525
  106MOL   H10042310   1.087   7.084   0.019 -0.8055  1.0965 -0.7443
  106MOL   H10142311   1.196   7.086   7.920 -1.4699  1.5973 -0.3651
  106MOL   C10242312   1.023   6.961   7.886 -0.4061  0.5213 -0.4478
  106MOL   C10342313   0.932   6.855   7.958  0.8441  1.1995 -0.2996
  106MOL   C10442314   0.885   6.741   7.889  0.2181 -0.4672 -0.1273
  106MOL   C10542315   0.798   6.654   7.950 -0.2950 -0.1578 -0.6608
  106MOL   C10642316   0.748   6.682   0.037 -0.2587 -0.0294  0.1488
  106MOL   O10742317   0.657   6.592   0.094 -0.3984  0.3729 -0.0107
  106MOL   C10842318   0.592   6.628   0.215  0.4961 -0.5107  0.5306
  106MOL   C10942319   0.793   6.794   0.106  0.1984  0.5111  0.1764
  106MOL   C11042320   0.879   6.883   0.041  0.4100 -0.8743 -0.2750
  106MOL   C11142321   0.921   7.066   7.821 -0.2996 -0.2546 -0.4461
  106MOL   H11242322   1.077   6.909   7.807 -1.1954  1.3882 -1.5762
  106MOL   H11342323   0.922   6.723   7.789 -0.3734 -2.3678 -0.0232
  106MOL   H11442324   0.769   6.563   7.899 -2.8471  0.1990  0.0880
  106MOL   H11542325   0.511   6.560   0.240 -1.5056  1.2466 -0.9087
  106MOL   H11642326   0.667   6.634   0.293  0.5778 -1.4111  0.5264
  106MOL   H11742327   0.542   6.725   0.212 -0.5249 -1.0445  0.2345
  106MOL   H11842328   0.754   6.830   0.201  1.0935  0.4372  0.5776
  106MOL   H11942329   0.906   6.978   0.085 -1.2522 -0.0278 -1.0287
  106MOL   H12042330   0.827   7.010   7.821 -0.9000  0.7206 -1.6854
  106MOL   H12142331   0.899   7.148   7.890 -0.2101 -0.0165 -0.6961
  106MOL   C12242332   0.953   7.125   7.681  0.1562 -0.2521 -0.2305
  106MOL   C12342333   0.951   7.022   7.566 -0.2489  0.2331 -0.4772
  106MOL   C12442334   0.835   7.009   7.486  1.0512  0.1172  0.2019
  106MOL   C12542335   0.827   6.911   7.380 -0.2141 -0.1805  1.0374
  106MOL   C12642336   0.940   6.840   7.335  0.2619  0.0928  0.7606
  106MOL   O12742337   0.922   6.761   7.222 -0.1093  0.8107  0.5728
  106MOL   C12842338   0.983   6.630   7.221  0.2495  0.0389  0.0627
  106MOL   C12942339   1.058   6.850   7.416  0.5116  0.2286  0.8120
  106MOL   C13042340   1.063   6.941   7.524 -0.5081 -0.6848  0.0838
  106MOL   C13142341   1.074   7.217   7.683 -0.0044 -0.1208 -0.4997
  106MOL   H13242342   0.862   7.182   7.659 -2.6457 -5.1074 -1.9497
  106MOL   H13342343   0.742   7.059   7.512  0.1856 -0.3476 -1.8967
  106MOL   H13442344   0.734   6.912   7.326  0.2197 -0.1179  0.2834
  106MOL   H13542345   0.927   6.562   7.285  1.5509 -1.1150 -0.0079
  106MOL   H13642346   0.967   6.611   7.115 -0.3577  0.1942  0.1274
  106MOL   H13742347   1.087   6.630   7.254 -0.8599  1.8793  3.8943
  106MOL   H13842348   1.153   6.803   7.392 -1.2654 -3.3531  0.4975
  106MOL   H13942349   1.161   6.950   7.568 -0.5957 -2.4408  0.7009
  106MOL   H14042350   1.164   7.160   7.707 -0.8950 -1.1336  0.4949
  106MOL   H14142351   1.059   7.277   7.772  1.4044 -1.1982  0.5052
  106MOL   C14242352   1.076   7.304   7.554 -0.4852 -0.0552  0.2157
  106MOL   C14342353   0.949   7.389   7.549 -0.0209  0.2722  0.1338
  106MOL   C14442354   0.915   7.472   7.663 -0.2177 -0.2712  0.4561
  106MOL   C14542355   0.804   7.557   7.645  0.3653  0.1854 -0.0760
  106MOL   C14642356   0.715   7.548   7.537  0.4456  0.3037  0.4083
  106MOL   O14742357   0.605   7.627   7.512 -0.1094  0.2731 -0.1171
  106MOL   C14842358   0.573   7.723   7.613  0.4883 -0.0963 -0.6501
  106MOL   C14942359   0.742   7.453   7.436  0.2254  0.1360 -0.3411
  106MOL   C15042360   0.861   7.376   7.443 -0.1468 -0.0415 -0.1057
  106MOL   C15142361   1.198   7.397   7.538  0.3189  0.0227 -0.0272
  106MOL   H15242362   1.070   7.242   7.464 -0.7483 -1.0144  0.8777
  106MOL   H15342363   0.979   7.480   7.749  2.1910  0.9783 -1.3704
  106MOL   H15442364   0.789   7.623   7.729 -0.5475 -1.4708  1.0870
  106MOL   H15542365   0.510   7.796   7.562  0.5157  0.0883 -0.4227
  106MOL   H15642366   0.517   7.687   7.699 -0.2917 -1.1212 -1.5681
  106MOL   H15742367   0.658   7.781   7.649 -0.3239 -0.2783  1.6224
  106MOL   H15842368   0.665   7.437   7.361 -0.3716 -2.3290  0.7783
  106MOL   H15942369   0.880   7.300   7.369  1.3267  0.7079 -0.5191
  106MOL   H16042370   1.283   7.347   7.584 -0.3421 -0.9224  0.1801
  106MOL   H16142371   1.185   7.494   7.585 -0.7345  0.3801 -1.0298
  106MOL   C16242372   1.233   7.423   7.388 -0.0297 -0.9090  0.2926
  106MOL   C16342373   1.331   7.310   7.327 -0.0186  0.4589 -0.9306
  106MOL   C16442374   1.467   7.336   7.322 -0.3900  0.1885  0.2562
  106MOL   C16542375   1.553   7.251   7.247 -0.1561  0.3492  0.5546
  106MOL   C16642376   1.500   7.136   7.180 -0.0323  0.3376 -0.3098
  106MOL   O16742377   1.586   7.074   7.092  0.3762 -0.2668  0.5502
  106MOL   C16842378   1.529   6.999   6.988 -0.2989 -0.4717  0.4327
  106MOL   C16942379   1.364   7.106   7.202  0.3121 -0.2867  0.2902
  106MOL   C17042380   1.279   7.195   7.268  0.1939  0.4657  0.7669
  106MOL   C17142381   1.303   7.570   7.365  0.3559 -0.1058  0.0694
  106MOL   H17242382   1.138   7.431   7.336  0.0323  1.8189  0.5190
  106MOL   H17342383   1.518   7.419   7.368  1.4151  0.3054 -1.8591
  106MOL   H17442384   1.653   7.286   7.228 -0.7378  1.1583 -1.1525
  106MOL   H17542385   1.462   6.921   7.027  1.2476 -0.2945  3.6134
  106MOL   H17642386   1.602   6.937   6.936 -1.9640 -1.6542 -0.5477
  106MOL   H17742387   1.472   7.056   6.915 -0.6557 -0.3660  0.7924
  106MOL   H17842388   1.333   7.010   7.164 -1.1723  0.3160 -0.0631
  106MOL   H17942389   1.172   7.185   7.279  0.2321 -2.1191 -0.9215
  106MOL   H18042390   1.333   7.572   7.260 -1.9986 -0.9820 -0.6772
  106MOL   H18142391   1.386   7.590   7.432  1.0953  4.1494 -1.9557
  106MOL   C18242392   1.195   7.684   7.368 -0.5032 -1.2214 -0.3329
  106MOL   C18342393   1.094   7.677   7.246 -0.4760  0.0196  0.9614
  106MOL   C18442394   0.958   7.656   7.256  0.6804 -0.3516 -0.6895
  106MOL   C18542395   0.872   7.654   7.151  0.5121  0.1393  0.5271
  106MOL   C18642396   0.918   7.690   7.021  0.3010  0.5936  0.5352
  106MOL   O18742397   0.828   7.679   6.919 -0.0237 -0.0162  0.3500
  106MOL   C18842398   0.877   7.687   6.785 -0.2442  0.1506 -0.4225
  106MOL   C18942399   1.057   7.709   7.004 -0.2599 -0.2872 -1.0793
  106MOL   C19042400   1.149   7.705   7.116  0.1415  0.1687 -0.4290
  106MOL   C19142401   1.261   7.821   7.376 -0.1519  0.3134  0.5574
  106MOL   H19242402   1.131   7.677   7.456 -1.8795  0.5714 -1.1641
  106MOL   H19342403   0.921   7.629   7.354 -2.9353 -0.5648 -2.0469
  106MOL   H19442404   0.779   7.608   7.180 -1.0382  2.1744 -1.0605
  106MOL   H19542405   0.797   7.691   6.712 -0.6629 -0.1140  0.0157
  106MOL   H19642406   0.962   7.620   6.771 -0.1897  0.4531 -1.5578
  106MOL   H19742407   0.923   7.785   6.780  1.0892 -0.4590 -0.4173
  106MOL   H19842408   1.089   7.739   6.906  1.9761  0.8407 -0.0659
  106MOL   H19942409   1.254   7.726   7.104  0.3545 -1.1742 -0.8817
  106MOL   H20042410   1.354   7.828   7.319 -1.0437 -0.6909 -1.0564
  106MOL   H20142411   1.191   7.898   7.343 -0.5774 -1.2716 -2.4101
  106MOL   C20242412   1.325   7.849   7.514  0.9387 -0.7073  0.4097
  106MOL   C20342413   1.225   7.840   7.631  0.3449 -0.0249  0.0891
  106MOL   C20442414   1.231   7.735   7.728  0.3338  0.3264  0.7034
  106MOL   C20542415   1.129   7.730   7.831 -0.1892 -0.2663 -0.2983
  106MOL   C20642416   1.025   7.821   7.831  0.0395  0.4645 -0.0390
  106MOL   O20742417   0.928   7.831   7.930  0.4899 -0.1638  0.1904
  106MOL   C20842418   0.959   7.768   0.013 -0.0717 -0.1612 -0.4810
  106MOL   C20942419   1.025   7.929   7.738 -0.5031  0.3458  0.4083
  106MOL   C21042420   1.128   7.940   7.643 -0.4996 -0.7331  0.3522
  106MOL   C21142421   1.410   7.977   7.514  1.0980  0.4165  0.7591
  106MOL   H21242422   1.388   7.761   7.532  1.6422 -0.5288 -1.1649
  106MOL   H21342423   1.306   7.657   7.729 -0.0692 -0.0736  0.3734
  106MOL   H21442424   1.134   7.644   7.897 -0.3523 -0.0171  0.0350
  106MOL   H21542425   0.955   7.659   0.001  0.6854 -0.1551 -0.7834
  106MOL   H21642426   1.053   7.806   0.052 -0.6641  0.2599  0.5595
  106MOL   H21742427   0.874   7.790   0.079 -0.9171 -2.8988 -0.5603
  106MOL   H21842428   0.951   8.008   7.732 -0.2633  0.3254 -3.4191
  106MOL   H21942429   1.127   8.024   7.576  0.7444  0.4554  1.7795
  106MOL   H22042430   1.334   0.015   7.508 -1.3362 -1.7330  2.3246
  106MOL   H22142431   1.472   7.989   7.425 -0.1844  1.2920 -0.0351
  106MOL   C22242432   1.496   8.013   7.636 -0.5271  0.3965  0.0584
  106MOL   C22342433   1.629   7.928   7.642 -0.7646  0.6820  0.2688
  106MOL   C22442434   1.753   7.971   7.580  0.6277  0.5012 -0.0989
  106MOL   C22542435   1.863   7.882   7.589 -0.0429 -0.2711 -0.1650
  106MOL   C22642436   1.861   7.749   7.640  0.0748  0.0874  0.2528
  106MOL   O22742437   1.971   7.663   7.644 -0.4602 -0.2997 -0.0658
  106MOL   C22842438   2.079   7.698   7.566 -0.0547 -0.0592 -0.2591
  106MOL   C22942439   1.736   7.715   7.699  0.2501 -0.6600 -0.2767
  106MOL   C23042440   1.626   7.803   7.713  0.4432  0.1828  0.1287
  106MOL   C23142441   1.530   0.121   7.634 -0.2310  0.2586  0.8628
  106MOL   H23242442   1.447   7.990   7.731 -0.7755 -1.5460 -0.5290
  106MOL   H23342443   1.760   0.033   7.544 -0.7498  0.4316 -0.5873
  106MOL   H23442444   1.953   7.930   7.551  0.3839 -0.8055  0.1643
  106MOL   H23542445   2.066   7.695   7.458 -1.2895 -0.3985 -0.1175
  106MOL   H23642446   2.130   7.792   7.586  1.7123 -0.6183 -2.0448
  106MOL   H23742447   2.160   7.626   7.571 -0.3830 -0.4818 -0.9630
  106MOL   H23842448   1.735   7.614   7.738  0.0137 -0.2499  0.8177
  106MOL   H23942449   1.543   7.766   7.771  2.6947 -1.6375  2.3219
  106MOL   H24042450   1.620   0.152   7.687 -0.8740  0.0823  2.0849
  106MOL   H24142451   1.558   0.148   7.532 -0.2428  0.1922  0.8421
  106MOL   C24242452   1.421   0.215   7.685  0.1236  0.0938 -0.3511
  106MOL   C24342453   1.384   0.193   7.831 -0.6008 -0.5226  0.0790
  106MOL   C24442454   1.480   0.177   7.932  0.0274  0.3083  0.0273
  106MOL   C24542455   1.437   0.149   0.020  0.1140  0.0430 -0.4510
  106MOL   C24642456   1.304   0.130   0.049  0.2387  0.7341  0.3191
  106MOL   O24742457   1.269   0.096   0.172 -0.2247  0.6198 -0.0883
  106MOL   C24842458   1.130   0.086   0.202 -0.6295 -0.1054  0.5140
  106MOL   C24942459   1.209   0.160   7.983  0.5079 -0.1123 -0.0007
  106MOL   C25042460   1.252   0.188   7.859 -0.2452 -0.5838 -0.4615
  106MOL   C25142461   1.460   0.360   7.658 -0.4222 -0.0737 -0.1694
  106MOL   H25242462   1.330   0.194   7.629  1.1047  0.6885 -2.2257
  106MOL   H25342463   1.585   0.189   7.907  0.1368  0.2299  0.4463
  106MOL   H25442464   1.505   0.133   0.102  0.1176 -0.8029 -0.6096
  106MOL   H25542465   1.079   0.015   0.137  2.7216 -0.4574 -1.8410
  106MOL   H25642466   1.125   0.063   0.309 -0.0016 -2.1035  0.1380
  106MOL   H25742467   1.077   0.180   0.187  1.2775  1.2170  1.8575
  106MOL   H25842468   1.102   0.152   7.994  0.5045  2.0882  1.8944
  106MOL   H25942469   1.179   0.191   7.779  0.1327 -2.5820 -0.9118
  106MOL   H26042470   1.523   0.379   7.570 -1.2292 -0.3074 -0.8021
  106MOL   H26142471   1.515   0.403   7.742 -0.3614 -0.4788 -0.0020
  106MOL   C26242472   1.341   0.453   7.645 -0.0407 -0.1743  0.4248
  106MOL   C26342473   1.322   0.479   7.491 -0.3323 -0.4101 -0.3481
  106MOL   C26442474   1.237   0.391   7.418 -0.7169  0.0648  0.4114
  106MOL   C26542475   1.202   0.421   7.284  0.5899  0.3799  0.0681
  106MOL   C26642476   1.252   0.543   7.224  0.3165 -0.0498  0.4724
  106MOL   O26742477   1.228   0.587   7.097 -0.3918  0.0425  0.4289
  106MOL   C26842478   1.088   0.561   7.043  0.6540  0.2202  0.3242
  106MOL   C26942479   1.329   0.633   7.300 -0.0099  0.1848  0.5244
  106MOL   C27042480   1.371   0.596   7.429 -0.2085  1.0453 -0.5088
  106MOL   C27142481   1.342   0.576   7.742  0.0880  0.3291  0.4361
  106MOL   H27242482   1.259   0.388   7.675 -0.1115 -0.0820  0.4313
  106MOL   H27342483   1.190   0.300   7.454 -1.3156 -1.6010 -4.2421
  106MOL   H27442484   1.145   0.351   7.225 -2.0908  0.3970  2.5145
  106MOL   H27542485   1.044   0.654   7.006  1.3286 -0.2331 -1.7093
  106MOL   H27642486   1.019   0.522   7.117 -1.1696 -0.0203 -1.4567
  106MOL   H27742487   1.076   0.488   6.962  0.5478  0.9326 -0.3092
  106MOL   H27842488   1.360   0.727   7.257 -1.1434  0.2593 -0.1463
  106MOL   H27942489   1.438   0.662   7.484  1.5286 -1.3750  0.3837
  106MOL   H28042490   1.376   0.533   7.836  1.1604 -1.5633 -0.7796
  106MOL   H28142491   1.418   0.647   7.710  1.5365 -0.8540  1.1800
  106MOL   C28242492   1.203   0.637   7.743  0.6779 -0.0091 -0.9109
  106MOL   C28342493   1.213   0.779   7.782 -0.3792 -0.0942  0.4973
  106MOL   C28442494   1.152   0.872   7.689 -0.1471  0.0792 -0.2407
  106MOL   C28542495   1.158   1.009   7.716 -0.2049 -0.3077  0.3232
  106MOL   C28642496   1.205   1.057   7.840  0.5412 -0.0183  0.1098
  106MOL   O28742497   1.213   1.190   7.871  0.3112  0.2364 -1.0425
  106MOL   C28842498   1.137   1.287   7.806 -0.4316  0.4614 -0.2362
  106MOL   C28942499   1.262   0.966   7.933 -0.1922 -0.2529 -0.0366
  106MOL   C29042500   1.267   0.826   7.905 -0.1823 -0.2138  0.2995
  106MOL   C29142501   1.110   0.561   7.840 -0.3072 -0.1682  0.4260
  106MOL   H29242502   1.154   0.627   7.646  0.7551 -2.7226 -0.7049
  106MOL   H29342503   1.098   0.834   7.604 -0.5123 -0.7654  0.3614
  106MOL   H29442504   1.112   1.072   7.642  1.6635 -0.9064 -1.3825
  106MOL   H29542505   1.029   1.277   7.812 -0.4921  0.5401 -1.1260
  106MOL   H29642506   1.158   1.389   7.839 -0.8619  0.9295 -1.3733
  106MOL   H29742507   1.159   1.291   7.699 -0.0032 -0.8617 -0.2056
  106MOL   H29842508   1.292   1.002   8.030  0.0415  1.7782 -0.8420
  106MOL   H29942509   1.317   0.758   7.973  0.6136 -0.5076 -0.5666
  106MOL   H30042510   1.157   0.462   7.841  1.3913  0.6326  0.9870
  106MOL   H30142511   1.135   0.593   7.941 -1.0043  3.0081 -0.3648
  106MOL   C30242512   0.961   0.560   7.821  0.0939  0.5813 -0.1146
  106MOL   C30342513   0.927   0.468   7.701 -0.4094 -0.6124 -0.5813
  106MOL   C30442514   0.937   0.329   7.716 -0.5247 -0.1986  0.5599
  106MOL   C30542515   0.929   0.245   7.598  0.0705 -0.1389  0.2169
  106MOL   C30642516   0.902   0.303   7.470 -0.2747 -0.4432 -0.2764
  106MOL   O30742517   0.882   0.229   7.355  0.2358  0.6928  0.0672
  106MOL   C30842518   0.927   0.093   7.353  0.6277  0.8376  0.0844
  106MOL   C30942519   0.892   0.451   7.458  0.3363  0.6408  0.0416
  106MOL   C31042520   0.908   0.531   7.574  0.4825  0.0724  0.5542
  106MOL   C31142521   0.888   0.510   7.940  0.5793 -0.2596 -0.3199
  106MOL   H31242522   0.933   0.662   7.791 -1.4280 -0.4577 -2.3699
  106MOL   H31342523   0.941   0.284   7.813  0.2128 -1.3202  0.0169
  106MOL   H31442524   0.935   0.137   7.600 -0.2472 -0.1385  1.3757
  106MOL   H31542525   0.851   0.025   7.392  0.8346  1.3687  1.4731
  106MOL   H31642526   1.022   0.088   7.406  1.4587  0.5028 -1.4085
  106MOL   H31742527   0.944   0.072   7.248  1.8750 -0.7132  0.5809
  106MOL   H31842528   0.861   0.490   7.362 -2.4635 -0.2777  0.5179
  106MOL   H31942529   0.900   0.637   7.556 -2.1320 -0.0986  0.5523
  106MOL   H32042530   0.930   0.421   7.986  2.7695  1.7264  1.6529
  106MOL   H32142531   0.787   0.484   7.905 -0.1222  0.3208  1.2289
  106MOL   C32242532   0.868   0.609   0.024  0.0219  0.1428  0.4409
  106MOL   C32342533   0.990   0.615   0.109  0.1170 -0.0152  0.0425
  106MOL   C32442534   1.053   0.736   0.136 -0.4536 -0.6123  0.5398
  106MOL   C32542535   1.169   0.743   0.215 -0.0558  0.4686 -0.2274
  106MOL   C32642536   1.234   0.626   0.258  0.3270  0.3081  0.0407
  106MOL   O32742537   1.364   0.630   0.316  0.3040 -0.0022  0.2888
  106MOL   C32842538   1.446   0.518   0.294 -0.0928 -0.8395 -0.0930
  106MOL   C32942539   1.170   0.503   0.240  0.0990 -0.2613 -0.7685
  106MOL   C33042540   1.053   0.496   0.157  0.5479 -0.0898 -1.0599
  106MOL   C33142541   0.734   0.590   0.098  0.2403  0.7283  0.2129
  106MOL   H33242542   0.864   0.708   8.019  3.4114 -0.5421 -1.5445
  106MOL   H33342543   1.009   0.832   0.112 -1.6597 -1.3432 -0.2038
  106MOL   H33442544   1.218   0.837   0.234 -1.4712  1.0327  0.6693
  106MOL   H33542545   1.429   0.427   0.353 -0.7471  0.1324  1.2449
  106MOL   H33642546   1.551   0.538   0.314  0.1927 -1.7173 -0.7020
  106MOL   H33742547   1.435   0.496   0.188  0.1769  4.5698 -1.3910
  106MOL   H33842548   1.217   0.418   0.286 -0.1515  0.5365  0.9965
  106MOL   H33942549   1.003   0.402   0.139 -0.2933 -0.0898  1.1816
  106MOL   H34042550   0.725   0.672   0.169  0.2893  0.0777  0.9728
  106MOL   H34142551   0.645   0.610   0.038  3.0981  4.8021 -3.0356
  106MOL   C34242552   0.703   0.463   0.184 -1.3812  0.7243 -0.1209
  106MOL   C34342553   0.694   0.338   0.098 -0.4503 -0.6117  0.7667
  106MOL   C34442554   0.594   0.327   8.035 -0.4230  0.8885  0.1000
  106MOL   C34542555   0.611   0.231   7.935  0.4857 -0.0185  0.1605
  106MOL   C34642556   0.709   0.137   7.935 -0.7054  0.2647 -0.0038
  106MOL   O34742557   0.723   0.044   7.845  0.5898 -0.0872  0.3699
  106MOL   C34842558   0.666   0.062   7.711  0.8686 -0.0930  0.0099
  106MOL   C34942559   0.799   0.136   0.008  0.1721  0.4355 -0.1300
  106MOL   C35042560   0.780   0.227   0.116  0.6558 -0.6644  0.7888
  106MOL   C35142561   0.594   0.477   0.296  0.2977  0.1594  0.4326
  106MOL   H35242562   0.794   0.468   0.244 -1.6892  0.1352  0.4069
  106MOL   H35342563   0.507   0.389   8.019 -0.4584  1.2493  1.6649
  106MOL   H35442564   0.539   0.229   7.854  0.1310 -1.2169  0.5000
  106MOL   H35542565   0.563   0.026   7.707  0.6340  0.5901 -0.0736
  106MOL   H35642566   0.682   0.159   7.664  1.5699  0.0356  0.5228
  106MOL   H35742567   0.714   8.032   7.642  0.4314  0.1406 -0.5399
  106MOL   H35842568   0.887   0.072   0.012  0.2323  0.6366  2.5786
  106MOL   H35942569   0.859   0.222   0.190 -0.5247 -1.7260  2.0100
  106MOL   H36042570   0.520   0.546   0.254  0.8667  0.4490 -0.0990
  106MOL   H36142571   0.549   0.378   0.300  4.0362 -1.6132  0.0049
  106MOL   C36242572   0.642   0.520   0.436  0.3972  0.3728 -0.1121
  106MOL   C36342573   0.729   0.415   0.506  0.3050  0.8046 -0.6858
  106MOL   C36442574   0.666   0.298   0.555  1.3056 -0.0560 -0.6973
  106MOL   C36542575   0.736   0.188   0.603  0.1752  0.4419  0.3695
  106MOL   C36642576   0.873   0.185   0.584 -0.3011  0.5210 -0.5242
  106MOL   O36742577   0.947   0.071   0.610 -0.7442 -0.3682  0.1197
  106MOL   C36842578   0.887   7.985   0.591  0.2126 -0.2050 -0.3172
  106MOL   C36942579   0.940   0.296   0.527 -0.4531  0.3826 -0.0761
  106MOL   C37042580   0.867   0.412   0.490 -0.6719  1.0059  0.3056
  106MOL   C37142581   0.519   0.565   0.520 -0.6917 -0.1826 -0.5775
  106MOL   H37242582   0.701   0.609   0.412  1.2641  0.7436  3.1103
  106MOL   H37342583   0.561   0.277   0.565  1.2052  1.0036  0.4937
  106MOL   H37442584   0.677   0.103   0.633  0.8682 -0.1818 -0.0091
  106MOL   H37542585   0.940   7.908   0.648 -2.1643 -0.2572  1.8473
  106MOL   H37642586   0.783   7.986   0.623 -0.3479 -0.0767 -2.0800
  106MOL   H37742587   0.879   7.960   0.485  0.6323  0.1705 -0.4393
  106MOL   H37842588   1.047   0.292   0.511 -0.8702 -0.8464 -2.9913
  106MOL   H37942589   0.921   0.492   0.443  0.4296  1.3907  2.1660
  106MOL   H38042590   0.473   0.652   0.473 -0.9426 -0.0246 -0.0448
  106MOL   H38142591   0.436   0.495   0.513 -1.0363  0.1157  0.5030
  106MOL   C38242592   0.529   0.595   0.674 -0.6127 -0.8020  0.2023
  106MOL   C38342593   0.388   0.615   0.736 -0.0140 -0.0200  0.0847
  106MOL   C38442594   0.336   0.530   0.828 -0.0645 -0.1954 -0.8878
  106MOL   C38542595   0.210   0.533   0.883 -0.0890  0.5243 -0.5575
  106MOL   C38642596   0.125   0.637   0.838  0.0347  0.5122 -0.3027
  106MOL   O38742597   0.001   0.625   0.900  0.3371 -0.1252 -0.3242
  106MOL   C38842598   7.942   0.699   0.832 -0.4256  0.3993  0.3808
  106MOL   C38942599   0.170   0.731   0.742 -0.7701 -0.5068 -0.2998
  106MOL   C39042600   0.302   0.721   0.693 -0.2629  0.7158 -0.1879
  106MOL   C39142601   0.621   0.720   0.693  0.3077 -0.1161  0.3172
  106MOL   H39242602   0.574   0.506   0.718  0.8826 -1.0376 -1.7524
  106MOL   H39342603   0.399   0.449   0.862 -0.2532 -0.6389 -1.6007
  106MOL   H39442604   0.181   0.455   0.952  0.1295 -0.9828 -2.1235
  106MOL   H39542605   7.953   0.804   0.855 -1.4342  0.7729 -0.7954
  106MOL   H39642606   7.842   0.680   0.872 -0.3285  1.3105  1.0613
  106MOL   H39742607   7.941   0.680   0.725 -0.1091 -1.8825  0.7384
  106MOL   H39842608   0.104   0.810   0.709  1.3467  0.5869 -2.0099
  106MOL   H39942609   0.340   0.799   0.628 -0.0403  0.1532 -0.7373
  106MOL   H40042610   0.724   0.697   0.667  0.0092  0.6725 -1.6586
  106MOL   H40142611   0.630   0.757   0.795 -2.2267 -1.4594  1.0590
  106MOL   H40242612   0.589   0.803   0.630  0.6915  0.4561  0.8713
  107MOL     C142613   2.734   6.157   2.715  0.0041  0.1323 -0.3572
  107MOL     C242614   2.666   6.200   2.595  0.5201 -0.4136  0.1123
  107MOL     C342615   2.634   6.339   2.580  0.3355 -0.0428  0.0077
  107MOL     C442616   2.587   6.386   2.454  0.4550 -0.0145  1.0738
  107MOL     C542617   2.560   6.297   2.347 -0.2402  1.2139  0.6376
  107MOL     O642618   2.504   6.339   2.228 -0.3856 -0.1161 -0.3449
  107MOL     C742619   2.551   6.270   2.113  0.4260 -0.5768 -0.2100
  107MOL     C842620   2.582   6.156   2.366 -0.0566 -0.4082 -0.1262
  107MOL     C942621   2.636   6.114   2.489 -0.3383  0.3417  0.0912
  107MOL    C1042622   2.873   6.209   2.729 -0.5835  0.3164  0.2713
  107MOL    H1142623   2.738   6.048   2.710  0.3999  0.1934 -1.5772
  107MOL    H1242624   2.642   6.403   2.667  0.2002 -1.1064  0.8033
  107MOL    H1342625   2.571   6.492   2.441 -1.8816 -0.3447  1.0280
  107MOL    H1442626   2.498   6.189   2.065  1.6230  0.3445 -3.1994
  107MOL    H1542627   2.551   6.339   2.028 -0.7259 -1.3796 -0.8587
  107MOL    H1642628   2.654   6.235   2.122  0.0223 -1.7812 -0.2760
  107MOL    H1742629   2.573   6.092   2.280  0.5023  2.4274 -2.3762
  107MOL    H1842630   2.664   6.012   2.511  3.5931  1.0227 -1.3187
  107MOL    H1942631   2.873   6.318   2.725  0.7748  0.3180 -0.2858
  107MOL    H2042632   2.904   6.181   2.830  2.1216 -0.0237 -0.6190
  107MOL    H2142633   2.665   6.167   2.799  1.2606 -1.0855  0.8541
  107MOL    C2242634   2.984   6.138   2.650 -0.4532 -0.7705  0.1801
  107MOL    C2342635   2.967   6.168   2.502 -0.1315 -0.2183 -0.0454
  107MOL    C2442636   2.960   6.064   2.412  0.3471 -0.0560 -0.0746
  107MOL    C2542637   2.952   6.080   2.274 -0.8171 -0.6808  0.7240
  107MOL    C2642638   2.958   6.213   2.219  0.2007  0.0048 -0.1005
  107MOL    O2742639   2.938   6.231   2.080 -0.3079 -0.3112 -1.5419
  107MOL    C2842640   3.004   6.334   2.021 -0.1620 -0.8308  0.5632
  107MOL    C2942641   2.976   6.317   2.311 -0.0319 -0.2283  0.1435
  107MOL    C3042642   2.977   6.299   2.451  0.2279  0.7953 -0.4790
  107MOL    C3142643   3.119   6.170   2.711 -0.2379  0.2952  0.3571
  107MOL    H3242644   2.968   6.031   2.660 -1.6848 -0.5735  0.4006
  107MOL    H3342645   2.967   5.962   2.449 -2.1376 -0.7310 -1.3632
  107MOL    H3442646   2.943   5.994   2.209  1.2744 -1.5541  1.5624
  107MOL    H3542647   3.106   6.337   2.059  0.1399  0.1711 -0.3061
  107MOL    H3642648   2.943   6.425   2.016 -0.6687 -1.1777  0.3848
  107MOL    H3742649   3.004   6.307   1.915 -2.1069 -1.0108  0.5773
  107MOL    H3842650   2.975   6.419   2.277  1.0089  0.1931  1.2926
  107MOL    H3942651   2.988   6.389   2.509  2.1504 -1.2631  2.4790
  107MOL    H4042652   3.131   6.278   2.702 -0.0359  0.4191  1.9385
  107MOL    H4142653   3.115   6.153   2.819 -0.2403 -1.9058  0.0300
  107MOL    C4242654   3.241   6.110   2.639 -0.7103  0.1639  0.4242
  107MOL    C4342655   3.253   5.957   2.653 -0.0842  0.1897  0.3567
  107MOL    C4442656   3.227   5.881   2.540  0.5490 -0.3357  0.1719
  107MOL    C4542657   3.253   5.746   2.535  0.6696  0.1405  0.6083
  107MOL    C4642658   3.297   5.681   2.654  0.1402 -0.5482 -0.9074
  107MOL    O4742659   3.322   5.548   2.634 -0.2056 -0.4010 -1.0238
  107MOL    C4842660   3.375   5.469   2.740 -0.5653 -0.4168 -0.1307
  107MOL    C4942661   3.328   5.753   2.776  0.4109  0.9688  0.0618
  107MOL    C5042662   3.305   5.893   2.773  0.0070  0.0820 -0.4197
  107MOL    C5142663   3.378   6.185   2.670  0.4132 -0.0348  0.0016
  107MOL    H5242664   3.230   6.128   2.532  2.2204 -0.5265 -0.0444
  107MOL    H5342665   3.197   5.942   2.456  2.4814  0.6240  0.1324
  107MOL    H5442666   3.224   5.690   2.448 -0.4068 -0.6183  1.4346
  107MOL    H5542667   3.460   5.523   2.783 -0.7319 -0.7071  0.5767
  107MOL    H5642668   3.307   5.430   2.816  0.8006 -1.2359  0.7086
  107MOL    H5742669   3.427   5.381   2.702 -0.6331  0.0843 -1.3873
  107MOL    H5842670   3.350   5.705   2.870 -0.7451  2.0741  0.9135
  107MOL    H5942671   3.319   5.948   2.865  1.2093 -0.0335 -0.5159
  107MOL    H6042672   3.431   6.130   2.748 -1.6301 -0.9230  0.8157
  107MOL    H6142673   3.353   6.279   2.717  0.1080 -0.5111  0.8016
  107MOL    C6242674   3.472   6.197   2.554  0.5607  0.5266  0.4334
  107MOL    C6342675   3.607   6.257   2.600 -0.1926 -0.1313  0.5898
  107MOL    C6442676   3.608   6.382   2.664  0.3347  0.3190 -0.2442
  107MOL    C6542677   3.724   6.443   2.707  0.5557  0.5406 -0.6245
  107MOL    C6642678   3.847   6.379   2.686  0.1547 -0.4815  0.4286
  107MOL    O6742679   3.965   6.431   2.722 -0.0060  0.1025 -0.2746
  107MOL    C6842680   3.973   6.531   2.819  0.2144 -0.4233  0.1950
  107MOL    C6942681   3.847   6.251   2.628  0.5554  1.0172 -0.5196
  107MOL    C7042682   3.727   6.185   2.586 -0.4662  0.0800 -0.6455
  107MOL    C7142683   3.417   6.275   2.429 -0.1568  0.2830  0.1501
  107MOL    H7242684   3.492   6.095   2.522 -1.5960  0.2543 -0.1045
  107MOL    H7342685   3.508   6.423   2.674  0.8868  1.6024  0.0601
  107MOL    H7442686   3.714   6.537   2.759  0.0798  0.9718 -1.4859
  107MOL    H7542687   4.077   6.542   2.849 -0.1108  1.3983  0.7423
  107MOL    H7642688   3.912   6.493   2.902 -3.8100  1.5471 -1.7230
  107MOL    H7742689   3.948   6.635   2.798 -1.6906 -1.2459 -1.8223
  107MOL    H7842690   3.942   6.210   2.595  1.1771  3.1176 -1.3790
  107MOL    H7942691   3.737   6.094   2.528 -0.1373 -0.3442  0.0826
  107MOL    H8042692   3.330   6.224   2.386  0.9396 -0.6663 -0.9855
  107MOL    H8142693   3.391   6.374   2.468 -0.0431  0.3865 -0.0392
  107MOL    C8242694   3.503   6.291   2.307 -0.0171 -0.4022 -0.6210
  107MOL    C8342695   3.551   6.149   2.262 -0.0367 -0.1339  0.1728
  107MOL    C8442696   3.474   6.026   2.272  0.3203  0.4754  0.0411
  107MOL    C8542697   3.521   5.907   2.216 -1.0396  0.8499 -0.1177
  107MOL    C8642698   3.644   5.905   2.146  0.0660 -0.0788  0.8384
  107MOL    O8742699   3.680   5.785   2.098  0.0475  0.5224 -0.7065
  107MOL    C8842700   3.802   5.770   2.021 -0.3296 -0.2167 -0.0219
  107MOL    C8942701   3.725   6.025   2.142  0.3602 -0.4034  1.0125
  107MOL    C9042702   3.680   6.143   2.201  0.4081 -0.3024 -0.4991
  107MOL    C9142703   3.435   6.371   2.191  0.0314  0.0071 -0.2431
  107MOL    H9242704   3.593   6.340   2.344 -0.0876 -0.3325 -0.5424
  107MOL    H9342705   3.375   6.029   2.315  0.2492 -1.4096  0.0429
  107MOL    H9442706   3.461   5.819   2.226 -0.2634  0.3630  0.3091
  107MOL    H9542707   3.889   5.783   2.084 -1.0504  0.6276  0.8172
  107MOL    H9642708   3.801   5.838   1.935 -4.1729 -1.6855 -1.2739
  107MOL    H9742709   3.810   5.671   1.976 -1.0158  0.3224 -1.3934
  107MOL    H9842710   3.819   6.036   2.090 -0.9388  0.4071 -1.2423
  107MOL    H9942711   3.741   6.232   2.193 -0.7231  0.5837  0.3114
  107MOL   H10042712   3.509   6.380   2.111  0.9615 -0.2305  0.5828
  107MOL   H10142713   3.351   6.314   2.150  0.2985 -1.3978  1.0968
  107MOL   C10242714   3.377   6.517   2.226 -0.6378  0.3344 -0.2297
  107MOL   C10342715   3.381   6.599   2.103 -0.1178 -0.2720 -0.2578
  107MOL   C10442716   3.320   6.558   1.986 -0.8768 -0.1378 -0.1505
  107MOL   C10542717   3.321   6.645   1.876 -0.3190 -0.4352 -0.2195
  107MOL   C10642718   3.405   6.753   1.863 -0.0747  0.3580  0.6840
  107MOL   O10742719   3.402   6.821   1.742  0.6684  1.4355  0.1800
  107MOL   C10842720   3.491   6.923   1.729  0.1932 -0.2722 -0.8387
  107MOL   C10942721   3.475   6.790   1.983  0.2027  0.6316 -0.2908
  107MOL   C11042722   3.460   6.710   2.096 -0.0193 -0.7079  0.2200
  107MOL   C11142723   3.237   6.518   2.282 -0.4252  0.3563 -0.0334
  107MOL   H11242724   3.453   6.555   2.294 -1.1601  1.1774 -0.1227
  107MOL   H11342725   3.260   6.469   1.971 -1.3473  0.1693 -0.1070
  107MOL   H11442726   3.265   6.621   1.787  0.6567 -1.1656 -0.6305
  107MOL   H11542727   3.502   6.939   1.622  1.0493 -2.5826 -1.1329
  107MOL   H11642728   3.448   7.011   1.776  1.8077  0.5541 -0.8802
  107MOL   H11742729   3.587   6.897   1.774  0.1944  0.5819 -0.3435
  107MOL   H11842730   3.539   6.877   1.982  0.3815  0.5463  2.3777
  107MOL   H11942731   3.509   6.739   2.187 -1.7523 -1.3886  1.3921
  107MOL   H12042732   3.166   6.503   2.201 -1.8365  2.1854  0.8244
  107MOL   H12142733   3.227   6.434   2.350  1.0422  0.8061  0.7656
  107MOL   C12242734   3.196   6.651   2.352  0.0771 -0.7721 -0.7925
  107MOL   C12342735   3.267   6.668   2.483 -0.8074 -0.2791  0.0517
  107MOL   C12442736   3.361   6.773   2.484 -0.4059  0.9226 -1.3058
  107MOL   C12542737   3.440   6.793   2.604  0.2948  0.0144  0.4246
  107MOL   C12642738   3.428   6.706   2.719  0.5031  0.2009  0.6064
  107MOL   O12742739   3.499   6.732   2.832 -1.3766 -0.1498 -0.1128
  107MOL   C12842740   3.481   6.641   2.946  0.7380 -0.5849  0.0609
  107MOL   C12942741   3.335   6.600   2.705  0.6077 -0.4610  0.1250
  107MOL   C13042742   3.253   6.588   2.595 -0.0460 -0.2465  0.2038
  107MOL   C13142743   3.045   6.656   2.381  0.4042  0.1559  0.3497
  107MOL   H13242744   3.231   6.724   2.279  0.7259 -1.8551 -1.5769
  107MOL   H13342745   3.374   6.842   2.402  0.9813  1.9599 -0.2385
  107MOL   H13442746   3.507   6.878   2.608 -0.6450  0.7109  1.9204
  107MOL   H13542747   3.381   6.648   2.989  0.6416  1.7269 -0.4601
  107MOL   H13642748   3.512   6.540   2.919 -0.9627 -1.1747  0.2800
  107MOL   H13742749   3.546   6.668   3.030 -0.8879 -1.9419  1.8108
  107MOL   H13842750   3.318   6.535   2.790 -1.2970  1.3772  1.2078
  107MOL   H13942751   3.179   6.509   2.597 -3.8050  3.0666 -1.9224
  107MOL   H14042752   3.021   6.719   2.466  0.6421 -1.0618  1.3332
  107MOL   H14142753   2.998   6.564   2.414  0.4138 -0.0599 -0.2370
  107MOL   C14242754   2.962   6.723   2.263  0.0742  0.0250  0.2758
  107MOL   C14342755   2.810   6.710   2.299  0.1976  0.0294  0.7573
  107MOL   C14442756   2.724   6.651   2.205  0.2692 -0.2839  0.2132
  107MOL   C14542757   2.586   6.658   2.215 -0.6459 -0.3256  0.4949
  107MOL   C14642758   2.529   6.712   2.332  0.1819  0.2181  0.0523
  107MOL   O14742759   2.391   6.733   2.346 -0.4466  0.0746 -0.4103
  107MOL   C14842760   2.316   6.625   2.415 -0.6010 -0.3451 -0.5727
  107MOL   C14942761   2.612   6.758   2.435 -0.0794 -0.2805  0.5666
  107MOL   C15042762   2.754   6.757   2.421 -0.2272  0.1541 -0.2324
  107MOL   C15142763   3.001   6.872   2.239  0.3049 -0.7124  0.0879
  107MOL   H15242764   2.996   6.676   2.170  0.0343 -2.3392  1.4035
  107MOL   H15342765   2.766   6.609   2.114  0.8038  0.3354  0.1700
  107MOL   H15442766   2.526   6.623   2.131 -1.4519  1.5399  0.2599
  107MOL   H15542767   2.328   6.650   2.521  2.6259 -0.7951 -0.7956
  107MOL   H15642768   2.216   6.622   2.371 -0.5719 -0.6336 -0.6188
  107MOL   H15742769   2.354   6.527   2.388 -0.3309 -0.3135 -0.3150
  107MOL   H15842770   2.575   6.807   2.524  0.6020 -0.6299  1.0394
  107MOL   H15942771   2.820   6.791   2.499 -0.0129 -0.1193 -0.2969
  107MOL   H16042772   3.088   6.887   2.304 -0.9252  0.2005  1.5525
  107MOL   H16142773   2.922   6.941   2.269  0.7289 -0.4623  0.6375
  107MOL   C16242774   3.041   6.910   2.093  0.6281  1.1530  0.4497
  107MOL   C16342775   3.104   7.047   2.079 -0.2075 -0.1791  0.3753
  107MOL   C16442776   3.035   7.157   2.131  0.5958 -0.2176 -0.7222
  107MOL   C16542777   3.096   7.281   2.126 -0.6441 -0.3147 -0.7043
  107MOL   C16642778   3.223   7.300   2.063  0.6752  0.0231 -0.4352
  107MOL   O16742779   3.285   7.428   2.066  0.0586 -0.5496  0.2935
  107MOL   C16842780   3.425   7.447   2.030 -0.1819  0.1188  0.0991
  107MOL   C16942781   3.292   7.191   2.015  0.8777  0.0105 -0.5295
  107MOL   C17042782   3.229   7.064   2.014  0.1588 -0.7022  0.3091
  107MOL   C17142783   2.916   6.901   1.998  0.3057 -0.1686 -0.2266
  107MOL   H17242784   3.117   6.836   2.067 -1.2376 -0.3874 -0.7436
  107MOL   H17342785   2.937   7.145   2.174  1.7232 -0.8233  1.7404
  107MOL   H17442786   3.057   7.365   2.181  0.9099 -1.8180  2.8352
  107MOL   H17542787   3.451   7.551   2.011 -2.0975  0.4099 -1.0489
  107MOL   H17642788   3.453   7.412   1.930 -0.2009  0.4235 -0.0128
  107MOL   H17742789   3.500   7.411   2.100 -0.4157  0.3554  0.4687
  107MOL   H17842790   3.388   7.194   1.967  0.2932 -1.6830 -1.8570
  107MOL   H17942791   3.279   6.982   1.963  1.9746  0.4371  0.2303
  107MOL   H18042792   2.833   6.959   2.040  0.5251  0.6795 -0.9424
  107MOL   H18142793   2.864   6.805   2.001 -0.1070 -0.0250 -2.0792
  107MOL   C18242794   2.935   6.934   1.851 -0.7261  0.1980 -0.1121
  107MOL   C18342795   2.832   7.043   1.828 -0.1554 -0.2134  0.1704
  107MOL   C18442796   2.871   7.180   1.809  0.0572 -0.3022 -0.9968
  107MOL   C18542797   2.778   7.275   1.801 -0.6538 -0.2148 -0.0952
  107MOL   C18642798   2.640   7.244   1.810  0.1125  0.6104 -0.1644
  107MOL   O18742799   2.543   7.343   1.795 -0.0732  0.1556  0.8572
  107MOL   C18842800   2.554   7.439   1.693 -0.5845 -0.9974  0.6801
  107MOL   C18942801   2.602   7.113   1.836 -0.2505 -0.1044  0.7281
  107MOL   C19042802   2.696   7.018   1.827 -0.1288  0.3859  0.4414
  107MOL   C19142803   2.918   6.809   1.762 -0.1395  0.3376 -0.2676
  107MOL   H19242804   3.036   6.973   1.840  0.4903 -2.8372 -0.2695
  107MOL   H19342805   2.978   7.192   1.798 -0.0624  0.2060 -1.5675
  107MOL   H19442806   2.806   7.378   1.783 -0.7642 -0.5105 -2.1354
  107MOL   H19542807   2.631   7.514   1.712 -0.0053 -1.3830 -0.1461
  107MOL   H19642808   2.461   7.495   1.681 -0.5170 -0.8650  0.7717
  107MOL   H19742809   2.573   7.380   1.604 -1.4649 -0.1980 -0.0492
  107MOL   H19842810   2.500   7.080   1.849 -0.2288 -0.8163 -0.6835
  107MOL   H19942811   2.655   6.918   1.831 -0.0287 -0.0193 -5.4071
  107MOL   H20042812   2.990   6.739   1.805 -2.7963 -1.3502  1.6117
  107MOL   H20142813   2.816   6.778   1.784 -0.4034  0.3274 -1.4435
  107MOL   C20242814   2.922   6.832   1.606 -0.3117 -0.5076  0.0145
  107MOL   C20342815   2.945   6.694   1.537  0.6830 -0.2439 -0.0273
  107MOL   C20442816   2.840   6.622   1.473  0.3350  0.1488 -0.5865
  107MOL   C20542817   2.861   6.493   1.425  0.3441  0.0053 -0.3825
  107MOL   C20642818   2.984   6.430   1.436  0.1649  0.2409 -0.1886
  107MOL   O20742819   3.002   6.299   1.400  0.0515 -0.0994  0.0739
  107MOL   C20842820   2.904   6.249   1.304 -0.0112 -0.0707  0.0396
  107MOL   C20942821   3.082   6.492   1.502 -0.6895 -0.1994 -0.3506
  107MOL   C21042822   3.070   6.624   1.553  0.3184  0.3276  0.9596
  107MOL   C21142823   3.042   6.926   1.567  0.3712 -0.5422  0.2556
  107MOL   H21242824   2.828   6.878   1.578  0.0193  1.1750  1.5968
  107MOL   H21342825   2.738   6.657   1.465 -0.4909 -1.9005  0.5253
  107MOL   H21442826   2.769   6.454   1.385  1.6311 -0.8837 -2.5882
  107MOL   H21542827   2.936   6.147   1.281 -3.1853 -0.7476 -1.7072
  107MOL   H21642828   2.799   6.234   1.327 -0.6329 -3.4887 -4.2458
  107MOL   H21742829   2.910   6.304   1.210  0.7041 -0.4022 -0.1154
  107MOL   H21842830   3.180   6.448   1.506 -0.4534  0.3147 -0.4236
  107MOL   H21942831   3.147   6.678   1.606 -0.2669  1.9431  0.1761
  107MOL   H22042832   3.136   6.885   1.604  0.2788 -0.6373  0.3867
  107MOL   H22142833   3.044   7.021   1.622  1.2767 -0.3612 -0.0741
  107MOL   C22242834   3.056   6.964   1.416  0.2108  0.0151  0.0506
  107MOL   C22342835   2.926   7.018   1.353 -0.5913 -0.2672  0.7935
  107MOL   C22442836   2.872   6.965   1.233 -0.6712 -0.1454 -0.3489
  107MOL   C22542837   2.768   7.030   1.168  0.8768 -0.1598  0.0607
  107MOL   C22642838   2.709   7.147   1.220 -1.0737  0.0813  0.0111
  107MOL   O22742839   2.609   7.225   1.153 -0.3497  0.5159  0.1429
  107MOL   C22842840   2.546   7.170   1.042  0.2739  0.0336  0.5718
  107MOL   C22942841   2.758   7.197   1.339 -0.0002  0.1032 -0.0283
  107MOL   C23042842   2.863   7.130   1.401  0.3707  0.2291  0.4000
  107MOL   C23142843   3.169   7.054   1.382  0.1772  0.0682  0.0422
  107MOL   H23242844   3.076   6.864   1.377 -0.0939  0.3012 -0.8290
  107MOL   H23342845   2.912   6.880   1.181 -0.3175 -0.2696  0.1206
  107MOL   H23442846   2.737   7.002   1.068  1.6169 -1.6486  0.2353
  107MOL   H23542847   2.455   7.228   1.032  0.3622  0.4024  1.8354
  107MOL   H23642848   2.611   7.164   0.954 -0.3558  1.0836  0.0181
  107MOL   H23742849   2.507   7.073   1.071  2.1727 -1.4375 -1.5298
  107MOL   H23842850   2.706   7.281   1.383 -1.3755  0.1982 -1.7980
  107MOL   H23942851   2.886   7.173   1.498 -0.4417 -0.7059  1.0130
  107MOL   H24042852   3.164   7.092   1.280 -0.2547 -0.0450  0.0179
  107MOL   H24142853   3.148   7.142   1.442  1.2827  0.2371  0.1869
  107MOL   C24242854   3.311   7.002   1.410 -1.1686 -0.3315  0.0439
  107MOL   C24342855   3.334   6.872   1.326  0.1881  0.8212 -0.3792
  107MOL   C24442856   3.391   6.756   1.383 -0.8145  0.1366  1.1013
  107MOL   C24542857   3.430   6.641   1.303 -0.4186  0.0481 -1.0482
  107MOL   C24642858   3.400   6.645   1.164 -0.1208  0.4848  0.2231
  107MOL   O24742859   3.434   6.534   1.090 -0.5158 -0.3714 -0.0432
  107MOL   C24842860   3.421   6.538   0.949 -0.2312 -0.6529  0.4850
  107MOL   C24942861   3.337   6.767   1.111 -0.1753  0.1054 -0.0497
  107MOL   C25042862   3.303   6.877   1.188 -0.1881 -0.2927  1.1375
  107MOL   C25142863   3.428   7.091   1.375 -0.0046 -0.0673 -0.9257
  107MOL   H25242864   3.342   6.978   1.512  0.7632 -2.3053 -0.9588
  107MOL   H25342865   3.399   6.758   1.491 -2.1343  2.5283  1.1763
  107MOL   H25442866   3.461   6.551   1.353  2.6773  1.0469 -1.0632
  107MOL   H25542867   3.474   6.625   0.910 -0.5251 -0.0596  1.3759
  107MOL   H25642868   3.469   6.450   0.906 -1.9381 -0.7014 -1.3308
  107MOL   H25742869   3.314   6.539   0.928 -0.1044  2.5188 -0.3534
  107MOL   H25842870   3.315   6.777   1.006 -2.6368  0.4954  0.4687
  107MOL   H25942871   3.263   6.964   1.138 -4.3842 -2.8373 -0.1869
  107MOL   H26042872   3.453   7.083   1.270  1.7877  0.7338 -0.5767
  107MOL   H26142873   3.525   7.056   1.412  0.5444  1.3638 -0.9916
  107MOL   C26242874   3.416   7.237   1.405  0.2992 -0.0634  0.3724
  107MOL   C26342875   3.442   7.316   1.270  0.2680  0.3636 -0.3325
  107MOL   C26442876   3.570   7.309   1.217 -0.7698  0.1964 -0.5963
  107MOL   C26542877   3.597   7.361   1.088  0.0957  0.4323  0.2952
  107MOL   C26642878   3.496   7.420   1.006  0.4044 -0.0073 -0.2007
  107MOL   O26742879   3.520   7.482   0.884 -0.4855 -0.4827  0.5469
  107MOL   C26842880   3.651   7.469   0.828  0.0325  0.3759  0.3861
  107MOL   C26942881   3.367   7.416   1.062  0.7144  0.1586 -0.1804
  107MOL   C27042882   3.341   7.370   1.197 -0.0191 -0.5266 -0.2947
  107MOL   C27142883   3.517   7.276   1.515  0.5383 -0.0980  0.7758
  107MOL   H27242884   3.314   7.262   1.433 -0.7485 -1.0527 -2.4070
  107MOL   H27342885   3.656   7.263   1.264 -0.2337  0.6418 -1.1366
  107MOL   H27442886   3.697   7.349   1.050  0.1848  1.5153  0.1525
  107MOL   H27542887   3.684   7.365   0.827  0.0558  0.3802  0.6896
  107MOL   H27642888   3.730   7.529   0.875 -0.0956 -0.6382  1.9191
  107MOL   H27742889   3.643   7.496   0.723 -1.9580 -0.7996  0.2119
  107MOL   H27842890   3.281   7.450   1.007  0.0095 -0.0376  0.7829
  107MOL   H27942891   3.242   7.385   1.239  0.4625 -0.2595  0.7687
  107MOL   H28042892   3.506   7.203   1.595 -1.6604  1.1240  1.6261
  107MOL   H28142893   3.618   7.260   1.477  0.1022 -3.5302  0.8648
  107MOL   C28242894   3.506   7.420   1.584 -0.6426  0.8107 -0.4660
  107MOL   C28342895   3.361   7.460   1.600 -0.2761  0.5854 -0.5905
  107MOL   C28442896   3.296   7.543   1.507 -0.0442  0.4096  0.4530
  107MOL   C28542897   3.162   7.571   1.514  0.2174  0.2260  0.5380
  107MOL   C28642898   3.085   7.518   1.616 -0.4795 -0.0013  0.1945
  107MOL   O28742899   2.949   7.523   1.628 -0.7400 -0.0980  0.0855
  107MOL   C28842900   2.889   7.602   1.525  0.4554 -0.8246 -0.1196
  107MOL   C28942901   3.145   7.436   1.709  0.1988 -0.3356 -0.0878
  107MOL   C29042902   3.281   7.401   1.700  0.0699  0.3741 -0.3601
  107MOL   C29142903   3.603   7.520   1.519  0.5276 -0.2345  0.5896
  107MOL   H29242904   3.541   7.428   1.687 -2.6734  1.4321  0.2001
  107MOL   H29342905   3.359   7.591   1.433 -3.2348  2.3388 -1.0850
  107MOL   H29442906   3.134   7.645   1.440  1.7852  0.2027 -0.0986
  107MOL   H29542907   2.785   7.622   1.553  0.4950  0.8633 -1.1108
  107MOL   H29642908   2.924   7.705   1.530 -1.3948 -0.2241  1.7509
  107MOL   H29742909   2.893   7.562   1.424 -2.4531  0.0912 -0.6439
  107MOL   H29842910   3.092   7.388   1.790 -0.8954 -0.9195 -1.1376
  107MOL   H29942911   3.325   7.338   1.776  1.4973  0.3074 -1.2451
  107MOL   H30042912   3.701   7.475   1.503  0.4672 -0.0841 -0.2430
  107MOL   H30142913   3.564   7.542   1.420  2.6743  2.8467  0.3435
  107MOL   C30242914   3.623   7.666   1.578 -0.0935  0.5601 -0.5893
  107MOL   C30342915   3.673   7.646   1.721  0.3131 -0.1527 -0.0421
  107MOL   C30442916   3.597   7.699   1.831 -0.3491 -0.3544 -0.0584
  107MOL   C30542917   3.651   7.683   1.962  0.0780  0.9347  0.1098
  107MOL   C30642918   3.768   7.609   1.984 -0.0572 -0.3972 -0.2142
  107MOL   O30742919   3.809   7.602   2.115  0.0328 -0.2106  0.2635
  107MOL   C30842920   3.844   7.474   2.155  0.2964  0.2641 -0.0080
  107MOL   C30942921   3.839   7.554   1.877 -0.3709  0.4306  0.7184
  107MOL   C31042922   3.793   7.580   1.748  0.4848  0.3401 -0.1114
  107MOL   C31142923   3.721   7.757   1.503 -0.0325  0.0885  0.1316
  107MOL   H31242924   3.527   7.716   1.586 -0.1893  0.0455  1.9353
  107MOL   H31342925   3.504   7.749   1.812 -0.2786  0.2009  1.0356
  107MOL   H31442926   3.602   7.727   2.047 -0.9242  1.0772 -0.5202
  107MOL   H31542927   3.762   7.404   2.139  0.5783  0.2172 -1.2887
  107MOL   H31642928   3.839   7.463   2.263  0.3221 -0.9619 -0.1193
  107MOL   H31742929   3.944   7.442   2.125  0.4609  0.3174  0.4803
  107MOL   H31842930   3.927   7.492   1.893 -0.0930 -0.0903 -2.6213
  107MOL   H31942931   3.845   7.536   1.664 -0.1086 -0.6835  0.0482
  107MOL   H32042932   3.816   7.705   1.490  0.0361  0.1974  0.1986
  107MOL   H32142933   3.752   7.846   1.558 -0.1261  0.6184 -0.6473
  107MOL   C32242934   3.663   7.794   1.364  0.0309 -0.1333 -0.0946
  107MOL   C32342935   3.775   7.832   1.264 -0.0952 -0.2712 -0.6134
  107MOL   C32442936   3.779   7.764   1.139 -0.5096 -0.4557 -0.2728
  107MOL   C32542937   3.879   7.795   1.045  0.5272  0.5509 -0.8884
  107MOL   C32642938   3.984   7.876   1.080  0.3157  0.0703  0.2718
  107MOL   O32742939   4.078   7.877   0.985  0.0790 -0.2435  0.6031
  107MOL   C32842940   4.197   7.936   1.012  0.1011 -0.6683  0.1670
  107MOL   C32942941   3.984   7.946   1.200 -0.4100  0.2400 -0.1552
  107MOL   C33042942   3.874   7.927   1.296  0.0588 -0.2722  0.2536
  107MOL   C33142943   3.558   7.913   1.375  0.0179  0.3795 -0.3457
  107MOL   H33242944   3.608   7.713   1.316 -0.9964  1.1550 -1.1366
  107MOL   H33342945   3.701   7.694   1.115 -1.0628 -0.1270  0.5584
  107MOL   H33442946   3.880   7.744   0.950 -0.6224 -0.2837 -0.4727
  107MOL   H33542947   4.278   7.889   0.956 -1.5751 -1.0130 -2.0454
  107MOL   H33642948   4.233   7.915   1.113 -0.0699  0.7976  0.5405
  107MOL   H33742949   4.185   8.039   0.979 -0.8057 -0.9439 -0.3669
  107MOL   H33842950   4.065   8.014   1.220  0.2763 -0.2947 -1.0728
  107MOL   H33942951   3.872   7.982   1.389 -0.0893 -1.2759  0.8523
  107MOL   H34042952   3.488   7.899   1.458  0.0582  3.3037  0.2413
  107MOL   H34142953   3.610   8.004   1.407 -0.0178 -0.9113  3.6452
  107MOL   C34242954   3.474   7.947   1.248 -0.1103 -0.1035  0.7003
  107MOL   C34342955   3.396   0.035   1.273  0.3908 -0.0857  0.0503
  107MOL   C34442956   3.447   0.160   1.233  0.1098 -0.0205 -0.4422
  107MOL   C34542957   3.373   0.275   1.241 -0.1235 -0.3317 -0.2095
  107MOL   C34642958   3.247   0.268   1.304 -0.1651  0.8782 -0.0840
  107MOL   O34742959   3.164   0.366   1.318  0.0087  0.4534  0.0385
  107MOL   C34842960   3.181   0.490   1.262  0.0748 -0.0413  0.2688
  107MOL   C34942961   3.201   0.150   1.358  0.3723  0.6580 -0.5175
  107MOL   C35042962   3.276   0.025   1.342  0.4033  0.5294 -0.1030
  107MOL   C35142963   3.388   7.818   1.203  0.4717  0.0185  0.1941
  107MOL   H35242964   3.533   7.975   1.161 -1.4806  1.9504  0.3811
  107MOL   H35342965   3.547   0.166   1.193  0.6512 -0.6977  0.8051
  107MOL   H35442966   3.406   0.367   1.196 -0.3999 -0.9195 -1.6508
  107MOL   H35542967   3.100   0.561   1.275  0.5638  0.6681 -0.4395
  107MOL   H35642968   3.267   0.544   1.302  0.1038  0.8429 -0.9297
  107MOL   H35742969   3.184   0.487   1.153 -0.1817 -0.2574  0.2667
  107MOL   H35842970   3.102   0.144   1.401  0.8540 -0.4877  0.4768
  107MOL   H35942971   3.248   7.970   1.384 -1.5571  0.9460 -0.4387
  107MOL   H36042972   3.453   7.736   1.171 -0.6541 -1.2407  1.0667
  107MOL   H36142973   3.340   7.784   1.295 -2.6058  0.0499 -1.3766
  107MOL   C36242974   3.285   7.845   1.088  0.2828  0.8400  0.8881
  107MOL   C36342975   3.142   7.794   1.126 -0.5437  0.7396  0.1533
  107MOL   C36442976   3.038   7.887   1.110 -0.6196 -0.3271 -0.0307
  107MOL   C36542977   2.903   7.851   1.130 -0.2990 -0.2587  0.1253
  107MOL   C36642978   2.871   7.720   1.170  0.8053 -0.5379  0.2998
  107MOL   O36742979   2.736   7.697   1.192 -0.4253  0.2126 -0.2246
  107MOL   C36842980   2.689   7.561   1.205  0.0932  0.4086 -0.4019
  107MOL   C36942981   2.972   7.627   1.191 -0.6819 -0.9894 -0.0913
  107MOL   C37042982   3.111   7.663   1.170  0.1456 -0.1624  0.2260
  107MOL   C37142983   3.333   7.788   0.946  0.2376  0.5596  0.6595
  107MOL   H37242984   3.282   7.953   1.079  0.5420  1.0403  2.8591
  107MOL   H37342985   3.061   7.983   1.066 -0.2602  1.3639  3.6728
  107MOL   H37442986   2.824   7.926   1.129  0.4205  0.5056  0.0052
  107MOL   H37542987   2.580   7.557   1.201  0.0423  1.2528 -0.1043
  107MOL   H37642988   2.726   7.487   1.135 -0.4970  1.3858 -1.7587
  107MOL   H37742989   2.711   7.516   1.302 -1.4573  0.8758  0.1858
  107MOL   H37842990   2.966   7.524   1.224  1.2814 -1.0339  0.1888
  107MOL   H37942991   3.191   7.590   1.175 -0.3871 -0.7652  0.0219
  107MOL   H38042992   3.421   7.842   0.911  0.0802 -1.1583 -2.5627
  107MOL   H38142993   3.367   7.685   0.948  1.4976  0.8766 -1.9593
  107MOL   C38242994   3.229   7.797   0.832  0.4104  0.7052 -1.2721
  107MOL   C38342995   3.126   7.684   0.823  0.1409  0.3604  0.4361
  107MOL   C38442996   3.175   7.550   0.808  0.1846 -0.3083 -0.2668
  107MOL   C38542997   3.081   7.446   0.778 -0.6658  0.8043 -0.2815
  107MOL   C38642998   2.940   7.465   0.771 -0.0920  0.5361 -0.1195
  107MOL   O38742999   2.844   7.366   0.755 -0.4096 -0.2333  0.1441
  107MOL   C38843000   2.885   7.232   0.768  0.8659  0.1274 -0.3671
  107MOL   C38943001   2.896   7.600   0.796 -0.1071  0.1520  0.2866
  107MOL   C39043002   2.988   7.705   0.820 -0.1852 -0.0716 -0.8279
  107MOL   C39143003   3.301   7.811   0.698  0.1198 -0.5263 -0.4887
  107MOL   H39243004   3.170   7.886   0.855  2.3011  1.7561 -0.3917
  107MOL   H39343005   3.278   7.518   0.801  0.1084 -0.6992  0.3263
  107MOL   H39443006   3.121   7.346   0.780 -0.0802  1.0574  3.0870
  107MOL   H39543007   2.942   7.221   0.860 -1.2073  3.3252  1.3922
  107MOL   H39643008   2.922   7.190   0.674  1.6039 -0.6830  0.2767
  107MOL   H39743009   2.800   7.166   0.785  0.4370  0.6286 -0.5506
  107MOL   H39843010   2.792   7.617   0.772  0.3447 -0.1052 -1.9478
  107MOL   H39943011   2.949   7.805   0.835 -1.0252 -0.5450  0.1766
  107MOL   H40043012   3.365   7.899   0.693  0.0618 -0.5167 -1.0972
  107MOL   H40143013   3.237   7.816   0.609 -1.2404 -1.3832  0.4190
  107MOL   H40243014   3.369   7.728   0.677 -0.9009 -1.4293 -0.2921
  108MOL     C143015   6.907   5.204   0.689 -0.1430  0.5934 -0.2771
  108MOL     C243016   7.042   5.263   0.665 -0.1289  0.1199 -0.0706
  108MOL     C343017   7.098   5.269   0.538  0.1611 -0.0531 -0.5662
  108MOL     C443018   7.236   5.305   0.521  0.3454  0.1759  0.8465
  108MOL     C543019   7.307   5.364   0.629  0.1726  0.1531  0.0561
  108MOL     O643020   7.427   5.423   0.610  0.2833 -0.1126  0.7637
  108MOL     C743021   7.482   5.443   0.478  0.6370 -0.4901 -0.4492
  108MOL     C843022   7.246   5.364   0.755  0.5851 -0.4550  0.5652
  108MOL     C943023   7.116   5.309   0.773 -0.2622  0.1547  0.1882
  108MOL    C1043024   6.801   5.309   0.635  0.2510 -0.0348  0.8366
  108MOL    H1143025   6.896   5.171   0.792  0.0017 -0.8480 -0.7199
  108MOL    H1243026   7.044   5.220   0.458  0.5141 -0.9250 -0.2686
  108MOL    H1343027   7.276   5.293   0.421 -0.8985  2.2677  0.0815
  108MOL    H1443028   7.495   5.348   0.425  0.5373 -0.5065 -0.4446
  108MOL    H1543029   7.408   5.492   0.415 -1.0392  0.2487  1.9999
  108MOL    H1643030   7.568   5.504   0.505  0.0691 -0.1208  0.5568
  108MOL    H1743031   7.301   5.398   0.841 -1.7322  1.0323  1.4863
  108MOL    H1843032   7.073   5.305   0.872  1.3149 -0.9021  0.8467
  108MOL    H1943033   6.817   5.323   0.528  0.7353  0.5189  0.9803
  108MOL    H2043034   6.698   5.278   0.653 -0.2358  1.6972  1.1438
  108MOL    H2143035   6.897   5.110   0.636  0.0019  1.9584 -2.8206
  108MOL    C2243036   6.805   5.450   0.696  0.0012 -0.0031 -0.0943
  108MOL    C2343037   6.707   5.536   0.624 -0.6318  0.5575  0.0486
  108MOL    C2443038   6.748   5.650   0.559 -0.4322 -0.0855  0.6038
  108MOL    C2543039   6.663   5.732   0.482  0.5616  0.2953  0.3261
  108MOL    C2643040   6.529   5.690   0.467  0.1797 -0.1112  0.3254
  108MOL    O2743041   6.435   5.776   0.413 -0.2274  0.0775 -0.5884
  108MOL    C2843042   6.454   5.913   0.399 -0.8077 -0.5390 -0.5460
  108MOL    C2943043   6.485   5.571   0.531  0.1583  0.2599 -0.3811
  108MOL    C3043044   6.565   5.500   0.614  0.4285  0.7099 -0.0165
  108MOL    C3143045   6.763   5.457   0.840  0.2923  0.0398  0.2622
  108MOL    H3243046   6.908   5.478   0.678 -0.6618  0.5678 -3.2306
  108MOL    H3343047   6.846   5.692   0.576 -1.1444  1.9768 -0.1852
  108MOL    H3443048   6.700   5.831   0.461  0.2040  0.2990 -0.3252
  108MOL    H3543049   6.478   5.944   0.501 -2.5036 -0.0198 -0.2915
  108MOL    H3643050   6.374   5.973   0.356  0.8639  2.3327  0.1974
  108MOL    H3743051   6.541   5.935   0.337 -1.9813  0.9275 -1.6848
  108MOL    H3843052   6.379   5.555   0.516 -0.2744  1.5631  1.0449
  108MOL    H3943053   6.523   5.419   0.672 -1.2107  0.0717 -2.0211
  108MOL    H4043054   6.660   5.426   0.858 -0.4751  2.3336 -0.0210
  108MOL    H4143055   6.820   5.381   0.894  0.7853 -0.5413 -1.0524
  108MOL    C4243056   6.779   5.599   0.903 -1.1602  0.0588 -0.0894
  108MOL    C4343057   6.926   5.649   0.892  0.4773  0.1839 -0.2435
  108MOL    C4443058   7.039   5.582   0.956 -0.2065 -0.5068 -0.3314
  108MOL    C4543059   7.166   5.637   0.955 -0.4988  0.2907 -0.1582
  108MOL    C4643060   7.190   5.766   0.901 -0.1856 -0.2551  0.4874
  108MOL    O4743061   7.322   5.818   0.898  0.0194  0.1305  0.8116
  108MOL    C4843062   7.324   5.953   0.929  0.5851 -0.4579  0.2215
  108MOL    C4943063   7.081   5.835   0.839 -0.3581 -0.1241  0.4573
  108MOL    C5043064   6.956   5.773   0.831 -1.3219  0.5620  1.2247
  108MOL    C5143065   6.736   5.607   1.057  0.1491  0.2231  1.0571
  108MOL    H5243066   6.724   5.674   0.846 -2.6464 -0.7249  0.2717
  108MOL    H5343067   7.027   5.481   0.993  1.2237 -0.2659  0.8368
  108MOL    H5443068   7.248   5.571   0.983 -0.2015  0.9873  0.6293
  108MOL    H5543069   7.285   6.024   0.856  1.0328 -2.1523 -1.7117
  108MOL    H5643070   7.272   5.971   1.023  0.7703  0.6602  0.1121
  108MOL    H5743071   7.428   5.975   0.950 -0.0256  1.7822  1.0871
  108MOL    H5843072   7.090   5.925   0.781 -1.9383 -0.3654 -0.1966
  108MOL    H5943073   6.872   5.817   0.780 -0.7593  1.7680  1.3347
  108MOL    H6043074   6.803   5.551   1.123  0.5481 -0.9577 -0.3232
  108MOL    H6143075   6.639   5.559   1.061 -0.9084  1.8918 -2.2723
  108MOL    C6243076   6.730   5.742   1.113  0.6188 -0.5995  0.4500
  108MOL    C6343077   6.750   5.742   1.263 -0.3272  0.2959  0.5253
  108MOL    C6443078   6.647   5.699   1.344 -0.2529  0.3254 -0.1797
  108MOL    C6543079   6.664   5.698   1.485 -0.9624  0.2438 -1.1183
  108MOL    C6643080   6.779   5.753   1.545  0.2432  0.0888 -0.3544
  108MOL    O6743081   6.772   5.762   1.684 -0.1392  0.3614 -0.2172
  108MOL    C6843082   6.880   5.808   1.762  0.5927 -0.7253 -0.5072
  108MOL    C6943083   6.887   5.799   1.462 -0.1312 -0.4864  0.2921
  108MOL    C7043084   6.872   5.784   1.321  0.5367  0.0764 -0.3142
  108MOL    C7143085   6.596   5.808   1.061  0.3707  0.2400  0.1291
  108MOL    H7243086   6.822   5.792   1.082 -1.0103  1.5935 -1.0030
  108MOL    H7343087   6.558   5.661   1.296 -0.6735  2.4042 -1.0836
  108MOL    H7443088   6.583   5.660   1.546 -1.7635 -0.0136 -2.3239
  108MOL    H7543089   6.891   5.743   1.848 -2.3908 -0.5047  0.0889
  108MOL    H7643090   6.867   5.913   1.788 -2.2652 -1.0170 -0.5778
  108MOL    H7743091   6.979   5.794   1.719  0.1863 -0.8713 -1.4152
  108MOL    H7843092   6.978   5.844   1.499  1.3684 -0.2312 -3.5536
  108MOL    H7943093   6.951   5.816   1.256 -0.2749 -0.8197 -1.7561
  108MOL    H8043094   6.601   5.826   0.953  0.2481 -1.0973 -0.1063
  108MOL    H8143095   6.508   5.745   1.073  0.5205 -0.1739 -0.8924
  108MOL    C8243096   6.570   5.945   1.123  0.1215  0.1770 -0.2488
  108MOL    C8343097   6.686   6.035   1.101 -0.8764 -0.0970  0.5112
  108MOL    C8443098   6.761   6.085   1.210  0.1838 -0.1381 -0.1725
  108MOL    C8543099   6.888   6.155   1.197  0.8009 -0.2095 -0.3106
  108MOL    C8643100   6.937   6.181   1.066 -0.0786  0.2182 -0.0896
  108MOL    O8743101   7.055   6.254   1.045  0.0860  0.3959 -1.1011
  108MOL    C8843102   7.146   6.268   1.153 -0.2240  0.1096 -0.4087
  108MOL    C8943103   6.864   6.132   0.952 -0.1749  0.9854  0.4248
  108MOL    C9043104   6.743   6.063   0.974  0.6038 -0.7168  0.6649
  108MOL    C9143105   6.435   6.018   1.091  0.2460 -0.0886  0.0083
  108MOL    H9243106   6.574   5.936   1.231  3.1575  0.6603 -0.2632
  108MOL    H9343107   6.734   6.060   1.312  4.1128 -0.5781  0.8283
  108MOL    H9443108   6.945   6.170   1.287 -0.8982  0.6363  0.6470
  108MOL    H9543109   7.240   6.305   1.112  0.3686 -0.0469  0.7855
  108MOL    H9643110   7.175   6.176   1.204  0.1561 -0.6057 -1.8785
  108MOL    H9743111   7.098   6.328   1.230  0.3907 -1.2488  1.0656
  108MOL    H9843112   6.907   6.147   0.854  1.0939  1.3370  1.0240
  108MOL    H9943113   6.699   6.020   0.885 -0.1730  0.4668  0.4639
  108MOL   H10043114   6.428   6.109   1.150  0.4015 -0.7364  1.0405
  108MOL   H10143115   6.434   6.054   0.988 -0.8307  0.7097  0.2913
  108MOL   C10243116   6.301   5.938   1.117 -0.7641 -0.5273  0.2194
  108MOL   C10343117   6.308   5.862   1.249  0.1981  1.0711 -0.2747
  108MOL   C10443118   6.353   5.931   1.366 -0.8215  0.1481  0.5661
  108MOL   C10543119   6.358   5.875   1.493 -0.2729  0.9003 -0.9459
  108MOL   C10643120   6.313   5.741   1.503 -0.1263 -0.8474  0.4370
  108MOL   O10743121   6.314   5.699   1.636  0.6688  0.6662  0.7640
  108MOL   C10843122   6.282   5.555   1.670  0.3827  0.4741  0.5933
  108MOL   C10943123   6.270   5.668   1.385  0.5393 -0.3729  0.3420
  108MOL   C11043124   6.268   5.726   1.260  0.8106 -0.5069  0.0011
  108MOL   C11143125   6.172   6.024   1.097 -0.8847 -0.3536  0.0082
  108MOL   H11243126   6.292   5.853   1.049 -1.1904  0.4022 -0.8987
  108MOL   H11343127   6.381   6.035   1.356 -0.3400  0.2560  2.7793
  108MOL   H11443128   6.386   5.926   1.585 -0.2139 -1.3957  0.3429
  108MOL   H11543129   6.301   5.484   1.589 -1.1387 -2.2203  2.5079
  108MOL   H11643130   6.358   5.523   1.741 -0.8963 -1.2060  1.2439
  108MOL   H11743131   6.185   5.531   1.713  1.3849 -1.7611  1.6982
  108MOL   H11843132   6.241   5.564   1.394 -2.7540  0.4681 -0.1010
  108MOL   H11943133   6.236   5.663   1.178 -1.0678  0.6082 -0.1396
  108MOL   H12043134   6.173   6.114   1.160  1.7270 -0.7838  0.6503
  108MOL   H12143135   6.180   6.064   0.996  2.4758 -0.9189 -0.0027
  108MOL   C12243136   6.040   5.944   1.116  0.2104 -0.3659 -0.0383
  108MOL   C12343137   6.040   5.809   1.042 -0.1319  0.0537 -0.4443
  108MOL   C12443138   6.012   5.698   1.113  0.7146  0.4707 -0.0601
  108MOL   C12543139   6.032   5.567   1.062  1.3031  0.2266 -0.4749
  108MOL   C12643140   6.085   5.551   0.931 -0.1842  0.8485 -0.0060
  108MOL   O12743141   6.125   5.423   0.889  0.0629 -0.3276 -0.0697
  108MOL   C12843142   6.220   5.414   0.777 -0.3376  0.2030 -0.4363
  108MOL   C12943143   6.110   5.672   0.854  0.1425  0.2381  0.4208
  108MOL   C13043144   6.083   5.800   0.911  0.2479 -0.3913  0.1107
  108MOL   C13143145   5.919   6.022   1.064  0.0054  0.0570 -0.7506
  108MOL   H13243146   6.032   5.922   1.222 -2.0074 -0.0200 -0.0915
  108MOL   H13343147   5.962   5.702   1.209 -0.1501 -0.1750 -0.4756
  108MOL   H13443148   6.003   5.479   1.117  1.9837  0.3216  0.0342
  108MOL   H13543149   6.308   5.476   0.793  0.5196 -0.5871 -1.9866
  108MOL   H13643150   6.252   5.310   0.769  0.7351  0.4896  0.0676
  108MOL   H13743151   6.172   5.438   0.682  3.7023  0.6671 -2.4793
  108MOL   H13843152   6.140   5.666   0.751 -0.8661  0.4031  0.1131
  108MOL   H13943153   6.098   5.888   0.851  0.9726 -0.5186  0.1027
  108MOL   H14043154   5.842   5.945   1.058  1.4408 -1.3718 -1.2574
  108MOL   H14143155   5.940   6.051   0.961  0.6880  0.2233 -0.5682
  108MOL   C14243156   5.874   6.148   1.137 -0.3954 -0.2979  0.0546
  108MOL   C14343157   5.725   6.165   1.116 -0.7974  0.4636  0.9178
  108MOL   C14443158   5.677   6.278   1.048 -0.4886  0.0600  0.0839
  108MOL   C14543159   5.541   6.307   1.045  0.0884 -0.4220 -0.4940
  108MOL   C14643160   5.445   6.214   1.094  0.0512 -0.3675  0.2106
  108MOL   O14743161   5.315   6.247   1.082 -0.1893  0.2417 -0.1167
  108MOL   C14843162   5.221   6.181   1.163 -0.7529 -0.4182  0.0605
  108MOL   C14943163   5.494   6.089   1.150  0.0018 -1.2212  0.1774
  108MOL   C15043164   5.635   6.073   1.171  0.2212 -0.5140  0.9349
  108MOL   C15143165   5.905   6.146   1.292  1.0036 -0.4349  0.1573
  108MOL   H15243166   5.921   6.232   1.087 -1.4560 -0.0783 -0.5955
  108MOL   H15343167   5.752   6.347   1.011  0.1403  1.0734  3.0875
  108MOL   H15443168   5.521   6.405   1.005  1.8891  1.0244  2.0343
  108MOL   H15543169   5.228   6.205   1.269  2.1217 -1.4739  0.1777
  108MOL   H15643170   5.124   6.212   1.127 -0.1552 -0.3767 -1.5324
  108MOL   H15743171   5.210   6.074   1.143 -1.7510 -0.3184  0.0603
  108MOL   H15843172   5.427   6.012   1.185 -0.8612 -2.3624 -3.7963
  108MOL   H15943173   5.671   5.981   1.214  1.1285 -0.2909  0.6652
  108MOL   H16043174   6.012   6.138   1.313  0.5321 -0.2237  2.8670
  108MOL   H16143175   5.855   6.057   1.329  0.1917  0.0249  0.1868
  108MOL   C16243176   5.858   6.269   1.375  0.3168  0.2288  0.2089
  108MOL   C16343177   5.906   6.389   1.304  0.0181  0.2608 -0.1590
  108MOL   C16443178   5.810   6.492   1.280 -0.6631 -0.1905 -0.1384
  108MOL   C16543179   5.859   6.611   1.233 -0.5219 -0.4401  0.0316
  108MOL   C16643180   5.994   6.627   1.189  0.6302 -0.5970  0.0738
  108MOL   O16743181   6.052   6.743   1.143 -0.5495 -0.3184 -0.0523
  108MOL   C16843182   5.972   6.834   1.077  0.0161  0.3472 -0.1460
  108MOL   C16943183   6.079   6.522   1.206 -0.5147  0.5581 -0.4772
  108MOL   C17043184   6.039   6.404   1.265  0.6750 -0.8923  0.4699
  108MOL   C17143185   5.893   6.271   1.522 -0.1255 -0.2221 -0.2854
  108MOL   H17243186   5.749   6.276   1.371  0.2299  1.1144  3.1296
  108MOL   H17343187   5.707   6.477   1.308 -1.1624  0.2404 -1.7135
  108MOL   H17443188   5.797   6.700   1.233 -0.8180 -0.6345 -1.5343
  108MOL   H17543189   5.891   6.783   1.025 -0.0382 -0.1507  0.4238
  108MOL   H17643190   6.028   6.887   1.000 -1.0346 -0.3546 -1.4226
  108MOL   H17743191   5.937   6.916   1.140 -1.2168 -0.1848 -0.1199
  108MOL   H17843192   6.184   6.540   1.185 -0.0012 -0.6785  0.9290
  108MOL   H17943193   6.113   6.328   1.285 -1.0439 -2.7270  0.1116
  108MOL   H18043194   5.854   6.360   1.571 -0.9894  0.8409 -2.8255
  108MOL   H18143195   6.001   6.281   1.535 -0.0083 -1.3885 -0.2985
  108MOL   C18243196   5.821   6.154   1.597  0.6299  0.2558  0.1841
  108MOL   C18343197   5.668   6.147   1.582 -0.0079 -0.2188 -0.1104
  108MOL   C18443198   5.597   6.268   1.610 -0.0924  0.1283  0.3198
  108MOL   C18543199   5.454   6.257   1.613  0.1495 -0.4554 -0.1002
  108MOL   C18643200   5.385   6.131   1.587  0.9545 -0.0328  0.1974
  108MOL   O18743201   5.251   6.122   1.600 -0.2872  0.3063 -0.0562
  108MOL   C18843202   5.181   6.218   1.687 -0.2093 -0.0964 -0.0219
  108MOL   C18943203   5.458   6.021   1.540 -0.3031 -0.0997 -0.5505
  108MOL   C19043204   5.600   6.026   1.546 -0.4163 -0.0800 -0.0627
  108MOL   C19143205   5.863   6.159   1.751 -0.0666 -0.0240  0.2927
  108MOL   H19243206   5.856   6.062   1.549  0.3785  0.0364  0.4184
  108MOL   H19343207   5.644   6.364   1.627  0.7732 -0.4846  1.4513
  108MOL   H19443208   5.406   6.347   1.648 -1.5718 -1.8051  1.1956
  108MOL   H19543209   5.079   6.180   1.685 -0.8506  1.3665  2.4403
  108MOL   H19643210   5.167   6.316   1.643  0.9119 -0.9913 -2.4781
  108MOL   H19743211   5.220   6.215   1.789  1.3743  1.3075 -0.5737
  108MOL   H19843212   5.404   5.931   1.514 -0.8156  0.3106 -0.9252
  108MOL   H19943213   5.664   5.940   1.535 -0.8789 -0.5220  0.6503
  108MOL   H20043214   5.894   6.261   1.773  0.4809  0.2315 -1.5368
  108MOL   H20143215   5.774   6.144   1.812 -0.3599 -1.5482 -0.4872
  108MOL   C20243216   5.962   6.057   1.806 -0.2383 -0.1805 -0.7987
  108MOL   C20343217   5.924   5.913   1.765 -0.4111 -0.1127  0.4730
  108MOL   C20443218   5.796   5.862   1.804 -0.5189  0.4130 -1.0905
  108MOL   C20543219   5.766   5.735   1.750  0.6374  0.7272  0.5711
  108MOL   C20643220   5.856   5.658   1.677 -0.1223  0.2263  0.7998
  108MOL   O20743221   5.816   5.530   1.640 -0.6794 -0.3481  0.0575
  108MOL   C20843222   5.900   5.448   1.565 -0.6892 -0.6294 -0.2592
  108MOL   C20943223   5.981   5.709   1.641  0.5856  0.5408  0.1494
  108MOL   C21043224   6.013   5.838   1.684 -0.9080  0.3805  0.2292
  108MOL   C21143225   5.978   6.081   1.958  0.1950 -0.0699  0.1674
  108MOL   H21243226   6.060   6.073   1.761 -0.0117  2.0988  0.4288
  108MOL   H21343227   5.726   5.921   1.861 -0.5685  0.4107 -1.1490
  108MOL   H21443228   5.671   5.689   1.775  0.2305  1.0509 -0.3878
  108MOL   H21543229   5.838   5.359   1.561 -0.9882 -0.3556 -2.4804
  108MOL   H21643230   5.910   5.486   1.463 -0.4208 -3.5215 -1.3442
  108MOL   H21743231   5.990   5.436   1.625 -0.3220  0.9739 -0.4459
  108MOL   H21843232   6.041   5.646   1.577 -0.2308  1.2177 -1.3270
  108MOL   H21943233   6.102   5.886   1.647 -0.9042  0.7991  0.7670
  108MOL   H22043234   5.877   6.070   1.996 -0.2990 -1.8719 -1.5953
  108MOL   H22143235   6.010   6.185   1.958 -0.2103  0.0583 -0.8436
  108MOL   C22243236   6.063   5.980   2.038  0.1425  0.5049  1.0814
  108MOL   C22343237   6.208   5.999   1.994  0.0870  0.1987 -0.4118
  108MOL   C22443238   6.262   5.920   1.892 -0.1938  0.4388 -0.7386
  108MOL   C22543239   6.400   5.923   1.860 -0.1444  0.7735 -0.1278
  108MOL   C22643240   6.485   6.022   1.915  0.4628  0.6028  0.2483
  108MOL   O22743241   6.619   6.017   1.882 -0.2439 -0.5542  0.0291
  108MOL   C22843242   6.711   6.084   1.969 -0.3344 -0.2850 -0.4248
  108MOL   C22943243   6.427   6.109   2.009  0.1484 -0.4521 -0.1447
  108MOL   C23043244   6.293   6.096   2.050 -0.5562 -0.3618 -0.1005
  108MOL   C23143245   6.034   5.982   2.190  0.6542  0.1312  0.1426
  108MOL   H23243246   6.030   5.887   1.992  3.1773 -0.0416 -0.1255
  108MOL   H23343247   6.203   5.840   1.850  1.8092 -2.0484  1.0576
  108MOL   H23443248   6.451   5.852   1.797  1.3464  1.1076  0.6628
  108MOL   H23543249   6.815   6.051   1.972  0.1051  1.2092  1.8891
  108MOL   H23643250   6.708   6.191   1.951 -1.2155 -0.4987 -1.6070
  108MOL   H23743251   6.687   6.076   2.075  1.5082  0.9664  0.1177
  108MOL   H23843252   6.485   6.187   2.057 -2.0427  1.3934 -0.4525
  108MOL   H23943253   6.259   6.168   2.122 -1.5151 -0.5605 -0.3489
  108MOL   H24043254   6.092   6.064   2.234  0.9920 -1.3117  2.4924
  108MOL   H24143255   5.929   6.001   2.212  0.2650 -1.8597  0.0971
  108MOL   C24243256   6.058   5.846   2.258  0.1887 -0.3636 -0.4513
  108MOL   C24343257   6.093   5.871   2.408 -0.0527 -0.4830  0.6701
  108MOL   C24443258   5.996   5.910   2.501  0.2545  0.4794  0.0655
  108MOL   C24543259   6.027   5.917   2.635 -0.2186  0.5095 -0.1121
  108MOL   C24643260   6.167   5.896   2.684  0.2753 -0.3472 -0.2399
  108MOL   O24743261   6.204   5.904   2.815 -0.3376  0.1955  0.6756
  108MOL   C24843262   6.099   5.862   2.903  0.4169 -0.1140 -0.1340
  108MOL   C24943263   6.262   5.880   2.579 -0.0122  0.1593  0.0177
  108MOL   C25043264   6.226   5.864   2.442 -0.4205  0.0231  0.2055
  108MOL   C25143265   5.954   5.738   2.243  0.5951  0.1221  0.6925
  108MOL   H25243266   6.149   5.802   2.217 -0.0752  1.1828 -2.7736
  108MOL   H25343267   5.894   5.923   2.467 -0.1236  0.1363  1.0624
  108MOL   H25443268   5.942   5.933   2.700 -1.0478 -0.5535 -0.9145
  108MOL   H25543269   6.062   5.953   2.951  0.4980 -0.3246  0.3331
  108MOL   H25643270   6.011   5.814   2.861 -0.1737  0.5267  0.3782
  108MOL   H25743271   6.130   5.813   2.996  0.7601  2.8060  1.3599
  108MOL   H25843272   6.366   5.869   2.608  0.3768 -0.2561 -1.4763
  108MOL   H25943273   6.298   5.830   2.369 -1.0559  1.5049 -1.1321
  108MOL   H26043274   5.881   5.756   2.163  0.9553  0.3913  0.4220
  108MOL   H26143275   5.880   5.760   2.320 -0.6372 -0.0947 -0.3980
  108MOL   C26243276   5.989   5.588   2.250 -0.2129 -0.3672 -0.8908
  108MOL   C26343277   6.015   5.532   2.398  0.3281  0.4914  0.4706
  108MOL   C26443278   5.910   5.462   2.462 -0.2346 -0.0059  0.0506
  108MOL   C26543279   5.926   5.411   2.594 -0.0102  0.7117  0.9007
  108MOL   C26643280   6.048   5.434   2.663  1.2449  0.3976  0.0975
  108MOL   O26743281   6.072   5.393   2.795 -0.1267  0.2516 -0.1282
  108MOL   C26843282   5.962   5.338   2.870 -0.5936 -0.0454  0.5299
  108MOL   C26943283   6.153   5.499   2.591 -0.2295  0.1704 -0.2867
  108MOL   C27043284   6.137   5.551   2.460 -1.0581  0.5272 -0.3327
  108MOL   C27143285   6.102   5.550   2.139  0.2617 -0.2023  0.6815
  108MOL   H27243286   5.899   5.538   2.213 -0.0169 -1.8304  0.5507
  108MOL   H27343287   5.818   5.440   2.411  0.4025 -1.8934 -0.3229
  108MOL   H27443288   5.836   5.368   2.634 -0.5920 -0.1954 -1.3544
  108MOL   H27543289   5.870   5.391   2.847 -0.5751  1.0626  2.9802
  108MOL   H27643290   5.970   5.346   2.978  2.9405 -2.6437  0.5864
  108MOL   H27743291   5.939   5.234   2.846  0.0898  0.2495 -1.5163
  108MOL   H27843292   6.249   5.512   2.638  0.7238  0.0094 -2.1696
  108MOL   H27943293   6.214   5.605   2.406  1.2920 -2.0774  0.2593
  108MOL   H28043294   6.081   5.609   2.050 -1.9059  0.1194  1.3739
  108MOL   H28143295   6.194   5.604   2.162  0.0002  0.4728  0.1596
  108MOL   C28243296   6.108   5.408   2.096  0.2894 -0.4448  0.1406
  108MOL   C28343297   5.968   5.359   2.058  0.4053 -0.2932  0.2331
  108MOL   C28443298   5.913   5.249   2.126  0.5445 -0.3006 -0.1292
  108MOL   C28543299   5.790   5.197   2.079 -0.4354  0.0904 -0.3940
  108MOL   C28643300   5.714   5.263   1.984 -0.4201 -0.1191  0.9150
  108MOL   O28743301   5.592   5.206   1.938 -0.1720 -0.1925 -0.2441
  108MOL   C28843302   5.518   5.277   1.842  0.8278 -0.0179  0.9325
  108MOL   C28943303   5.759   5.387   1.933  0.0855 -0.2833  0.5471
  108MOL   C29043304   5.888   5.431   1.968 -0.3998 -0.1130  0.1470
  108MOL   C29143305   6.200   5.319   2.187 -0.1139  0.4279  0.0282
  108MOL   H29243306   6.159   5.395   2.001 -0.1778  2.6179 -0.5915
  108MOL   H29343307   5.972   5.189   2.193  0.6808 -0.7500 -0.6529
  108MOL   H29443308   5.756   5.102   2.118 -0.7208  0.4607  0.2588
  108MOL   H29543309   5.430   5.220   1.811  1.7775 -1.0878  0.1856
  108MOL   H29643310   5.489   5.375   1.880 -1.4676 -0.3062 -0.0111
  108MOL   H29743311   5.571   5.278   1.747  0.5844  2.6895  0.7889
  108MOL   H29843312   5.704   5.449   1.864 -0.6412  1.5008  2.6762
  108MOL   H29943313   5.919   5.526   1.927 -0.6824 -0.0847 -0.0029
  108MOL   H30043314   6.144   5.313   2.280  1.5247  2.6323  1.1915
  108MOL   H30143315   6.190   5.218   2.147 -0.1988  0.7270 -0.7145
  108MOL   C30243316   6.349   5.365   2.214  0.2374  0.4040  0.4531
  108MOL   C30343317   6.414   5.256   2.302  0.5136  0.1847  0.4162
  108MOL   C30443318   6.446   5.131   2.247 -0.5918 -0.2450 -0.5200
  108MOL   C30543319   6.508   5.029   2.322  0.4504 -0.3058 -0.1179
  108MOL   C30643320   6.533   5.048   2.463  0.0065  0.0417  0.4842
  108MOL   O30743321   6.600   4.953   2.532  0.4161 -0.5280  0.0195
  108MOL   C30843322   6.632   4.972   2.670  0.5271 -0.2795  0.3594
  108MOL   C30943323   6.493   5.169   2.518  0.5675  0.0202  0.0596
  108MOL   C31043324   6.442   5.278   2.438 -0.4879  0.4768  0.1317
  108MOL   C31143325   6.435   5.401   2.091 -0.0401 -0.2480 -0.1630
  108MOL   H31243326   6.343   5.460   2.267  3.8551  1.0345 -0.1303
  108MOL   H31343327   6.433   5.125   2.140 -0.1469 -1.0317 -0.5361
  108MOL   H31443328   6.544   4.939   2.273 -0.8872 -1.5471  1.1090
  108MOL   H31543329   6.545   5.000   2.729  0.4961 -1.7532  1.0391
  108MOL   H31643330   6.720   5.035   2.681  1.9277 -1.7558 -1.8068
  108MOL   H31743331   6.685   4.884   2.707  0.6089 -0.0866  0.7069
  108MOL   H31843332   6.500   5.179   2.625  2.3471 -0.0084 -0.0462
  108MOL   H31943333   6.423   5.368   2.493 -1.7110 -0.0460  0.5718
  108MOL   H32043334   6.377   5.478   2.039 -0.1230  0.3280  0.7833
  108MOL   H32143335   6.423   5.328   2.010  1.3712 -0.3756 -0.2717
  108MOL   C32243336   6.581   5.438   2.114 -0.2853 -0.1824 -0.0430
  108MOL   C32343337   6.588   5.573   2.192 -0.3298 -0.0150 -0.3525
  108MOL   C32443338   6.531   5.692   2.151  0.2511 -0.2947 -0.1922
  108MOL   C32543339   6.519   5.808   2.229  0.1613 -0.4936 -0.5611
  108MOL   C32643340   6.597   5.813   2.347  0.4140 -0.2860 -0.6261
  108MOL   O32743341   6.611   5.921   2.434 -0.1477  0.4444  0.3780
  108MOL   C32843342   6.562   6.047   2.404 -0.2528  0.4033  0.0839
  108MOL   C32943343   6.666   5.698   2.389  0.3473  0.3667  0.3471
  108MOL   C33043344   6.662   5.578   2.314  0.2027 -0.4856 -0.3099
  108MOL   C33143345   6.676   5.440   1.992 -0.6484 -0.1163 -0.4347
  108MOL   H33243346   6.625   5.361   2.177  0.6235 -0.1921 -0.6728
  108MOL   H33343347   6.483   5.683   2.054 -0.1157  3.2718 -0.3912
  108MOL   H33443348   6.466   5.890   2.184 -0.3742  0.6958  2.0986
  108MOL   H33543349   6.457   6.046   2.376 -0.0433  4.0564 -1.0918
  108MOL   H33643350   6.605   6.100   2.319 -0.6472  1.5426  0.5873
  108MOL   H33743351   6.567   6.108   2.494  1.2215  1.3769 -0.6305
  108MOL   H33843352   6.730   5.697   2.476  2.9578  3.0966 -1.4629
  108MOL   H33943353   6.722   5.497   2.351  0.5104 -0.2720 -0.3411
  108MOL   H34043354   6.619   5.403   1.907 -0.3327 -0.1680 -0.6208
  108MOL   H34143355   6.716   5.540   1.976 -1.1639 -0.2969 -3.0127
  108MOL   C34243356   6.793   5.344   2.007  0.1773  0.4642  0.2656
  108MOL   C34343357   6.903   5.394   1.914 -0.6926  0.3025 -0.1257
  108MOL   C34443358   6.902   5.361   1.776 -0.5623  1.0819 -0.0639
  108MOL   C34543359   7.016   5.397   1.698  0.4484 -0.3402 -0.4486
  108MOL   C34643360   7.135   5.447   1.753  0.7345  0.3311 -0.5050
  108MOL   O34743361   7.254   5.464   1.683 -0.0226  0.0584 -0.1487
  108MOL   C34843362   7.251   5.507   1.548  0.0133  0.1378  0.6680
  108MOL   C34943363   7.132   5.479   1.892 -0.3711 -0.1933  0.1278
  108MOL   C35043364   7.017   5.460   1.968 -0.2255  0.0851  0.4505
  108MOL   C35143365   6.756   5.195   1.983  0.8347  0.2569 -0.7153
  108MOL   H35243366   6.836   5.358   2.106 -0.4329 -1.0456  0.7606
  108MOL   H35343367   6.822   5.308   1.727  0.3754  1.4557 -2.0374
  108MOL   H35443368   7.011   5.365   1.594  0.8302  1.0429 -0.9034
  108MOL   H35543369   7.193   5.600   1.549 -0.6231 -0.2324 -0.7424
  108MOL   H35643370   7.347   5.524   1.498  0.0926  1.5626  1.2973
  108MOL   H35743371   7.197   5.437   1.484  0.3500  0.6952 -0.2390
  108MOL   H35843372   7.225   5.518   1.930  0.2668  0.5041 -2.0723
  108MOL   H35943373   7.005   5.484   2.073 -0.3967 -0.3873  0.5404
  108MOL   H36043374   6.676   5.187   2.057 -1.2947  0.7152 -2.9168
  108MOL   H36143375   6.716   5.185   1.882  1.7891  0.1686 -1.0918
  108MOL   C36243376   6.879   5.097   2.001  0.1699  0.0706 -0.3482
  108MOL   C36343377   6.865   4.967   1.922  0.2361 -0.1486 -0.2051
  108MOL   C36443378   6.772   4.871   1.956 -0.4518 -0.5324 -0.1985
  108MOL   C36543379   6.739   4.762   1.874 -0.5093 -0.4743 -0.2061
  108MOL   C36643380   6.808   4.752   1.751 -0.0144  0.2922  0.2050
  108MOL   O36743381   6.770   4.645   1.668 -0.1732  0.1677 -0.0855
  108MOL   C36843382   6.875   4.566   1.613 -0.0328 -0.5722 -0.2470
  108MOL   C36943383   6.911   4.843   1.719 -0.0940 -0.6119 -0.1755
  108MOL   C37043384   6.931   4.954   1.803 -0.6386  0.0823 -1.2977
  108MOL   C37143385   6.922   5.082   2.145  0.0913 -0.7857  0.1947
  108MOL   H37243386   6.953   5.162   1.953 -0.9741  0.0442 -2.2127
  108MOL   H37343387   6.727   4.879   2.053 -2.4667  0.2737 -1.1845
  108MOL   H37443388   6.662   4.693   1.906 -0.0785 -0.5690  0.6489
  108MOL   H37543389   6.918   4.485   1.672 -0.2157  0.1253  0.8536
  108MOL   H37643390   6.828   4.525   1.524  0.6315  1.8764 -1.7745
  108MOL   H37743391   6.958   4.625   1.576 -0.8765  0.8594  0.0963
  108MOL   H37843392   6.961   4.839   1.623 -0.3388 -0.6088 -0.3039
  108MOL   H37943393   7.002   5.031   1.778 -0.3296  1.0276  2.2268
  108MOL   H38043394   6.929   5.180   2.193  1.4656  0.2708 -2.0969
  108MOL   H38143395   6.846   5.040   2.211 -1.8349  2.0413 -0.1568
  108MOL   C38243396   7.051   5.006   2.170 -0.2597 -0.2008 -0.4469
  108MOL   C38343397   7.067   4.958   2.317 -0.0524  0.5747 -0.2847
  108MOL   C38443398   7.000   5.017   2.430 -0.4964 -0.0981 -0.1904
  108MOL   C38543399   7.029   4.971   2.562 -0.5487 -0.4582  0.0612
  108MOL   C38643400   7.128   4.873   2.586  0.1373 -0.8841 -0.5773
  108MOL   O38743401   7.169   4.845   2.713  0.2628 -0.4002  0.3773
  108MOL   C38843402   7.060   4.842   2.813  0.2256  0.5085 -0.3823
  108MOL   C38943403   7.200   4.824   2.479 -1.2103 -0.6286 -0.3832
  108MOL   C39043404   7.173   4.867   2.343 -0.0847 -0.4440  0.2930
  108MOL   C39143405   7.171   5.099   2.132  0.4804  0.7127  0.2583
  108MOL   H39243406   7.052   4.918   2.105 -0.9068 -0.4611 -0.1128
  108MOL   H39343407   6.923   5.091   2.415 -0.0620  0.2423 -0.7062
  108MOL   H39443408   6.972   5.024   2.638  0.6284 -0.4371  0.9503
  108MOL   H39543409   7.045   4.946   2.843  1.1923  0.9747 -1.4254
  108MOL   H39643410   7.083   4.778   2.897 -0.7589 -0.3311 -0.7494
  108MOL   H39743411   6.964   4.818   2.768 -0.6731  1.4065  1.0276
  108MOL   H39843412   7.277   4.748   2.489  2.9765  3.1870 -1.8053
  108MOL   H39943413   7.246   4.831   2.273  1.7580  0.0788  1.8820
  108MOL   H40043414   7.171   5.139   2.030  1.8481 -1.7700 -0.7435
  108MOL   H40143415   7.271   5.071   2.164  0.2820  1.8233  1.9062
  108MOL   H40243416   7.163   5.185   2.198 -0.9226  0.4732  0.4251
  109MOL     C143417   4.638   3.834   2.574  0.2853  0.2124  0.6795
  109MOL     C243418   4.744   3.734   2.577  0.0130  0.4424  0.0269
  109MOL     C343419   4.737   3.618   2.655 -0.1792 -0.3603 -0.4183
  109MOL     C443420   4.850   3.527   2.665 -0.2771 -0.1604  0.6064
  109MOL     C543421   4.970   3.553   2.603  0.6598  0.3806  0.4714
  109MOL     O643422   5.062   3.460   2.630 -0.6778  0.0652 -0.2987
  109MOL     C743423   5.189   3.482   2.588  0.5469 -1.0248  0.9590
  109MOL     C843424   4.980   3.662   2.517  0.2321 -0.7018  0.3466
  109MOL     C943425   4.869   3.752   2.507  0.7287 -0.9586 -0.5362
  109MOL    C1043426   4.590   3.882   2.717  0.1806 -0.1758 -0.7661
  109MOL    H1143427   4.553   3.802   2.513  0.6953  1.1776 -0.4313
  109MOL    H1243428   4.656   3.597   2.724  0.1465 -0.3731 -0.0406
  109MOL    H1343429   4.841   3.447   2.737  0.9534  0.6995  1.7240
  109MOL    H1443430   5.258   3.410   2.631  0.0627 -0.7266  2.2745
  109MOL    H1543431   5.191   3.468   2.480  1.5362  1.1478  0.6554
  109MOL    H1643432   5.229   3.582   2.606  1.4496 -1.0041 -1.0587
  109MOL    H1743433   5.072   3.689   2.467 -0.1898 -0.3739 -0.2650
  109MOL    H1843434   4.872   3.832   2.435 -0.2675  1.3247  1.8967
  109MOL    H1943435   4.524   3.814   2.771 -2.0963  1.3603 -1.5008
  109MOL    H2043436   4.681   3.892   2.776 -1.1178 -2.3921  1.7413
  109MOL    H2143437   4.676   3.927   2.532 -2.1161  1.1951  0.6010
  109MOL    C2243438   4.524   4.022   2.706 -0.3781  0.7390  0.2642
  109MOL    C2343439   4.397   4.008   2.627  0.3095  0.3792 -0.0807
  109MOL    C2443440   4.287   3.945   2.680  0.2715 -0.2985 -0.2937
  109MOL    C2543441   4.174   3.928   2.594  0.0887 -0.3209  0.1471
  109MOL    C2643442   4.174   3.976   2.462 -0.2763 -0.5830 -0.5757
  109MOL    O2743443   4.061   3.970   2.388  0.4990 -0.5930 -0.2082
  109MOL    C2843444   3.949   3.904   2.434  0.0447  0.5577 -0.1269
  109MOL    C2943445   4.287   4.038   2.412  0.2094 -0.7207 -0.0704
  109MOL    C3043446   4.400   4.052   2.495  0.2223 -0.2436  0.0366
  109MOL    C3143447   4.503   4.082   2.846 -0.1678  0.1296 -0.2461
  109MOL    H3243448   4.599   4.077   2.649 -0.2231 -0.6070 -0.8633
  109MOL    H3343449   4.285   3.914   2.784  3.0061 -1.9644 -0.6862
  109MOL    H3443450   4.082   3.887   2.631 -2.0876  2.2884 -2.1843
  109MOL    H3543451   3.899   3.956   2.516 -0.3048 -1.7948  1.2011
  109MOL    H3643452   3.968   3.802   2.467  2.6614  0.8260 -0.7056
  109MOL    H3743453   3.864   3.907   2.365 -1.8455 -0.6187  2.0720
  109MOL    H3843454   4.286   4.067   2.308 -2.4388 -1.0792 -0.1778
  109MOL    H3943455   4.478   4.117   2.458 -0.2488 -0.6400 -1.6912
  109MOL    H4043456   4.418   4.049   2.905 -0.0278  0.1539 -0.0318
  109MOL    H4143457   4.584   4.071   2.918  1.9481  0.5226 -2.5058
  109MOL    C4243458   4.484   4.233   2.842  0.4367  0.5133  0.4019
  109MOL    C4343459   4.599   4.307   2.782 -0.3733 -0.4380 -0.2719
  109MOL    C4443460   4.725   4.300   2.850  0.1673 -0.3864  0.7580
  109MOL    C4543461   4.835   4.356   2.789 -0.1687 -0.1516 -0.4880
  109MOL    C4643462   4.831   4.435   2.669  0.4209 -0.8649  0.3822
  109MOL    O4743463   4.945   4.498   2.619  0.2428  0.8159  0.4298
  109MOL    C4843464   4.931   4.577   2.509 -0.2569 -0.0486  0.2341
  109MOL    C4943465   4.708   4.438   2.604  0.0429 -0.5533  0.1276
  109MOL    C5043466   4.596   4.367   2.659  0.1606  0.3507  0.6081
  109MOL    C5143467   4.447   4.297   2.973  0.4476  0.5014 -0.1066
  109MOL    H5243468   4.393   4.245   2.784  0.5455  0.6079  0.2515
  109MOL    H5343469   4.745   4.239   2.937  1.0019 -0.8880  0.2315
  109MOL    H5443470   4.927   4.342   2.845 -0.2822 -0.3687 -0.3530
  109MOL    H5543471   4.925   4.513   2.421 -2.3001 -0.0030  0.3223
  109MOL    H5643472   4.844   4.642   2.512 -0.7859 -0.7139 -0.3950
  109MOL    H5743473   5.025   4.633   2.508 -0.7364  0.7518  0.0781
  109MOL    H5843474   4.682   4.487   2.511  0.8022  0.3180  0.3721
  109MOL    H5943475   4.501   4.361   2.609  2.1142 -0.3412 -3.2805
  109MOL    H6043476   4.521   4.301   3.053  0.9217  0.7286 -0.5517
  109MOL    H6143477   4.374   4.238   3.029  1.3851 -0.6472 -0.0727
  109MOL    C6243478   4.378   4.437   2.970 -0.1560 -0.6618  0.2559
  109MOL    C6343479   4.465   4.547   2.912 -0.0214 -0.6825 -0.0762
  109MOL    C6443480   4.409   4.624   2.808 -0.6143 -0.2963 -0.3468
  109MOL    C6543481   4.481   4.740   2.770  0.4167 -0.8186  0.1592
  109MOL    C6643482   4.610   4.777   2.827  1.0005 -0.2493  0.2996
  109MOL    O6743483   4.688   4.889   2.789  0.6651  0.8544  0.2023
  109MOL    C6843484   4.623   4.977   2.696 -0.1240 -0.3680  0.0194
  109MOL    C6943485   4.658   4.700   2.931 -0.3794 -0.2818 -0.3248
  109MOL    C7043486   4.589   4.586   2.976  0.2352  0.1076  0.1040
  109MOL    C7143487   4.333   4.479   3.112 -0.6516 -0.4620  0.0338
  109MOL    H7243488   4.294   4.419   2.904  0.6163 -2.6922 -0.1926
  109MOL    H7343489   4.328   4.589   2.746  0.4640 -1.1254 -1.2868
  109MOL    H7443490   4.439   4.799   2.690  2.8523  1.7386  0.6608
  109MOL    H7543491   4.614   4.926   2.600 -0.7427  0.8038 -0.5528
  109MOL    H7643492   4.692   5.058   2.672  0.3599 -0.9163 -0.4676
  109MOL    H7743493   4.531   5.019   2.736  0.6609  0.5878  0.8665
  109MOL    H7843494   4.749   4.713   2.988 -1.0671 -0.6406  0.8690
  109MOL    H7943495   4.636   4.526   3.053  0.4673 -0.7620 -0.7047
  109MOL    H8043496   4.270   4.408   3.166  0.6492 -0.9212  0.9759
  109MOL    H8143497   4.423   4.479   3.175 -0.0396  1.3538 -0.7984
  109MOL    C8243498   4.268   4.615   3.124 -0.5078  0.0877  0.6501
  109MOL    C8343499   4.126   4.600   3.073  0.4888  0.1184  0.2488
  109MOL    C8443500   4.084   4.619   2.940 -0.1301 -0.2904 -0.2640
  109MOL    C8543501   3.950   4.590   2.904 -0.5160 -0.0619 -0.8798
  109MOL    C8643502   3.860   4.534   3.000 -0.0749 -0.9882 -0.2826
  109MOL    O8743503   3.742   4.517   2.943  0.1226 -0.7628 -0.2392
  109MOL    C8843504   3.631   4.511   3.026 -0.1256  0.7434 -0.7732
  109MOL    C8943505   3.903   4.505   3.135  0.0951 -0.1896  0.2289
  109MOL    C9043506   4.034   4.539   3.166 -0.2688 -0.3589 -0.5936
  109MOL    C9143507   4.291   4.680   3.257 -0.5335  0.0046 -0.4100
  109MOL    H9243508   4.316   4.684   3.054  0.8538 -1.1944  0.3074
  109MOL    H9343509   4.154   4.656   2.866 -0.0139 -0.0446 -0.0350
  109MOL    H9443510   3.907   4.610   2.807  1.1190  2.1516 -1.2070
  109MOL    H9543511   3.629   4.588   3.103  0.5055 -0.5148  0.5451
  109MOL    H9643512   3.625   4.415   3.078  0.3252  1.2912  0.3116
  109MOL    H9743513   3.535   4.529   2.976 -1.1745 -1.2480  0.4394
  109MOL    H9843514   3.843   4.446   3.203  0.5817  1.2207  1.9349
  109MOL    H9943515   4.080   4.508   3.259 -0.4847 -1.1114 -0.7291
  109MOL   H10043516   4.240   4.627   3.337  2.2935  1.1498  2.2435
  109MOL   H10143517   4.396   4.666   3.282 -1.0451  0.2303  1.9717
  109MOL   C10243518   4.273   4.831   3.261  0.4194  0.3856 -0.0134
  109MOL   C10343519   4.127   4.863   3.303 -0.4060 -0.7011  0.8219
  109MOL   C10443520   4.049   4.951   3.229 -0.1099 -0.1549 -0.2856
  109MOL   C10543521   3.916   4.976   3.266  0.0786 -0.2592  0.3678
  109MOL   C10643522   3.860   4.919   3.384  0.3448 -0.0479  0.4120
  109MOL   O10743523   3.726   4.940   3.407  0.1765  0.3433  0.2776
  109MOL   C10843524   3.650   4.852   3.491 -0.6712 -0.7817 -0.5222
  109MOL   C10943525   3.944   4.837   3.465 -0.0892  0.3512 -0.6933
  109MOL   C11043526   4.077   4.814   3.421  0.4138  0.1611  0.1813
  109MOL   C11143527   4.377   4.896   3.358  0.1170 -0.0626  0.5811
  109MOL   H11243528   4.281   4.873   3.161  1.4392  1.3667  0.4816
  109MOL   H11343529   4.084   4.983   3.132 -0.5014 -0.8726 -0.6666
  109MOL   H11443530   3.859   5.046   3.205  1.9822  0.9112 -0.1006
  109MOL   H11543531   3.653   4.888   3.594  0.2132  0.9179 -1.1183
  109MOL   H11643532   3.545   4.870   3.470 -0.6313 -0.7480 -0.6995
  109MOL   H11743533   3.679   4.748   3.477  0.5285 -0.5503  0.1740
  109MOL   H11843534   3.910   4.793   3.558 -0.2270  3.1340  0.6246
  109MOL   H11943535   4.148   4.755   3.477 -0.9202  0.4291  2.1992
  109MOL   H12043536   4.351   4.859   3.457 -2.2926  0.8940  0.3501
  109MOL   H12143537   4.480   4.875   3.330 -0.3613 -2.4342  0.4568
  109MOL   C12243538   4.366   5.057   3.383 -0.4455 -0.1324 -0.3594
  109MOL   C12343539   4.395   5.145   3.263  0.3270  0.3827 -0.2190
  109MOL   C12443540   4.483   5.108   3.157  0.0258  0.0145 -0.8615
  109MOL   C12543541   4.516   5.202   3.057  0.1686 -0.5238  0.1490
  109MOL   C12643542   4.466   5.338   3.065  0.0824  0.4981 -0.0747
  109MOL   O12743543   4.489   5.434   2.966 -0.1996 -0.1198  0.5311
  109MOL   C12843544   4.602   5.418   2.877 -0.2266 -0.3373  0.0240
  109MOL   C12943545   4.378   5.368   3.170 -0.4188 -0.3484  0.4402
  109MOL   C13043546   4.342   5.275   3.263 -0.5943  0.1712 -0.0051
  109MOL   C13143547   4.460   5.100   3.495  0.0543 -0.7780 -0.3885
  109MOL   H13243548   4.263   5.078   3.413 -0.9673 -0.3138 -1.9708
  109MOL   H13343549   4.534   5.013   3.161  1.9841  1.0090 -1.5200
  109MOL   H13443550   4.582   5.166   2.980  0.1818 -0.6669  0.2266
  109MOL   H13543551   4.598   5.329   2.815 -1.6256  1.4719 -2.5876
  109MOL   H13643552   4.592   5.492   2.798 -0.1923 -0.6545 -0.2777
  109MOL   H13743553   4.698   5.439   2.924 -0.7650 -2.0223  1.9850
  109MOL   H13843554   4.340   5.468   3.180  2.0052  0.6326  0.3067
  109MOL   H13943555   4.279   5.318   3.339  0.1035 -0.2171  0.8010
  109MOL   H14043556   4.486   5.206   3.489 -2.1331 -0.3269 -3.2414
  109MOL   H14143557   4.553   5.044   3.491 -0.5164 -1.7629 -0.1712
  109MOL   C14243558   4.406   5.080   3.638 -0.1076  0.5863 -0.4230
  109MOL   C14343559   4.522   5.028   3.724 -0.5342 -0.2066 -0.4479
  109MOL   C14443560   4.508   4.894   3.775  0.4369 -0.4180  0.0435
  109MOL   C14543561   4.614   4.836   3.849  1.1776  0.2935 -0.0716
  109MOL   C14643562   4.728   4.914   3.869 -0.5027  0.2805 -0.2796
  109MOL   O14743563   4.836   4.865   3.939  0.6457  0.2176  0.0354
  109MOL   C14843564   4.961   4.932   3.953  0.0433  0.2924  0.5907
  109MOL   C14943565   4.737   5.049   3.832 -0.1983  0.0766 -0.2606
  109MOL   C15043566   4.636   5.104   3.752  0.1952  0.4718 -0.4310
  109MOL   C15143567   4.328   5.198   3.703 -0.1274  0.7546  0.1148
  109MOL   H15243568   4.327   5.005   3.628  0.7665 -0.2555 -1.0024
  109MOL   H15343569   4.430   4.821   3.761 -0.6822  0.1089  2.9983
  109MOL   H15443570   4.601   4.733   3.880  0.0017 -0.0505 -1.6409
  109MOL   H15543571   5.035   4.862   3.991  0.1768 -0.2464 -0.6537
  109MOL   H15643572   5.007   4.964   3.859 -1.3779  0.6936  0.0195
  109MOL   H15743573   4.957   5.018   4.021 -0.4735  1.5825 -1.0394
  109MOL   H15843574   4.825   5.112   3.842 -0.1999  0.2795 -1.3889
  109MOL   H15943575   4.653   5.200   3.706  1.8104  0.1265 -0.6066
  109MOL   H16043576   4.243   5.220   3.637 -0.0846 -0.2715 -0.2874
  109MOL   H16143577   4.395   5.283   3.710  1.4438 -0.3153 -1.5441
  109MOL   C16243578   4.272   5.173   3.846  0.4457  0.3415 -0.0035
  109MOL   C16343579   4.162   5.065   3.867 -0.0000 -0.4476 -0.0634
  109MOL   C16443580   4.057   5.041   3.775  0.2531 -0.8079 -0.2477
  109MOL   C16543581   3.944   4.962   3.801 -0.6617  0.2769  0.5809
  109MOL   C16643582   3.942   4.889   3.921  0.1103 -0.0982  0.3519
  109MOL   O16743583   3.843   4.802   3.961  0.6665 -0.2999 -0.0698
  109MOL   C16843584   3.742   4.769   3.866  0.1468  0.4198 -0.6244
  109MOL   C16943585   4.049   4.902   4.015  0.2424 -0.0347  0.6625
  109MOL   C17043586   4.154   4.994   3.988 -1.3383  0.3897  0.5035
  109MOL   C17143587   4.218   5.314   3.896  0.1463  0.2376 -0.1263
  109MOL   H17243588   4.361   5.150   3.905 -1.3129 -2.1789  1.7709
  109MOL   H17343589   4.064   5.099   3.684 -1.4350 -0.4692 -0.1637
  109MOL   H17443590   3.869   4.973   3.723  1.1053  2.3036 -0.8961
  109MOL   H17543591   3.667   4.699   3.903 -3.4834  3.3034 -2.1641
  109MOL   H17643592   3.786   4.730   3.774 -2.6749 -2.1106 -0.9580
  109MOL   H17743593   3.691   4.862   3.840  0.9942  0.8037 -0.9429
  109MOL   H17843594   4.050   4.854   4.111 -0.5216  2.6538  2.0482
  109MOL   H17943595   4.232   4.992   4.063  1.3329  0.6852 -2.1478
  109MOL   H18043596   4.187   5.291   3.998  1.0658  2.8393  0.7798
  109MOL   H18143597   4.131   5.338   3.835  1.6302  0.6923 -2.1132
  109MOL   C18243598   4.303   5.438   3.913 -0.8245 -0.3163 -0.5343
  109MOL   C18343599   4.436   5.408   3.993  0.3501  0.3637 -0.0148
  109MOL   C18443600   4.442   5.407   4.134  0.6268 -0.3294 -0.2493
  109MOL   C18543601   4.559   5.393   4.198  0.4003 -0.6669 -0.0393
  109MOL   C18643602   4.683   5.384   4.127  0.8909 -0.0361 -0.0102
  109MOL   O18743603   4.796   5.361   4.206  0.0220 -0.7237 -0.1457
  109MOL   C18843604   4.925   5.362   4.138  0.1087 -0.1112 -0.5491
  109MOL   C18943605   4.678   5.372   3.987 -0.2675  0.2406  0.2137
  109MOL   C19043606   4.555   5.391   3.919  0.4443  0.0478  0.4145
  109MOL   C19143607   4.215   5.554   3.987  0.3683  0.6435  0.1548
  109MOL   H19243608   4.331   5.468   3.812 -0.4362 -2.2810 -1.0297
  109MOL   H19343609   4.348   5.420   4.187  0.5204  0.5796 -0.6546
  109MOL   H19443610   4.551   5.385   4.305  0.8412 -1.2991 -0.0540
  109MOL   H19543611   4.926   5.296   4.051 -0.0500 -0.9248  0.0592
  109MOL   H19643612   5.007   5.319   4.196 -0.2563  0.7142  0.6127
  109MOL   H19743613   4.946   5.462   4.101  0.5737  0.0442  0.1252
  109MOL   H19843614   4.762   5.345   3.925 -0.7763  1.7224 -1.1537
  109MOL   H19943615   4.547   5.380   3.812  1.3028  2.1842  0.0820
  109MOL   H20043616   4.110   5.528   3.975  0.8181 -1.6356  1.0029
  109MOL   H20143617   4.225   5.551   4.096  1.5716  2.6464  0.1254
  109MOL   C20243618   4.225   5.699   3.931  0.1882  0.0506 -0.1385
  109MOL   C20343619   4.368   5.763   3.920  0.5960 -0.2857 -0.4331
  109MOL   C20443620   4.412   5.817   3.798 -0.4930  0.7279 -0.1919
  109MOL   C20543621   4.532   5.894   3.808 -0.3941  0.7538 -0.2159
  109MOL   C20643622   4.617   5.905   3.925  0.2820 -0.1151  0.0067
  109MOL   O20743623   4.734   5.964   3.923  0.0228 -0.1893  0.4887
  109MOL   C20843624   4.734   6.097   3.876 -1.3003 -0.0573  0.5285
  109MOL   C20943625   4.577   5.836   4.037  0.1098 -0.7506 -0.5850
  109MOL   C21043626   4.449   5.775   4.034 -0.2778  0.2416 -0.4931
  109MOL   C21143627   4.123   5.789   4.012  0.2719 -0.5470  0.1636
  109MOL   H21243628   4.185   5.691   3.830 -0.4084  0.3882  0.0671
  109MOL   H21343629   4.355   5.820   3.707 -0.1174 -1.8568 -0.5510
  109MOL   H21443630   4.559   5.955   3.723 -1.4246 -1.3658 -2.1521
  109MOL   H21543631   4.652   6.163   3.906 -0.5761  0.1076  2.2088
  109MOL   H21643632   4.835   6.136   3.889 -0.8146 -1.0055 -0.3145
  109MOL   H21743633   4.748   6.103   3.768  2.7219 -2.2525  0.8380
  109MOL   H21843634   4.643   5.842   4.123 -1.5881  0.4753  0.6758
  109MOL   H21943635   4.427   5.734   4.132  2.3342 -1.2250 -0.4563
  109MOL   H22043636   4.144   5.790   4.119 -0.3201 -0.6325  0.2809
  109MOL   H22143637   4.021   5.755   3.996  0.0250  1.0791 -2.0596
  109MOL   C22243638   4.124   5.938   3.978 -0.0286  0.3844  0.1952
  109MOL   C22343639   4.095   5.976   3.836  0.6213  0.3718 -0.2647
  109MOL   C22443640   4.195   6.045   3.771  0.3091 -0.1291 -0.1564
  109MOL   C22543641   4.177   6.082   3.638  0.5397  0.2323  0.2254
  109MOL   C22643642   4.058   6.061   3.567 -0.2698 -0.0608  0.4395
  109MOL   O22743643   4.032   6.101   3.437  0.2032  0.2131  0.3607
  109MOL   C22843644   4.143   6.145   3.357  0.4369  0.2838  0.0387
  109MOL   C22943645   3.951   6.004   3.642  0.5772  0.7149  0.0437
  109MOL   C23043646   3.973   5.957   3.772 -0.2573 -0.0437 -0.2904
  109MOL   C23143647   4.014   6.009   4.071  0.2566 -0.7919 -0.9317
  109MOL   H23243648   4.211   5.989   4.018 -0.7857 -1.2667  4.1563
  109MOL   H23343649   4.286   6.082   3.815 -0.7825  3.9970 -1.1028
  109MOL   H23443650   4.252   6.132   3.578  0.4027 -1.5031 -1.4643
  109MOL   H23543651   4.121   6.133   3.251  1.3978 -1.3459  0.0127
  109MOL   H23643652   4.177   6.247   3.377 -2.5022  1.6667 -1.6549
  109MOL   H23743653   4.225   6.076   3.374 -0.2939 -0.0238  2.4747
  109MOL   H23843654   3.860   5.995   3.584  0.2868 -1.5469  0.7941
  109MOL   H23943655   3.887   5.920   3.825 -1.6594  1.4136 -1.4950
  109MOL   H24043656   3.919   5.957   4.061  0.1709 -0.8986  0.3271
  109MOL   H24143657   4.038   5.983   4.174  0.1330 -3.6973 -1.5967
  109MOL   C24243658   3.988   6.164   4.046 -0.0676 -0.7219  0.1307
  109MOL   C24343659   3.842   6.187   4.091 -0.1754 -0.4984 -0.1552
  109MOL   C24443660   3.809   6.197   4.223 -0.0131  0.2240 -0.1166
  109MOL   C24543661   3.672   6.205   4.261  0.1530  0.1329 -0.1723
  109MOL   C24643662   3.565   6.211   4.171  0.4541 -0.3283  0.7940
  109MOL   O24743663   3.432   6.210   4.213 -0.0727  0.4852 -0.1839
  109MOL   C24843664   3.410   6.252   4.348 -0.3504  0.5210  0.2908
  109MOL   C24943665   3.600   6.206   4.034  0.3805  0.3939 -0.2699
  109MOL   C25043666   3.738   6.187   3.996  0.0538 -0.2005 -0.3845
  109MOL   C25143667   4.094   6.255   4.119 -0.3314 -0.1250 -0.2053
  109MOL   H25243668   3.984   6.190   3.941  0.8746  0.2305  0.3270
  109MOL   H25343669   3.891   6.202   4.294 -0.0297  0.1994 -0.0961
  109MOL   H25443670   3.641   6.205   4.365 -2.5847  0.7722 -0.9539
  109MOL   H25543671   3.445   6.178   4.419 -3.6914 -3.0099 -1.5342
  109MOL   H25643672   3.448   6.352   4.368 -1.0646  1.1134 -1.2202
  109MOL   H25743673   3.303   6.263   4.367 -0.4914 -0.9677  0.3877
  109MOL   H25843674   3.523   6.205   3.958  0.7712 -0.2339 -0.6589
  109MOL   H25943675   3.763   6.170   3.892  0.8763 -0.0433 -0.2190
  109MOL   H26043676   4.187   6.197   4.118  0.5604  1.2064  1.4631
  109MOL   H26143677   4.080   6.275   4.226  0.5407  1.2194 -0.3270
  109MOL   C26243678   4.115   6.387   4.048  0.0793 -1.0088  0.3285
  109MOL   C26343679   4.257   6.448   4.066  0.2575  0.4669  0.2617
  109MOL   C26443680   4.353   6.437   3.959 -0.0433  0.4361 -0.0194
  109MOL   C26543681   4.485   6.490   3.978 -0.0652 -0.3024  0.1352
  109MOL   C26643682   4.518   6.547   4.102  0.3551 -0.0591 -0.3648
  109MOL   O26743683   4.639   6.599   4.130 -0.5788 -0.7562 -0.4520
  109MOL   C26843684   4.715   6.640   4.020  0.3167  0.6751 -0.7667
  109MOL   C26943685   4.422   6.544   4.205  0.6397 -0.3556  0.1015
  109MOL   C27043686   4.292   6.505   4.189 -0.1773  0.5184  1.4187
  109MOL   C27143687   4.000   6.487   4.077  0.4026  0.1947 -0.1958
  109MOL   H27243688   4.114   6.375   3.940  0.7096 -0.8663  0.3034
  109MOL   H27343689   4.319   6.397   3.865  0.9890 -1.7061  0.4728
  109MOL   H27443690   4.553   6.488   3.894  1.5327  2.7180  1.2957
  109MOL   H27543691   4.767   6.732   4.047 -0.2169  2.1385 -4.4286
  109MOL   H27643692   4.657   6.667   3.932 -1.0381  2.1006  0.5442
  109MOL   H27743693   4.785   6.566   3.980 -1.0556 -0.4057 -1.2074
  109MOL   H27843694   4.460   6.571   4.302  1.0699  1.0314 -0.4396
  109MOL   H27943695   4.220   6.501   4.270 -2.0297  0.7783 -0.1981
  109MOL   H28043696   3.912   6.435   4.111  0.3714 -1.5914 -2.8387
  109MOL   H28143697   4.034   6.550   4.159 -0.7966 -1.0025  1.2376
  109MOL   C28243698   3.973   6.581   3.958 -0.0569  0.8509 -0.0461
  109MOL   C28343699   3.888   6.699   3.998  0.1498  0.6832 -0.1335
  109MOL   C28443700   3.761   6.685   4.058  0.6598  0.0194  0.4216
  109MOL   C28543701   3.687   6.801   4.088 -0.2487  0.3050  0.0197
  109MOL   C28643702   3.740   6.931   4.069  0.0218  0.2176 -0.1871
  109MOL   O28743703   3.674   7.047   4.099 -0.0781 -0.2365 -0.8427
  109MOL   C28843704   3.569   7.033   4.187 -0.3100 -0.2885 -0.3382
  109MOL   C28943705   3.867   6.944   4.011  0.6738  0.3083  0.5839
  109MOL   C29043706   3.936   6.827   3.974 -0.1244  0.4464  0.2195
  109MOL   C29143707   3.909   6.503   3.835 -0.3539  0.1914 -0.3208
  109MOL   H29243708   4.074   6.612   3.933 -0.2138  0.1452 -1.6385
  109MOL   H29343709   3.717   6.589   4.076 -0.7971  0.6703  0.4369
  109MOL   H29443710   3.589   6.786   4.130 -0.5624  1.0894 -0.4323
  109MOL   H29543711   3.481   6.983   4.146 -1.9007  1.4291  0.9223
  109MOL   H29643712   3.605   6.980   4.275 -1.2274 -1.3496 -0.6009
  109MOL   H29743713   3.520   7.125   4.217  0.4281 -0.0235  0.0638
  109MOL   H29843714   3.896   7.046   3.990  1.7341 -0.5072 -2.2092
  109MOL   H29943715   4.034   6.830   3.930 -0.6096  1.5158 -0.8201
  109MOL   H30043716   3.958   6.406   3.827  0.3833  0.6161 -0.9775
  109MOL   H30143717   3.808   6.477   3.866  0.2230 -0.5866  0.9681
  109MOL   C30243718   3.912   6.581   3.704  0.4818 -0.0827  0.2793
  109MOL   C30343719   4.059   6.581   3.656 -0.4702 -1.2120 -0.8763
  109MOL   C30443720   4.122   6.466   3.606  0.2847  0.4011  0.2244
  109MOL   C30543721   4.256   6.463   3.562 -0.3810 -0.2350  0.3254
  109MOL   C30643722   4.335   6.579   3.576 -0.1426  0.1009  0.5925
  109MOL   O30743723   4.460   6.578   3.513 -0.3157 -0.1236 -0.9672
  109MOL   C30843724   4.537   6.700   3.512 -0.1666  0.3711 -1.0245
  109MOL   C30943725   4.279   6.690   3.642 -0.0869 -0.4104  0.0893
  109MOL   C31043726   4.140   6.697   3.672 -0.4310 -0.1180 -0.0121
  109MOL   C31143727   3.824   6.530   3.595 -0.0888 -0.3241  0.3534
  109MOL   H31243728   3.875   6.681   3.728  1.3209  0.7281 -1.6896
  109MOL   H31343729   4.063   6.376   3.602 -2.1325  1.8367  2.2816
  109MOL   H31443730   4.309   6.374   3.531 -0.6205 -0.9160  1.8577
  109MOL   H31543731   4.493   6.789   3.466 -0.5260  0.7701  0.0777
  109MOL   H31643732   4.621   6.664   3.452  0.1802 -1.0769  0.3058
  109MOL   H31743733   4.567   6.721   3.614  0.6359  0.1753 -1.2134
  109MOL   H31843734   4.333   6.781   3.667 -0.0534 -0.2477 -0.5601
  109MOL   H31943735   4.098   6.779   3.730 -1.4669  0.0899 -1.0499
  109MOL   H32043736   3.848   6.426   3.574 -3.4947 -1.1815  0.3632
  109MOL   H32143737   3.852   6.583   3.504 -0.9364  1.6148  1.2040
  109MOL   C32243738   3.676   6.523   3.616  0.2128  0.6253  0.1566
  109MOL   C32343739   3.598   6.454   3.505  0.7658 -0.4227 -0.6092
  109MOL   C32443740   3.523   6.333   3.530  0.1676 -0.7642  0.3166
  109MOL   C32543741   3.460   6.268   3.421 -0.5156 -0.3100  0.5675
  109MOL   C32643742   3.460   6.325   3.292 -0.0814 -0.1557 -0.0360
  109MOL   O32743743   3.392   6.255   3.199  0.4791 -0.8096 -0.3475
  109MOL   C32843744   3.393   6.293   3.065  0.2447 -0.2719 -0.0057
  109MOL   C32943745   3.527   6.449   3.270  0.9157  0.1149 -0.2469
  109MOL   C33043746   3.594   6.505   3.375 -0.3115 -0.3326  0.3329
  109MOL   C33143747   3.607   6.646   3.667 -0.3109 -0.5289 -0.3305
  109MOL   H33243748   3.667   6.451   3.697  3.1330 -0.5481 -0.4701
  109MOL   H33343749   3.508   6.292   3.628  0.8147 -0.0271  0.7375
  109MOL   H33443750   3.384   6.193   3.437 -1.7190  0.4552 -1.3492
  109MOL   H33543751   3.484   6.266   3.012 -0.1501  0.2437 -0.9511
  109MOL   H33643752   3.369   6.399   3.066  0.8628 -0.1345  0.7767
  109MOL   H33743753   3.313   6.251   3.004 -0.2587 -0.7486  0.9637
  109MOL   H33843754   3.513   6.498   3.175 -0.4264 -0.7846 -0.5299
  109MOL   H33943755   3.646   6.595   3.347  0.2641 -0.9126 -0.4994
  109MOL   H34043756   3.652   6.670   3.764 -1.5148  0.6431 -0.0463
  109MOL   H34143757   3.635   6.728   3.601 -0.9807 -0.9135 -1.1014
  109MOL   C34243758   3.456   6.659   3.678  0.3225 -0.6253  1.0148
  109MOL   C34343759   3.421   6.806   3.695 -0.2422 -1.4374  0.6951
  109MOL   C34443760   3.480   6.884   3.790  0.4018 -0.1869 -0.0419
  109MOL   C34543761   3.452   7.024   3.803 -0.0715 -0.0371 -0.3139
  109MOL   C34643762   3.362   7.081   3.713 -0.5476  0.5609 -0.3835
  109MOL   O34743763   3.350   7.218   3.724  0.1667 -0.6358 -0.1556
  109MOL   C34843764   3.304   7.278   3.603  0.1598  0.0398 -0.4051
  109MOL   C34943765   3.294   7.002   3.622  0.5189 -0.0029 -0.2065
  109MOL   C35043766   3.329   6.869   3.606 -0.3792 -0.0460 -0.4820
  109MOL   C35143767   3.394   6.570   3.793  0.5053 -0.3876  0.7637
  109MOL   H35243768   3.430   6.622   3.578 -1.5423  0.1539  1.1900
  109MOL   H35343769   3.549   6.840   3.860 -1.8843  0.7808  2.9362
  109MOL   H35443770   3.514   7.092   3.859  1.7546 -1.5217 -0.4793
  109MOL   H35543771   3.353   7.233   3.517 -1.5798 -1.1826 -0.7717
  109MOL   H35643772   3.197   7.265   3.585  0.5366 -2.2608 -1.0532
  109MOL   H35743773   3.315   7.386   3.617 -0.4650 -0.2617  2.8572
  109MOL   H35843774   3.223   7.038   3.549 -0.9690  2.1075  2.2283
  109MOL   H35943775   3.291   6.808   3.526 -0.2811  1.0497 -1.3744
  109MOL   H36043776   3.441   6.473   3.808 -0.6470 -1.0675  0.0553
  109MOL   H36143777   3.412   6.637   3.877  1.1678  2.6447 -1.6993
  109MOL   C36243778   3.242   6.556   3.752 -0.7124 -0.0502  0.5036
  109MOL   C36343779   3.152   6.536   3.874 -0.0872 -0.0979  0.0472
  109MOL   C36443780   3.028   6.596   3.885  0.2235  0.2561 -0.3453
  109MOL   C36543781   2.939   6.557   3.986  0.5323  0.5644  0.8383
  109MOL   C36643782   2.975   6.459   4.081  0.4500 -0.9942 -0.0148
  109MOL   O36743783   2.885   6.408   4.173 -0.3280  0.0861  0.5352
  109MOL   C36843784   2.745   6.446   4.165  0.5569 -0.6609  1.3058
  109MOL   C36943785   3.106   6.410   4.078 -0.2325 -1.0842 -0.1443
  109MOL   C37043786   3.197   6.452   3.977  0.4793 -0.0631  0.9064
  109MOL   C37143787   3.222   6.432   3.655  0.0636  0.4519 -0.2648
  109MOL   H37243788   3.204   6.643   3.697 -1.7525 -0.0001  1.2873
  109MOL   H37343789   2.999   6.673   3.815  1.9928  0.7190 -0.5797
  109MOL   H37443790   2.841   6.602   3.990  1.6186  3.0216  0.8323
  109MOL   H37543791   2.731   6.553   4.174  3.0332  0.1535 -2.9318
  109MOL   H37643792   2.698   6.403   4.076 -0.1550  0.0889  1.3184
  109MOL   H37743793   2.694   6.393   4.245 -0.8810 -2.6397 -0.8506
  109MOL   H37843794   3.137   6.333   4.148 -0.9304 -0.3904  0.9424
  109MOL   H37943795   3.297   6.410   3.977  0.2465 -0.6306 -0.7524
  109MOL   H38043796   3.272   6.462   3.563  0.4723 -2.8095 -1.1645
  109MOL   H38143797   3.285   6.353   3.696  0.0424  1.2997  1.4655
  109MOL   C38243798   3.076   6.384   3.621 -0.5615 -0.2986  0.3750
  109MOL   C38343799   3.080   6.248   3.554  0.0748  0.0137  0.2803
  109MOL   C38443800   3.120   6.229   3.420 -0.4239  0.6539  0.1682
  109MOL   C38543801   3.105   6.105   3.364 -0.4591  0.1329  0.1633
  109MOL   C38643802   3.059   5.997   3.436  1.2330  0.5214  0.3244
  109MOL   O38743803   3.048   5.872   3.364 -0.1790 -0.2944  0.3524
  109MOL   C38843804   3.003   5.755   3.437  0.9266 -0.3489 -0.1331
  109MOL   C38943805   3.024   6.010   3.572  0.6675  0.3063 -0.6221
  109MOL   C39043806   3.038   6.138   3.630 -0.4719 -0.0905  0.0360
  109MOL   C39143807   3.003   6.488   3.526  0.3341 -0.9094 -0.3336
  109MOL   H39243808   3.004   6.369   3.702 -1.6327 -0.4303 -0.5835
  109MOL   H39343809   3.148   6.311   3.357  1.1457 -0.1663 -0.2222
  109MOL   H39443810   3.132   6.093   3.260  1.1853 -0.7082  0.6609
  109MOL   H39543811   2.969   5.674   3.372 -2.4112  0.5844  0.3468
  109MOL   H39643812   2.919   5.765   3.506  1.0916 -1.7515  0.2844
  109MOL   H39743813   3.079   5.705   3.497  0.7207 -1.5268 -0.8237
  109MOL   H39843814   2.987   5.925   3.627  1.7883 -0.2517 -0.7174
  109MOL   H39943815   3.010   6.153   3.733  0.6575 -2.4658  0.7283
  109MOL   H40043816   3.048   6.476   3.428  0.1408  1.7559 -0.7918
  109MOL   H40143817   2.995   6.591   3.560  0.0791 -1.2860  0.7852
  109MOL   H40243818   2.896   6.471   3.520  0.0103  0.3129  1.4654
  110MOL     C143819   2.057   0.950   0.977  0.6811 -0.0653 -0.1382
  110MOL     C243820   2.146   0.970   1.096 -0.1601 -0.2175 -0.8095
  110MOL     C343821   2.159   1.091   1.171 -0.0105 -0.0041  0.3780
  110MOL     C443822   2.240   1.105   1.284  0.2845  0.0846  0.2990
  110MOL     C543823   2.320   1.003   1.329 -0.0956  0.9194  0.4182
  110MOL     O643824   2.406   1.032   1.434  0.5495 -0.7328 -0.4179
  110MOL     C743825   2.491   0.927   1.472  0.4171  0.1106 -0.0504
  110MOL     C843826   2.298   0.874   1.271 -0.5021  0.0768  0.0020
  110MOL     C943827   2.218   0.861   1.151  0.2975  0.5246 -0.1351
  110MOL    C1043828   2.114   0.861   0.867 -0.4454  0.4983  0.1476
  110MOL    H1143829   2.043   1.045   0.924  1.6210 -0.4340 -1.0544
  110MOL    H1243830   2.117   1.187   1.144  1.4285  0.1475 -1.3440
  110MOL    H1343831   2.242   1.200   1.336  1.1363  0.2636 -0.0574
  110MOL    H1443832   2.549   0.887   1.390  1.9684  0.1585  1.0040
  110MOL    H1543833   2.551   0.968   1.553  0.2906  0.0822  0.0571
  110MOL    H1643834   2.431   0.847   1.516  1.6051 -0.7190  0.0684
  110MOL    H1743835   2.349   0.787   1.309 -1.0741 -0.2680 -0.0097
  110MOL    H1843836   2.208   0.762   1.110  0.9931 -0.3892  1.8237
  110MOL    H1943837   2.208   0.904   0.835  1.1308 -1.8079  1.5244
  110MOL    H2043838   2.148   0.762   0.896  1.5702  1.1811  0.1552
  110MOL    H2143839   1.957   0.912   0.998  0.3990  0.4721 -0.4841
  110MOL    C2243840   2.017   0.836   0.751 -0.3740 -0.3351  0.3755
  110MOL    C2343841   2.003   0.964   0.664  0.2110  0.2355 -0.0412
  110MOL    C2443842   2.120   1.012   0.598 -0.3769 -0.3571  0.6984
  110MOL    C2543843   2.111   1.134   0.529 -0.4318  0.1053 -0.2521
  110MOL    C2643844   1.981   1.190   0.504 -0.4523  0.2061  0.3215
  110MOL    O2743845   1.958   1.299   0.427 -0.2194 -0.1785  0.9101
  110MOL    C2843846   2.056   1.330   0.327 -0.1984  0.2079  0.3149
  110MOL    C2943847   1.867   1.130   0.549  0.1168 -0.3081 -0.5105
  110MOL    C3043848   1.883   1.021   0.642  0.3919  0.3590 -0.4776
  110MOL    C3143849   2.060   0.713   0.666  0.3851  0.9165 -0.6847
  110MOL    H3243850   1.918   0.821   0.795 -0.3619 -1.6140 -0.0183
  110MOL    H3343851   2.211   0.954   0.603  0.2571  0.4974 -0.9081
  110MOL    H3443852   2.199   1.173   0.479  0.7562 -2.2123 -0.0630
  110MOL    H3543853   2.148   1.364   0.376 -0.0354 -1.6723  1.3595
  110MOL    H3643854   2.020   1.406   0.259 -0.1634 -0.7402 -0.7710
  110MOL    H3743855   2.088   1.247   0.264  3.6785  2.0866 -0.3738
  110MOL    H3843856   1.767   1.167   0.531 -0.8507 -2.0698  1.0431
  110MOL    H3943857   1.796   0.984   0.695 -0.2505  2.4207 -0.0639
  110MOL    H4043858   2.166   0.717   0.641 -0.0048 -1.0079 -2.7334
  110MOL    H4143859   2.059   0.623   0.727 -1.4545  1.5507  0.2482
  110MOL    C4243860   1.978   0.688   0.540 -0.1109  0.2546  0.3643
  110MOL    C4343861   1.844   0.622   0.567  0.2256 -0.3248  0.2984
  110MOL    C4443862   1.835   0.486   0.586  0.2721 -0.5297 -0.4021
  110MOL    C4543863   1.705   0.427   0.597  0.1864  0.0369 -0.9385
  110MOL    C4643864   1.587   0.512   0.606 -0.5625  1.1149 -0.0558
  110MOL    O4743865   1.473   0.439   0.628  0.5044  0.6939  0.0670
  110MOL    C4843866   1.355   0.510   0.650 -0.2158 -1.2684  0.3636
  110MOL    C4943867   1.598   0.655   0.598  0.2646  0.6173 -0.8936
  110MOL    C5043868   1.730   0.706   0.566  0.0452  1.3212  0.0788
  110MOL    C5143869   2.045   0.618   0.416 -0.1709  0.5653 -0.3462
  110MOL    H5243870   1.952   0.786   0.500  1.3572 -0.5441 -2.7386
  110MOL    H5343871   1.926   0.430   0.590 -0.2789 -1.2818  2.7357
  110MOL    H5443872   1.694   0.322   0.618  0.8739 -0.2509 -1.9316
  110MOL    H5543873   1.361   0.599   0.712  1.1635  0.5054 -2.1980
  110MOL    H5643874   1.321   0.547   0.553 -0.5506  2.7129  1.8959
  110MOL    H5743875   1.281   0.446   0.696  0.7208 -0.5819  2.8860
  110MOL    H5843876   1.507   0.711   0.612 -0.2560 -1.1206  3.4554
  110MOL    H5943877   1.739   0.811   0.544 -1.4859  1.5086  0.2591
  110MOL    H6043878   1.992   0.530   0.379  1.6660 -0.2386 -1.1627
  110MOL    H6143879   2.151   0.595   0.433  0.0835  0.3974 -2.1052
  110MOL    C6243880   2.061   0.710   0.291 -0.3938 -0.6533  0.3862
  110MOL    C6343881   1.935   0.800   0.262 -0.0205 -0.3309  0.4564
  110MOL    C6443882   1.939   0.944   0.267  0.0805  0.4010 -0.5449
  110MOL    C6543883   1.820   1.020   0.253  0.5361  0.1549 -0.4697
  110MOL    C6643884   1.701   0.954   0.234 -0.5572 -0.6515 -0.5431
  110MOL    O6743885   1.594   1.037   0.211 -0.3144  0.0603 -0.2182
  110MOL    C6843886   1.469   0.968   0.216 -0.2054 -0.2557  0.2471
  110MOL    C6943887   1.697   0.811   0.220 -0.0503 -1.3765  0.2147
  110MOL    C7043888   1.812   0.736   0.241 -1.1551 -0.0141  0.9790
  110MOL    C7143889   2.108   0.638   0.161 -1.0638 -0.6700 -0.0246
  110MOL    H7243890   2.139   0.783   0.313 -1.1569  0.4931 -0.6119
  110MOL    H7343891   2.032   0.993   0.290  0.1625 -0.3754  0.8977
  110MOL    H7443892   1.822   1.128   0.257 -1.4536  0.2153 -0.7410
  110MOL    H7543893   1.462   0.896   0.297  0.2501  0.9057  1.3364
  110MOL    H7643894   1.440   0.916   0.125  0.5644  0.7060 -0.5616
  110MOL    H7743895   1.393   1.041   0.245  0.0412  0.7568 -1.6119
  110MOL    H7843896   1.610   0.753   0.195 -0.8570 -1.6322  3.4109
  110MOL    H7943897   1.806   0.628   0.237 -2.0497  0.1039 -1.2789
  110MOL    H8043898   2.188   0.565   0.170  0.0429  0.1057 -2.9277
  110MOL    H8143899   2.028   0.583   0.110 -0.6695 -0.5776 -0.7395
  110MOL    C8243900   2.151   0.739   0.055  0.0863  0.0401  0.2895
  110MOL    C8343901   2.263   0.838   0.089  0.2161 -0.0440  0.0603
  110MOL    C8443902   2.390   0.796   0.122 -0.7388  0.5519 -0.2695
  110MOL    C8543903   2.490   0.892   0.148 -0.2985 -0.3389 -0.0436
  110MOL    C8643904   2.468   1.029   0.141  0.1228  0.6560 -0.3053
  110MOL    O8743905   2.575   1.103   0.173 -0.2138 -0.2056  0.3081
  110MOL    C8843906   2.570   1.243   0.172 -0.0053 -0.1975 -0.0107
  110MOL    C8943907   2.338   1.076   0.113  0.5264 -0.8017  0.1647
  110MOL    C9043908   2.240   0.975   0.081  0.1518  0.2579  0.7114
  110MOL    C9143909   2.202   0.668   7.970 -0.6569  0.2315  0.1436
  110MOL    H9243910   2.064   0.797   0.024  0.2940 -0.5981 -1.5400
  110MOL    H9343911   2.416   0.692   0.119  0.8953  0.9730 -1.2189
  110MOL    H9443912   2.594   0.867   0.165  0.0067  0.4613 -0.6903
  110MOL    H9543913   2.568   1.300   0.079  1.6930 -0.3225 -0.1502
  110MOL    H9643914   2.661   1.269   0.226 -0.8998 -1.0108  1.9133
  110MOL    H9743915   2.480   1.269   0.227 -1.2393 -1.0569 -1.6052
  110MOL    H9843916   2.303   1.179   0.117  0.0503 -1.0261  2.7790
  110MOL    H9943917   2.139   1.000   0.054  0.0658 -1.0392 -0.2278
  110MOL   H10043918   2.241   0.741   7.899 -2.2118  2.2476  1.3066
  110MOL   H10143919   2.289   0.604   7.986 -0.8324 -0.2600 -0.8268
  110MOL   C10243920   2.112   0.567   7.887  0.0685  0.2790 -0.3470
  110MOL   C10343921   1.977   0.637   7.851 -0.4527 -0.1474  0.9875
  110MOL   C10443922   1.973   0.763   7.780  0.2015  0.6187  0.4068
  110MOL   C10543923   1.853   0.814   7.745  0.3432 -0.2688 -0.1713
  110MOL   C10643924   1.731   0.756   7.791 -0.2770 -0.6013 -0.3803
  110MOL   O10743925   1.607   0.813   7.776  0.1664 -0.4077 -0.2884
  110MOL   C10843926   1.596   0.954   7.796 -1.3157 -0.5813 -0.4636
  110MOL   C10943927   1.734   0.634   7.858  0.0392 -0.6071  0.1782
  110MOL   C11043928   1.857   0.578   7.894  0.4983  0.3832  0.5088
  110MOL   C11143929   2.192   0.534   7.756  0.1414 -0.0275 -0.2612
  110MOL   H11243930   2.085   0.482   7.948 -1.0138 -0.1144 -1.3486
  110MOL   H11343931   2.065   0.817   7.760  1.1673 -1.7494 -1.8971
  110MOL   H11443932   1.844   0.913   7.705 -1.2667  0.4507  1.8595
  110MOL   H11543933   1.665   1.010   7.732 -1.2653  1.7293  1.5450
  110MOL   H11643934   1.494   0.991   7.785 -1.3820 -0.4576  0.5214
  110MOL   H11743935   1.625   0.978   7.898  2.8845  1.1578 -1.9485
  110MOL   H11843936   1.640   0.591   7.889  0.8953 -2.4199  0.3724
  110MOL   H11943937   1.853   0.480   7.940  1.5653  1.7899  3.7919
  110MOL   H12043938   2.196   0.631   7.706 -1.2789  0.6782  0.9415
  110MOL   H12143939   2.291   0.497   7.783  0.3954  1.5082  1.0738
  110MOL   C12243940   2.107   0.436   7.662  0.1774  0.1385  0.7899
  110MOL   C12343941   2.083   0.303   7.728  0.3779  0.5639  0.1265
  110MOL   C12443942   2.184   0.210   7.759 -0.4536 -0.4139 -0.2740
  110MOL   C12543943   2.153   0.088   7.816  0.1507 -0.5994  0.1400
  110MOL   C12643944   2.021   0.059   7.851 -0.2128  0.7377 -0.4045
  110MOL   O12743945   1.995   7.984   7.920  0.0867 -0.2210  0.3073
  110MOL   C12843946   1.867   7.948   7.956 -0.2671  0.4411  0.3470
  110MOL   C12943947   1.920   0.149   7.816  0.3190  0.4594 -0.5488
  110MOL   C13043948   1.951   0.274   7.754  0.7475  0.0665 -0.0576
  110MOL   C13143949   2.180   0.414   7.526 -0.2975  0.1306  0.5135
  110MOL   H13243950   2.010   0.481   7.643  0.1612 -0.7748 -1.4309
  110MOL   H13343951   2.289   0.222   7.736  0.0130 -1.2240  1.3807
  110MOL   H13443952   2.235   0.019   7.826  0.7229 -0.0657 -0.8021
  110MOL   H13543953   1.856   7.856   8.012  3.7145  0.5840  1.5051
  110MOL   H13643954   1.816   8.025   8.015  0.8911  1.0376  0.5876
  110MOL   H13743955   1.802   7.918   7.874 -0.1835  1.7576 -0.2251
  110MOL   H13843956   1.817   0.139   7.847 -0.0656  1.1298 -1.5890
  110MOL   H13943957   1.873   0.345   7.731 -0.1515 -0.5913  0.9024
  110MOL   H14043958   2.261   0.340   7.524 -0.8811 -0.4990  0.0670
  110MOL   H14143959   2.224   0.509   7.495  0.2514 -0.9427 -2.1646
  110MOL   C14243960   2.078   0.370   7.419  0.5635  0.0106  0.7593
  110MOL   C14343961   1.966   0.474   7.403  0.3637 -0.7922 -0.2029
  110MOL   C14443962   1.835   0.435   7.407  0.8660 -1.1354 -0.5684
  110MOL   C14543963   1.731   0.528   7.369 -0.3338 -0.5346  0.0282
  110MOL   C14643964   1.757   0.660   7.329  0.6282 -0.2075  0.0454
  110MOL   O14743965   1.655   0.736   7.271 -0.1554  0.7735 -0.6944
  110MOL   C14843966   1.683   0.862   7.226  0.6942 -0.0604  0.5305
  110MOL   C14943967   1.891   0.701   7.336  0.1410 -0.0128 -0.5192
  110MOL   C15043968   1.994   0.602   7.365 -0.6112 -0.4349 -0.7038
  110MOL   C15143969   2.131   0.334   7.276 -0.0732 -0.0582 -0.2087
  110MOL   H15243970   2.032   0.278   7.454  0.0622 -0.5585 -1.3097
  110MOL   H15343971   1.820   0.338   7.450  0.3264 -0.0951  1.6569
  110MOL   H15443972   1.627   0.499   7.370 -1.0209  1.6528  3.9857
  110MOL   H15543973   1.584   0.895   7.195  0.6627 -0.5466  0.1185
  110MOL   H15643974   1.719   0.919   7.312 -0.5413 -0.1796  1.1419
  110MOL   H15743975   1.744   0.861   7.135 -1.8125 -1.0782 -1.1896
  110MOL   H15843976   1.914   0.803   7.309  0.7665 -0.8042 -3.0463
  110MOL   H15943977   2.095   0.636   7.351 -1.2561  1.3353 -1.2165
  110MOL   H16043978   2.217   0.397   7.251 -0.1481  0.3148  0.4564
  110MOL   H16143979   2.049   0.359   7.208 -1.2105  0.4751  1.3251
  110MOL   C16243980   2.152   0.184   7.254  0.2875 -1.0363  0.2631
  110MOL   C16343981   2.275   0.134   7.326  0.1892 -0.5345  0.5546
  110MOL   C16443982   2.258   0.063   7.440 -0.2576  0.3538 -0.4626
  110MOL   C16543983   2.373   0.022   7.511  0.1096 -0.4764  0.3725
  110MOL   C16643984   2.500   0.052   7.465 -1.2781 -0.6737 -0.2360
  110MOL   O16743985   2.600   0.014   7.551 -0.0107  0.2825 -0.0337
  110MOL   C16843986   2.725   0.084   7.564 -0.2125 -0.4225  0.3506
  110MOL   C16943987   2.516   0.127   7.353  0.9752 -0.7119 -0.2800
  110MOL   C17043988   2.401   0.148   7.272  0.2925  0.4110 -0.8792
  110MOL   C17143989   2.157   0.150   7.101 -0.2307 -0.6893  0.4266
  110MOL   H17243990   2.066   0.127   7.290 -0.5973 -0.4259 -0.8569
  110MOL   H17343991   2.164   0.043   7.490 -0.4962  2.8273  0.0979
  110MOL   H17443992   2.356   8.012   7.605 -0.6005  0.0886  0.5498
  110MOL   H17543993   2.748   0.066   7.669 -0.4077 -2.0553  0.1336
  110MOL   H17643994   2.713   0.190   7.545 -0.8913 -0.5976 -0.2168
  110MOL   H17743995   2.806   0.041   7.505 -0.5121 -0.8500  0.2514
  110MOL   H17843996   2.614   0.161   7.325  1.1290 -1.1683 -0.2822
  110MOL   H17943997   2.416   0.193   7.175  0.5316 -2.5313 -2.2654
  110MOL   H18043998   2.189   0.048   7.082  1.7592  0.1597 -0.8666
  110MOL   H18143999   2.234   0.200   7.043 -0.9950 -0.3346 -0.2907
  110MOL   C18244000   2.015   0.163   7.033  0.1519  0.3073  0.0846
  110MOL   C18344001   1.917   0.057   7.091 -0.5501 -0.0375 -0.5223
  110MOL   C18444002   1.933   7.956   7.080  0.4044  0.0046 -0.7264
  110MOL   C18544003   1.853   7.866   7.154  0.2347  0.2550 -0.4464
  110MOL   C18644004   1.738   7.916   7.222 -0.1339  0.7660  0.7007
  110MOL   O18744005   1.646   7.831   7.281  0.6277 -0.2251  0.8487
  110MOL   C18844006   1.683   7.702   7.310 -0.3051  1.1809 -0.1270
  110MOL   C18944007   1.721   0.016   7.235  0.0753 -0.1671 -0.0317
  110MOL   C19044008   1.808   0.104   7.167  0.3806 -0.0850 -0.5000
  110MOL   C19144009   2.023   0.147   6.883  0.2351  0.0046 -0.5226
  110MOL   H19244010   1.981   0.262   7.063  2.0871  0.3690  2.2057
  110MOL   H19344011   2.011   7.925   7.012  1.7983  0.0273  0.8033
  110MOL   H19444012   1.872   7.762   7.134  1.0816  0.2296  0.4655
  110MOL   H19544013   1.683   7.635   7.224 -0.5123 -3.9141  3.6585
  110MOL   H19644014   1.620   7.654   7.384 -0.8039 -1.4625 -2.2050
  110MOL   H19744015   1.779   7.704   7.362 -1.0540  1.7904  1.2500
  110MOL   H19844016   1.635   0.050   7.291  0.0085 -1.1836  0.4859
  110MOL   H19944017   1.785   0.209   7.174 -1.5251 -0.5553  0.8860
  110MOL   H20044018   2.097   0.219   6.848  0.4082 -1.5463 -3.4854
  110MOL   H20144019   2.064   0.047   6.871 -1.6334 -1.3050  3.2223
  110MOL   C20244020   1.895   0.144   6.796  0.0923  0.5982 -0.1079
  110MOL   C20344021   1.907   0.048   6.675  0.7281  0.1164 -0.4408
  110MOL   C20444022   2.014   0.058   6.585 -0.7156 -0.0377  0.0636
  110MOL   C20544023   2.023   8.008   6.475 -0.8124 -0.1862 -0.3998
  110MOL   C20644024   1.924   7.912   6.448 -0.0396 -0.8725 -0.0208
  110MOL   O20744025   1.953   7.834   6.343  0.1583 -0.0175  0.1030
  110MOL   C20844026   1.868   7.730   6.317  0.0170  0.7562  0.5099
  110MOL   C20944027   1.816   7.904   6.537 -0.3699 -0.8934 -0.0503
  110MOL   C21044028   1.812   7.990   6.645 -0.0561 -0.1369  0.1386
  110MOL   C21144029   1.857   0.290   6.763  0.6583 -0.4874 -0.3842
  110MOL   H21244030   1.816   0.098   6.855 -0.4181 -0.2479 -1.4378
  110MOL   H21344031   2.094   0.129   6.599 -1.6870  0.9929  0.4893
  110MOL   H21444032   2.112   8.008   6.413  0.7517 -0.4086  1.7703
  110MOL   H21544033   1.767   7.763   6.294  0.0491  0.6351  0.1899
  110MOL   H21644034   1.904   7.670   6.233  1.1454  2.5968 -0.3528
  110MOL   H21744035   1.869   7.663   6.402  0.2752  0.2825  0.1410
  110MOL   H21844036   1.732   7.840   6.516 -2.5058  1.4221  1.1970
  110MOL   H21944037   1.726   8.003   6.709 -1.0952  1.5678 -1.5398
  110MOL   H22044038   1.906   0.326   6.673 -0.5982 -0.0680 -0.9140
  110MOL   H22144039   1.886   0.351   6.848  0.1735  0.2828 -0.7712
  110MOL   C22244040   1.705   0.318   6.743 -0.4460 -0.5039  0.2770
  110MOL   C22344041   1.634   0.271   6.871  0.1142  0.1248  0.3387
  110MOL   C22444042   1.630   0.351   6.986  0.1645  0.7264  0.4387
  110MOL   C22544043   1.549   0.319   7.098  0.5433 -0.2356 -0.0919
  110MOL   C22644044   1.468   0.209   7.093 -0.1852  0.5574 -0.5579
  110MOL   O22744045   1.388   0.188   7.202 -0.1485 -0.1554 -0.2037
  110MOL   C22844046   1.287   0.092   7.187 -0.1326  0.1526  0.0480
  110MOL   C22944047   1.478   0.120   6.985  0.3034  0.2745 -0.1693
  110MOL   C23044048   1.558   0.152   6.867 -0.0887  0.1607 -0.6950
  110MOL   C23144049   1.668   0.463   6.704  0.3101  0.2632 -0.0337
  110MOL   H23244050   1.667   0.252   6.665  1.7733 -0.4608 -0.8610
  110MOL   H23344051   1.677   0.448   6.975 -2.2239  1.6804 -1.7700
  110MOL   H23444052   1.543   0.389   7.180 -0.7355 -0.2326 -0.1770
  110MOL   H23544053   1.220   0.098   7.272 -0.1885 -1.7579  0.1730
  110MOL   H23644054   1.234   0.092   7.092 -1.1651  3.0647  0.5835
  110MOL   H23744055   1.346   0.001   7.205 -0.4151 -0.0148  0.1279
  110MOL   H23844056   1.416   0.032   6.988  0.3980  0.1733 -0.9617
  110MOL   H23944057   1.557   0.085   6.782 -0.2198  1.9284 -2.1062
  110MOL   H24044058   1.727   0.515   6.779  1.3623  0.7487 -1.1856
  110MOL   H24144059   1.706   0.488   6.605 -1.0732 -0.1562 -0.6944
  110MOL   C24244060   1.523   0.503   6.728  0.2755  0.0205 -1.0879
  110MOL   C24344061   1.517   0.654   6.759 -0.2538  0.5193  0.7525
  110MOL   C24444062   1.572   0.742   6.661  0.4622  0.2508  0.1526
  110MOL   C24544063   1.584   0.880   6.696  0.5254  0.1739  0.8672
  110MOL   C24644064   1.539   0.936   6.818  0.3098  0.3749  0.0098
  110MOL   O24744065   1.558   1.069   6.840 -0.4843 -0.4005 -0.0472
  110MOL   C24844066   1.500   1.121   6.964 -0.7346 -0.2869 -0.5235
  110MOL   C24944067   1.493   0.841   6.914  0.0286 -0.2094  0.1297
  110MOL   C25044068   1.477   0.704   6.886 -0.2063  0.2924 -0.5039
  110MOL   C25144069   1.454   0.452   6.600 -0.3815 -0.8063  0.6425
  110MOL   H25244070   1.478   0.460   6.818  0.0375  0.9170 -0.7804
  110MOL   H25344071   1.592   0.716   6.558 -1.5706  2.3574 -0.8321
  110MOL   H25444072   1.607   0.959   6.626  3.7550 -1.9901 -0.6192
  110MOL   H25544073   1.392   1.104   6.974 -0.5233 -1.9471 -0.9344
  110MOL   H25644074   1.548   1.099   7.059  0.1971  0.2611 -0.8635
  110MOL   H25744075   1.506   1.230   6.972 -0.5752 -0.3821  0.8855
  110MOL   H25844076   1.460   0.872   7.012 -2.8167 -0.4417 -0.7073
  110MOL   H25944077   1.445   0.636   6.964 -2.4898  0.4107 -1.2959
  110MOL   H26044078   1.503   0.370   6.547 -1.9718 -1.1965 -0.2768
  110MOL   H26144079   1.467   0.531   6.526  2.3619 -0.6981  1.2050
  110MOL   C26244080   1.304   0.433   6.616  0.2998 -0.2278  0.3437
  110MOL   C26344081   1.277   0.289   6.635  0.4937 -0.6722  0.1879
  110MOL   C26444082   1.278   0.200   6.527  0.2597  0.1216  0.4542
  110MOL   C26544083   1.247   0.067   6.537 -0.2992  0.5013 -0.8727
  110MOL   C26644084   1.225   0.014   6.671  0.0765  0.2625  0.3911
  110MOL   O26744085   1.192   7.922   6.704  0.3945 -0.3507  0.0367
  110MOL   C26844086   1.160   7.830   6.600 -0.7675 -0.2009 -0.3262
  110MOL   C26944087   1.227   0.103   6.783  0.6330 -0.2265 -0.8324
  110MOL   C27044088   1.251   0.237   6.769  0.2274  0.5373 -0.2138
  110MOL   C27144089   1.218   0.501   6.505  0.8063  0.1499  0.4563
  110MOL   H27244090   1.271   0.478   6.709  0.5852  0.5257  0.0850
  110MOL   H27344091   1.306   0.236   6.429 -0.5131 -3.0846 -1.0000
  110MOL   H27444092   1.251   0.016   6.442 -0.8628  1.0917 -1.2171
  110MOL   H27544093   1.153   7.728   6.637 -1.2175  0.3818  1.2764
  110MOL   H27644094   1.235   7.826   6.521  0.8350  3.2016  0.9279
  110MOL   H27744095   1.058   7.858   6.575 -0.3232  1.9485  0.1107
  110MOL   H27844096   1.210   0.069   6.884  0.7863 -0.8514 -1.0192
  110MOL   H27944097   1.260   0.300   6.856 -0.6845 -1.9385  1.7391
  110MOL   H28044098   1.238   0.608   6.499  0.3345  0.3089  1.7211
  110MOL   H28144099   1.242   0.464   6.405 -1.1449 -0.2465  0.1193
  110MOL   C28244100   1.064   0.468   6.514 -0.1928  0.7398  0.2030
  110MOL   C28344101   0.992   0.544   6.403  0.8529  0.1434  1.1271
  110MOL   C28444102   0.985   0.686   6.409 -0.7818 -0.2032 -0.9795
  110MOL   C28544103   0.915   0.761   6.311 -0.6708 -0.4485  0.2779
  110MOL   C28644104   0.838   0.692   6.217  0.2004 -0.2172  0.3075
  110MOL   O28744105   0.767   0.770   6.129 -0.0600  0.4354  0.3277
  110MOL   C28844106   0.653   0.699   6.074  0.2738 -0.4191  0.0637
  110MOL   C28944107   0.836   0.548   6.213  0.5202 -0.6854 -0.0645
  110MOL   C29044108   0.910   0.478   6.309 -0.7223  0.8420  0.1273
  110MOL   C29144109   1.003   0.513   6.651  0.1192  0.2010  0.2944
  110MOL   H29244110   1.051   0.360   6.506  4.4001  0.0619  0.5195
  110MOL   H29344111   1.042   0.733   6.487  2.0044 -1.7793 -2.0194
  110MOL   H29444112   0.937   0.866   6.310 -2.4396 -0.0516 -2.3472
  110MOL   H29544113   0.592   0.669   6.159  0.9126  0.2973  0.7801
  110MOL   H29644114   0.600   0.757   5.998  0.6378 -0.2256 -0.0476
  110MOL   H29744115   0.686   0.619   6.007  1.1318  0.4836 -0.6072
  110MOL   H29844116   0.789   0.488   6.137 -1.1066  1.6543 -0.9448
  110MOL   H29944117   0.903   0.371   6.304  0.0255  0.7643  0.5378
  110MOL   H30044118   1.055   0.463   6.733  0.5192 -1.2604 -0.8376
  110MOL   H30144119   1.023   0.619   6.670 -3.4893  1.0043  0.0961
  110MOL   C30244120   0.852   0.486   6.659  0.1476 -0.5098 -0.4605
  110MOL   C30344121   0.825   0.335   6.646 -0.2172 -0.3577  0.1954
  110MOL   C30444122   0.736   0.284   6.555  0.1158 -0.5869  0.3103
  110MOL   C30544123   0.694   0.146   6.567  0.7422 -0.0282 -0.4000
  110MOL   C30644124   0.735   0.067   6.675 -0.1415 -0.9173  1.1197
  110MOL   O30744125   0.708   7.978   6.698  0.2856  0.3023 -0.3970
  110MOL   C30844126   0.573   7.960   6.708  0.8198 -0.4263 -0.3053
  110MOL   C30944127   0.831   0.122   6.756  0.1350 -0.1635 -0.0944
  110MOL   C31044128   0.877   0.252   6.751 -0.2816  0.6465  0.0425
  110MOL   C31144129   0.788   0.555   6.784  0.2721  0.8520  0.2460
  110MOL   H31244130   0.808   0.527   6.568  0.3046 -0.9417 -0.7336
  110MOL   H31344131   0.698   0.350   6.478  0.9046 -1.0695 -0.5002
  110MOL   H31444132   0.624   0.107   6.494 -2.1994  1.4159  1.5758
  110MOL   H31544133   0.538   7.901   6.623  0.8553  0.0860 -0.6755
  110MOL   H31644134   0.514   0.009   6.730  1.4059  0.3027 -1.6036
  110MOL   H31744135   0.555   7.896   6.795  1.4270 -1.8795 -1.2237
  110MOL   H31844136   0.871   0.070   6.843 -1.3635 -1.1135  0.0495
  110MOL   H31944137   0.929   0.303   6.830 -0.7471  1.6661 -0.2998
  110MOL   H32044138   0.811   0.661   6.787 -3.0312  1.5932  0.5659
  110MOL   H32144139   0.839   0.517   6.873  0.2630 -0.3795 -0.2641
  110MOL   C32244140   0.635   0.527   6.801 -0.0494  0.0481 -0.8497
  110MOL   C32344141   0.552   0.555   6.679 -0.1873  0.5241 -0.7688
  110MOL   C32444142   0.459   0.462   6.633  0.0547 -0.2162 -0.2171
  110MOL   C32544143   0.384   0.497   6.519 -0.5547 -0.6575  0.1189
  110MOL   C32644144   0.402   0.622   6.455  0.0820 -0.1222  0.3872
  110MOL   O32744145   0.323   0.651   6.344  0.0510  0.3111  0.4992
  110MOL   C32844146   0.292   0.782   6.304  0.3649 -0.2079  0.1352
  110MOL   C32944147   0.490   0.714   6.504  0.8208  0.1788  0.0480
  110MOL   C33044148   0.570   0.681   6.616 -0.0184 -0.3632 -0.4726
  110MOL   C33144149   0.564   0.597   6.923  0.5558  0.7291  0.0781
  110MOL   H33244150   0.632   0.419   6.813  1.4740 -0.0117 -0.9401
  110MOL   H33344151   0.432   0.372   6.686 -1.1949 -0.0538 -0.5668
  110MOL   H33444152   0.301   0.440   6.480 -0.2386 -1.0076 -0.0433
  110MOL   H33544153   0.380   0.832   6.263  0.9753 -0.8648  0.6076
  110MOL   H33644154   0.266   0.842   6.391  1.8497  0.9327 -0.1847
  110MOL   H33744155   0.216   0.799   6.228 -0.2089  2.6698  1.2938
  110MOL   H33844156   0.510   0.805   6.449  1.4190  0.3736  0.5823
  110MOL   H33944157   0.646   0.752   6.646  0.4185 -0.3691 -1.5340
  110MOL   H34044158   0.586   0.704   6.916 -1.0230  1.0163 -0.7508
  110MOL   H34144159   0.455   0.593   6.925  0.5683 -0.9442 -1.7561
  110MOL   C34244160   0.600   0.546   7.064  0.3587  0.5661  0.2507
  110MOL   C34344161   0.579   0.396   7.069 -0.5142  0.1423 -0.6416
  110MOL   C34444162   0.456   0.332   7.050 -0.4606  0.2908 -0.2568
  110MOL   C34544163   0.450   0.193   7.035  0.0060 -0.7465 -0.0287
  110MOL   C34644164   0.562   0.110   7.054 -0.1009  0.1078  0.3511
  110MOL   O34744165   0.548   8.012   7.042 -1.0647 -0.3282 -0.5282
  110MOL   C34844166   0.649   7.942   7.110 -0.8912  0.3981 -0.3759
  110MOL   C34944167   0.689   0.173   7.081  0.0664  0.2666 -0.0268
  110MOL   C35044168   0.693   0.316   7.095  1.1804 -0.0703  0.2774
  110MOL   C35144169   0.524   0.613   7.178 -0.0475 -0.2188  0.7659
  110MOL   H35244170   0.706   0.562   7.083  0.9655 -0.1635 -2.3842
  110MOL   H35344171   0.370   0.396   7.031  0.6114  1.9976  0.4988
  110MOL   H35444172   0.352   0.159   7.007 -1.4377  2.2692  1.1390
  110MOL   H35544173   0.739   7.952   7.048 -0.5682  3.7471  0.5425
  110MOL   H35644174   0.668   7.980   7.210  1.3102  2.6555 -1.5845
  110MOL   H35744175   0.618   7.839   7.128 -0.6500  0.4814  0.5313
  110MOL   H35844176   0.782   0.120   7.093 -1.4656 -2.2173  1.1928
  110MOL   H35944177   0.784   0.372   7.112  0.7044  1.2381 -1.3457
  110MOL   H36044178   0.421   0.578   7.173  0.2061 -0.9348  0.4474
  110MOL   H36144179   0.567   0.576   7.271 -0.1530  0.0009  0.9006
  110MOL   C36244180   0.534   0.769   7.190 -0.2182  0.0415  0.6965
  110MOL   C36344181   0.677   0.819   7.172  0.1676  0.0130 -0.3398
  110MOL   C36444182   0.709   0.915   7.076  0.1833  0.9817  0.4646
  110MOL   C36544183   0.842   0.952   7.043  0.4168  0.5831  0.5806
  110MOL   C36644184   0.944   0.898   7.122 -0.1876 -0.1688  0.3324
  110MOL   O36744185   1.072   0.942   7.097 -0.0749 -0.2523  0.3448
  110MOL   C36844186   1.174   0.951   7.192  0.2310  0.2191 -0.0187
  110MOL   C36944187   0.913   0.803   7.228  1.1034 -0.2895  0.3630
  110MOL   C37044188   0.779   0.768   7.255  0.5443  0.4121  0.6533
  110MOL   C37144189   0.483   0.815   7.328  0.2679 -0.1357 -0.0872
  110MOL   H37244190   0.483   0.818   7.107  1.5345  2.5722  1.0768
  110MOL   H37344191   0.638   0.947   7.001  0.6977  1.4370  0.1634
  110MOL   H37444192   0.862   1.022   6.963 -0.5880  0.9416  0.6401
  110MOL   H37544193   1.268   0.992   7.155  0.7068  0.0444  0.9764
  110MOL   H37644194   1.149   0.996   7.287  0.8022 -0.2202  0.3434
  110MOL   H37744195   1.214   0.851   7.212  0.1116  0.1999  0.1188
  110MOL   H37844196   0.982   0.750   7.291 -3.1954 -3.6678  2.5104
  110MOL   H37944197   0.746   0.693   7.326 -1.3830 -0.4637 -1.1135
  110MOL   H38044198   0.559   0.770   7.392 -1.9239 -0.4471  2.4064
  110MOL   H38144199   0.491   0.923   7.328  1.0386 -0.1931 -1.2723
  110MOL   C38244200   0.341   0.777   7.374  0.7101 -0.0026  0.2403
  110MOL   C38344201   0.233   0.805   7.277 -0.9444  0.1137 -0.3628
  110MOL   C38444202   0.214   0.917   7.196 -0.2006  0.5920 -0.5194
  110MOL   C38544203   0.100   0.928   7.112 -0.2816  0.4046  0.4893
  110MOL   C38644204   0.006   0.822   7.103  0.4461  0.3419 -0.1561
  110MOL   O38744205   7.928   0.822   7.023  0.0393  0.2267 -0.5030
  110MOL   C38844206   7.910   0.939   6.944  0.4043 -0.1044 -0.3293
  110MOL   C38944207   0.027   0.708   7.191 -0.6011 -0.3575  0.7953
  110MOL   C39044208   0.133   0.706   7.277  0.1406  0.0465 -0.0926
  110MOL   C39144209   0.318   0.838   7.509  0.7326  0.5186 -0.4255
  110MOL   H39244210   0.353   0.669   7.383  0.9923 -0.1001 -1.1687
  110MOL   H39344211   0.277   1.005   7.198  0.6263 -0.0106  2.8546
  110MOL   H39444212   0.074   1.026   7.074 -0.0402  0.9000  1.5895
  110MOL   H39544213   7.818   0.919   6.888  1.4551 -1.4498 -1.6291
  110MOL   H39644214   7.995   0.954   6.878  0.3715 -2.5012 -0.9788
  110MOL   H39744215   7.891   1.025   7.009 -3.1486 -0.4236 -0.8204
  110MOL   H39844216   7.995   0.628   7.181  1.0532 -1.6140 -1.6962
  110MOL   H39944217   0.132   0.623   7.346  0.5053  0.5760  0.5580
  110MOL   H40044218   0.415   0.847   7.558 -0.0530 -1.2614  1.5345
  110MOL   H40144219   0.248   0.776   7.565 -1.8871  2.9556 -0.9288
  110MOL   H40244220   0.288   0.942   7.504  0.2994  0.3341 -1.9512
  111MOL     C144221   6.951   7.135   0.252  0.2760 -0.6342 -0.0293
  111MOL     C244222   7.059   7.030   0.273  0.3339 -0.1389 -0.3683
  111MOL     C344223   7.021   6.912   0.346 -0.0213  0.2082 -0.0870
  111MOL     C444224   7.116   6.813   0.367 -0.2940 -0.5006  0.4764
  111MOL     C544225   7.240   6.818   0.298 -0.7361  0.0719  0.2101
  111MOL     O644226   7.328   6.710   0.320  0.2803 -0.0548 -0.9679
  111MOL     C744227   7.440   6.692   0.233 -0.3783  0.4889 -0.7485
  111MOL     C844228   7.272   6.931   0.220 -0.7470  0.0377  0.3495
  111MOL     C944229   7.185   7.042   0.211  0.2142  0.3368  0.1601
  111MOL    C1044230   6.984   7.274   0.300 -0.5803  0.0073  0.0490
  111MOL    H1144231   6.868   7.100   0.312 -2.1570  1.0790 -2.2575
  111MOL    H1244232   6.924   6.891   0.390  1.1512 -0.7709  2.0622
  111MOL    H1344233   7.096   6.723   0.424  0.3252 -1.3016 -0.5449
  111MOL    H1444234   7.402   6.657   0.137 -0.2792  1.5191 -1.1754
  111MOL    H1544235   7.502   6.780   0.214  1.3023 -0.2990  0.9943
  111MOL    H1644236   7.498   6.611   0.275 -1.6615  0.5894  1.2736
  111MOL    H1744237   7.375   6.937   0.189 -0.5014  0.5201  1.2473
  111MOL    H1844238   7.212   7.120   0.140 -0.6581  0.8773  0.4192
  111MOL    H1944239   6.977   7.257   0.408  0.2426  0.2768  0.1430
  111MOL    H2044240   7.088   7.300   0.281 -1.2353  0.5497 -3.1036
  111MOL    H2144241   6.930   7.130   0.145 -0.2339  0.4214  0.0106
  111MOL    C2244242   6.902   7.378   0.222 -0.8004  0.2730 -0.1200
  111MOL    C2344243   6.754   7.355   0.215 -0.0035  1.1208 -0.2099
  111MOL    C2444244   6.687   7.327   0.088 -0.4212  0.1286  0.4441
  111MOL    C2544245   6.547   7.295   0.087 -0.5157  0.7806 -0.0281
  111MOL    C2644246   6.467   7.301   0.210  0.6344  0.2895  0.4390
  111MOL    O2744247   6.328   7.274   0.209  0.4087  0.3033  0.1407
  111MOL    C2844248   6.278   7.216   0.091 -0.1133  0.0835 -0.5569
  111MOL    C2944249   6.532   7.325   0.328  0.0915  0.3588  0.3036
  111MOL    C3044250   6.673   7.360   0.330 -0.3293 -0.2673  0.5236
  111MOL    C3144251   6.938   7.524   0.263  0.0803 -0.0483 -0.4842
  111MOL    H3244252   6.947   7.359   0.124 -0.1727 -0.3312  0.2839
  111MOL    H3344253   6.747   7.322   8.038  1.5809 -1.5947  1.8361
  111MOL    H3444254   6.514   7.260   8.030  1.9490 -0.0851 -0.5850
  111MOL    H3544255   6.182   7.165   0.093  0.6005 -1.3731 -2.0392
  111MOL    H3644256   6.342   7.131   0.070  0.0841 -0.2274  1.1938
  111MOL    H3744257   6.265   7.287   0.009  0.3143  0.9069  0.0722
  111MOL    H3844258   6.473   7.314   0.418 -1.5563 -0.7644 -0.8916
  111MOL    H3944259   6.729   7.372   0.422  1.0106 -0.7642 -0.2086
  111MOL    H4044260   6.890   7.545   0.359 -3.5100  2.8953 -2.7859
  111MOL    H4144261   7.043   7.533   0.289  0.2182  1.5281 -1.5370
  111MOL    C4244262   6.911   7.638   0.160 -0.1924  0.1160  0.2689
  111MOL    C4344263   6.996   7.628   0.033 -0.0312  0.4610  0.6305
  111MOL    C4444264   7.133   7.644   0.034  0.2029  0.1644  0.2065
  111MOL    C4544265   7.214   7.605   7.969  0.0326 -0.1808  0.4157
  111MOL    C4644266   7.165   7.543   7.857  0.1703  0.3597 -0.3348
  111MOL    O4744267   7.258   7.519   7.763  0.6773  0.5835  0.3852
  111MOL    C4844268   7.216   7.449   7.645  0.7827  0.1188  0.2072
  111MOL    C4944269   7.024   7.534   7.846 -0.3623  0.2881  0.5156
  111MOL    C5044270   6.939   7.576   7.951 -0.1174  0.1193 -0.1291
  111MOL    C5144271   6.896   7.784   0.209  0.2212  0.4117 -1.0942
  111MOL    H5244272   6.810   7.614   0.126 -0.1243  1.7817 -1.1975
  111MOL    H5344273   7.164   7.687   0.128 -1.9764  1.1109  0.5227
  111MOL    H5444274   7.320   7.600   7.989  0.8193  0.0939 -3.2955
  111MOL    H5544275   7.163   7.524   7.585  1.1883 -0.1468 -0.4822
  111MOL    H5644276   7.305   7.422   7.589  0.8294 -0.6283  0.6439
  111MOL    H5744277   7.151   7.366   7.671 -0.3597  0.3235 -1.8340
  111MOL    H5844278   6.977   7.504   7.754 -3.2455 -1.7518  2.5833
  111MOL    H5944279   6.831   7.565   7.946 -0.2327  1.0617  0.0385
  111MOL    H6044280   6.860   7.842   0.124 -1.7771 -0.7021 -1.0451
  111MOL    H6144281   6.997   7.822   0.223 -0.6083  1.3863  2.7406
  111MOL    C6244282   6.806   7.813   0.328 -0.4364  0.2623 -0.2833
  111MOL    C6344283   6.657   7.786   0.287  0.3124 -0.5098  0.5193
  111MOL    C6444284   6.577   7.670   0.326  0.9499  0.0550 -0.2657
  111MOL    C6544285   6.440   7.654   0.281  0.2056  0.5087 -0.1697
  111MOL    C6644286   6.374   7.755   0.205  0.1626  0.5764  0.0877
  111MOL    O6744287   6.244   7.747   0.171  0.2967  0.0750 -0.8722
  111MOL    C6844288   6.159   7.637   0.208 -0.5009  0.5606 -0.3425
  111MOL    C6944289   6.448   7.871   0.169 -0.6965 -0.2600 -0.4742
  111MOL    C7044290   6.587   7.883   0.202 -0.0334  0.8095  0.5621
  111MOL    C7144291   6.830   7.965   0.361  0.2222  0.1654 -0.0018
  111MOL    H7244292   6.839   7.747   0.408 -1.7062  0.5170  0.4679
  111MOL    H7344293   6.622   7.589   0.382  0.0838  0.6436  1.2834
  111MOL    H7444294   6.392   7.561   0.309  2.7254 -0.6437  0.5369
  111MOL    H7544295   6.053   7.664   0.213 -0.5226  1.2481 -3.3233
  111MOL    H7644296   6.181   7.588   0.303  1.1196  0.7561 -0.6087
  111MOL    H7744297   6.179   7.571   0.123 -0.6070  1.7920 -1.3322
  111MOL    H7844298   6.402   7.950   0.111  0.1130  0.5041 -0.0759
  111MOL    H7944299   6.631   7.980   0.181  3.0183 -0.2722  1.5979
  111MOL    H8044300   6.937   7.985   0.351  0.1640  1.6482  2.0893
  111MOL    H8144301   6.792   8.031   0.283  1.2327 -0.0191 -0.6680
  111MOL    C8244302   6.788   8.000   0.502  0.6825 -0.6035 -0.6056
  111MOL    C8344303   6.900   0.045   0.561 -0.3532  0.3042 -0.8727
  111MOL    C8444304   6.908   0.184   0.526  0.0053  0.6863  0.2439
  111MOL    C8544305   7.017   0.261   0.560  0.0405  0.2451  0.2134
  111MOL    C8644306   7.116   0.217   0.644 -0.0961 -0.6217  0.4159
  111MOL    O8744307   7.226   0.285   0.692  0.6745 -0.6923  0.2576
  111MOL    C8844308   7.225   0.431   0.665  0.0388 -0.7673  0.6162
  111MOL    C8944309   7.109   0.077   0.680 -0.4907  0.0605  0.2394
  111MOL    C9044310   7.005   8.034   0.642  0.3796 -0.1782 -0.4831
  111MOL    C9144311   6.647   0.012   0.524 -1.6815 -0.6219  0.6047
  111MOL    H9244312   6.805   7.911   0.564 -0.2781 -0.1462  0.3384
  111MOL    H9344313   6.831   0.215   0.456 -2.4036 -0.5720  2.2560
  111MOL    H9444314   7.012   0.366   0.535  4.2519  0.5677  0.4057
  111MOL    H9544315   7.300   0.482   0.725  1.1177 -0.4996 -0.9096
  111MOL    H9644316   7.128   0.469   0.696 -0.1388  1.9001 -2.8428
  111MOL    H9744317   7.227   0.456   0.558  2.4281 -2.6056  0.1704
  111MOL    H9844318   7.191   0.040   0.739  0.0290 -0.9782 -1.1103
  111MOL    H9944319   7.003   7.930   0.669 -0.8431  0.7552  3.3029
  111MOL   H10044320   6.652   0.119   0.544 -0.1358 -0.9019  1.8417
  111MOL   H10144321   6.589   0.007   0.431 -1.2493 -1.1387  0.3637
  111MOL   C10244322   6.567   7.994   0.643 -0.0934 -0.2202 -0.1875
  111MOL   C10344323   6.439   0.033   0.658 -0.1148 -0.0894  0.3992
  111MOL   C10444324   6.353   0.049   0.546  0.0819 -0.5396 -0.2933
  111MOL   C10544325   6.225   0.106   0.565 -0.0951  0.2518 -0.5597
  111MOL   C10644326   6.184   0.150   0.693 -0.2035 -0.4188 -0.3369
  111MOL   O10744327   6.064   0.209   0.711  0.2525  0.1390  0.0846
  111MOL   C10844328   5.949   0.161   0.641  0.5731  0.8699 -0.2957
  111MOL   C10944329   6.277   0.141   0.802 -0.1886  0.3150  0.5513
  111MOL   C11044330   6.402   0.093   0.782  0.0707 -0.8618  0.4600
  111MOL   C11144331   6.535   7.841   0.619 -0.0653  0.7312  0.4671
  111MOL   H11244332   6.634   7.995   0.729  1.1098 -0.7893 -1.0995
  111MOL   H11344333   6.366   0.013   0.445  1.7807  0.0048 -0.2774
  111MOL   H11444334   6.157   0.120   0.483 -1.9911  2.1464  1.2611
  111MOL   H11544335   5.918   0.058   0.657 -5.1689  2.3817 -0.6027
  111MOL   H11644336   5.858   0.215   0.668 -1.4297 -2.4814 -0.0837
  111MOL   H11744337   5.965   0.172   0.533 -1.2197  1.1577 -0.5446
  111MOL   H11844338   6.253   0.188   0.896  0.9049  2.0027  0.0098
  111MOL   H11944339   6.469   0.074   0.865  0.4457 -0.1229  0.3229
  111MOL   H12044340   6.463   7.835   0.537  1.9298 -1.1119 -1.1768
  111MOL   H12144341   6.624   7.786   0.590 -0.8397  0.0081 -0.5416
  111MOL   C12244342   6.486   7.758   0.740  0.0590 -0.2565  0.4970
  111MOL   C12344343   6.580   7.771   0.868 -0.0687  0.1565  1.0822
  111MOL   C12444344   6.721   7.776   0.859  0.1302 -0.1618 -0.2869
  111MOL   C12544345   6.798   7.797   0.974 -0.4517 -0.2905  0.0491
  111MOL   C12644346   6.738   7.816   1.098  1.2685  0.3874  0.6422
  111MOL   O12744347   6.814   7.840   1.206 -0.3329 -0.2918 -0.1363
  111MOL   C12844348   6.757   7.838   1.344 -0.1321 -0.0149  0.4487
  111MOL   C12944349   6.593   7.820   1.104  0.3236 -0.3973 -0.4750
  111MOL   C13044350   6.509   7.799   0.990  0.4429  0.3377  0.1123
  111MOL   C13144351   6.472   7.612   0.690  0.4846  0.2527 -0.6725
  111MOL   H13244352   6.389   7.795   0.773 -0.4948 -0.9069 -0.3708
  111MOL   H13344353   6.772   7.754   0.766 -1.5141 -2.7393 -0.6393
  111MOL   H13444354   6.906   7.805   0.982 -0.5988  2.0718  0.0741
  111MOL   H13544355   6.835   7.874   1.412  1.5569 -1.3082 -0.7817
  111MOL   H13644356   6.674   7.908   1.358  1.1529  1.6333  0.0003
  111MOL   H13744357   6.733   7.737   1.377 -0.3659  0.0628  0.5205
  111MOL   H13844358   6.541   7.838   1.196 -0.3205  1.9356 -1.2815
  111MOL   H13944359   6.403   7.802   1.006  0.5975  0.3962  1.1264
  111MOL   H14044360   6.576   7.584   0.676 -0.2570 -2.2130 -1.3911
  111MOL   H14144361   6.416   7.609   0.597 -0.1947  1.6068 -0.3205
  111MOL   C14244362   6.412   7.506   0.784  0.4309 -0.2804  0.6180
  111MOL   C14344363   6.255   7.511   0.798 -0.2389  0.2586  0.0657
  111MOL   C14444364   6.192   7.535   0.918  0.8624  0.4667 -0.3240
  111MOL   C14544365   6.049   7.527   0.933  0.4994  0.0341  0.7722
  111MOL   C14644366   5.969   7.492   0.821  0.3196 -0.4038 -0.8078
  111MOL   O14744367   5.832   7.469   0.840 -0.1834 -0.0755 -0.0767
  111MOL   C14844368   5.744   7.469   0.724  0.7267  0.1085  0.1157
  111MOL   C14944369   6.033   7.469   0.698  0.1252 -0.3892 -0.5472
  111MOL   C15044370   6.173   7.482   0.689 -0.2861  0.2306  0.3719
  111MOL   C15144371   6.458   7.362   0.754  0.0566  0.0472  0.3462
  111MOL   H15244372   6.450   7.538   0.881  0.5490 -1.0135  0.8127
  111MOL   H15344373   6.252   7.559   1.005  0.1186  0.9387  0.0593
  111MOL   H15444374   5.996   7.530   1.027 -0.1717 -0.5641  0.4146
  111MOL   H15544375   5.786   7.383   0.671  0.0333  1.1458 -2.1949
  111MOL   H15644376   5.637   7.456   0.737  0.6403 -0.9035 -1.4727
  111MOL   H15744377   5.762   7.556   0.660 -0.1995 -0.2576 -0.6511
  111MOL   H15844378   5.979   7.452   0.606  0.8322  0.7031 -1.1770
  111MOL   H15944379   6.212   7.464   0.590 -3.4422 -0.5503 -0.8234
  111MOL   H16044380   6.454   7.340   0.648  1.7378 -1.5893  0.5914
  111MOL   H16144381   6.395   7.292   0.809  1.2360  0.0707  1.7757
  111MOL   C16244382   6.609   7.331   0.784 -0.0035  0.3312  0.1896
  111MOL   C16344383   6.645   7.186   0.748 -0.4089 -0.0409  0.4370
  111MOL   C16444384   6.568   7.085   0.805 -0.4942 -1.2487  0.2314
  111MOL   C16544385   6.605   6.953   0.778 -0.0975  0.4908 -0.0314
  111MOL   C16644386   6.717   6.919   0.696  0.2900  0.3439 -0.1923
  111MOL   O16744387   6.760   6.787   0.665 -0.1904  0.4352  0.3875
  111MOL   C16844388   6.681   6.687   0.725 -0.7270 -1.1069  0.3287
  111MOL   C16944389   6.797   7.022   0.651  1.0565 -0.1094  0.4031
  111MOL   C17044390   6.758   7.155   0.673 -0.3248 -0.5332  0.2529
  111MOL   C17144391   6.634   7.359   0.934  0.2836 -0.8887 -0.7620
  111MOL   H17244392   6.677   7.386   0.719  1.4651 -0.4005  1.0771
  111MOL   H17344393   6.478   7.103   0.862  1.7019 -2.0332  4.1568
  111MOL   H17444394   6.537   6.876   0.810 -1.8370  1.4603 -1.3415
  111MOL   H17544395   6.677   6.704   0.833 -1.8201 -1.7453  0.3928
  111MOL   H17644396   6.737   6.595   0.706 -0.1226 -1.1101  2.0319
  111MOL   H17744397   6.584   6.671   0.678 -0.3921 -1.8196 -0.1330
  111MOL   H17844398   6.882   7.001   0.588  1.7507 -0.0833  1.3153
  111MOL   H17944399   6.813   7.241   0.638  0.0399 -0.8401  0.0781
  111MOL   H18044400   6.549   7.316   0.986 -0.6347  0.7934 -0.8371
  111MOL   H18144401   6.637   7.465   0.960  1.3918 -0.3733 -2.8409
  111MOL   C18244402   6.769   7.313   0.994 -0.0353 -0.6636  0.4340
  111MOL   C18344403   6.756   7.322   1.142  0.0610 -0.0480 -0.0761
  111MOL   C18444404   6.706   7.437   1.210  0.2518 -0.4710 -0.9918
  111MOL   C18544405   6.673   7.432   1.346 -0.0614 -0.0797 -0.2299
  111MOL   C18644406   6.697   7.311   1.418 -0.0246  0.1200  0.3571
  111MOL   O18744407   6.683   7.295   1.550  0.0993  0.6402  0.2230
  111MOL   C18844408   6.610   7.390   1.621 -0.0082 -0.6290 -0.1878
  111MOL   C18944409   6.757   7.205   1.349  0.3158  0.4247 -0.1001
  111MOL   C19044410   6.780   7.210   1.213  0.3421  0.2716  0.0218
  111MOL   C19144411   6.881   7.407   0.947 -0.3359 -0.1020 -0.7537
  111MOL   H19244412   6.790   7.212   0.958  3.2759  0.3537 -0.7744
  111MOL   H19344413   6.678   7.528   1.159 -4.2343 -0.3662  1.4387
  111MOL   H19444414   6.621   7.516   1.391  0.8188 -0.0852  0.8301
  111MOL   H19544415   6.651   7.489   1.636 -0.0430 -0.5337 -0.6902
  111MOL   H19644416   6.601   7.341   1.718 -0.2460 -1.3326 -0.5579
  111MOL   H19744417   6.512   7.392   1.574 -0.5784 -2.6799  0.8362
  111MOL   H19844418   6.778   7.114   1.403 -2.2501 -0.8602 -1.1457
  111MOL   H19944419   6.831   7.123   1.172 -2.2008 -1.7429  0.9753
  111MOL   H20044420   6.889   7.386   0.841  0.2768 -4.0273  0.0212
  111MOL   H20144421   6.862   7.514   0.961  0.8953  0.0954 -0.5530
  111MOL   C20244422   7.019   7.389   1.012  0.3080  0.4905  0.1280
  111MOL   C20344423   7.101   7.509   0.979 -0.0084  0.3698 -0.1223
  111MOL   C20444424   7.175   7.516   0.858 -0.2431  0.2545  0.3711
  111MOL   C20544425   7.263   7.621   0.839  0.2007  0.1328  0.0342
  111MOL   C20644426   7.265   7.733   0.927  0.5000  0.6091  0.4656
  111MOL   O20744427   7.348   7.837   0.892 -0.1794 -0.1588 -0.2972
  111MOL   C20844428   7.367   7.945   0.977 -0.0705  0.2226 -0.4573
  111MOL   C20944429   7.185   7.733   1.042  0.0672  0.9161  0.6161
  111MOL   C21044430   7.101   7.619   1.068  0.2209 -0.2088 -0.0645
  111MOL   C21144431   7.084   7.254   0.991 -0.0949  0.3178  0.2322
  111MOL   H21244432   7.003   7.389   1.120 -1.2545 -0.7362 -0.0855
  111MOL   H21344433   7.161   7.443   0.780  1.9772  2.6748 -2.3735
  111MOL   H21444434   7.319   7.620   0.747  0.3063  0.3431  0.0952
  111MOL   H21544435   7.291   8.023   0.970 -0.4118 -0.1227 -0.6371
  111MOL   H21644436   7.388   7.920   1.081 -1.2093  1.1834  0.0120
  111MOL   H21744437   7.460   7.994   0.946  0.2107 -0.7349 -1.1428
  111MOL   H21844438   7.195   7.811   1.116 -2.7773  1.0507  0.9159
  111MOL   H21944439   7.057   7.609   1.166 -1.3691  2.9300 -0.3868
  111MOL   H22044440   7.095   7.227   0.886 -1.2424  2.2481 -0.3980
  111MOL   H22144441   7.029   7.168   1.028  0.7351 -0.9675 -1.4683
  111MOL   C22244442   7.234   7.246   1.039  0.2406  0.0169 -0.7072
  111MOL   C22344443   7.244   7.273   1.192  0.2078  0.1342  0.3356
  111MOL   C22444444   7.330   7.370   1.244  0.1032 -0.5561 -0.4005
  111MOL   C22544445   7.323   7.395   1.383 -0.5409  0.0250  0.1401
  111MOL   C22644446   7.235   7.327   1.466  1.0584  0.2373 -0.3102
  111MOL   O22744447   7.229   7.336   1.605 -0.0280 -0.2390  1.1529
  111MOL   C22844448   7.284   7.457   1.657 -0.5762  0.0900  0.5458
  111MOL   C22944449   7.149   7.225   1.417 -0.1414  0.3029  0.1415
  111MOL   C23044450   7.168   7.193   1.279  0.0778  0.5602  0.0464
  111MOL   C23144451   7.303   7.107   1.006  0.5477 -0.4666  0.1464
  111MOL   H23244452   7.289   7.316   0.977 -0.9195 -0.1280 -1.9306
  111MOL   H23344453   7.384   7.424   1.168  1.6241  3.0798  3.0931
  111MOL   H23444454   7.391   7.471   1.418 -0.0044 -1.0394  1.4221
  111MOL   H23544455   7.264   7.447   1.764  2.1546 -1.1402  0.9924
  111MOL   H23644456   7.392   7.456   1.645 -0.8942  2.2120 -2.9281
  111MOL   H23744457   7.234   7.546   1.619  0.5752 -0.6351 -2.8194
  111MOL   H23844458   7.086   7.174   1.487 -0.1171  0.7717  0.5071
  111MOL   H23944459   7.102   7.118   1.238 -0.4131  0.2755  1.3227
  111MOL   H24044460   7.262   7.037   1.080 -2.0015  0.4665 -0.3205
  111MOL   H24144461   7.270   7.065   0.911  1.0192  0.5526 -0.4704
  111MOL   C24244462   7.456   7.109   1.020  0.3726 -0.1026 -0.0677
  111MOL   C24344463   7.505   6.967   1.056 -0.2817  0.6272 -0.0875
  111MOL   C24444464   7.533   6.878   0.950  0.0974 -0.2519 -0.4818
  111MOL   C24544465   7.574   6.742   0.974  1.0022 -0.0476 -0.5431
  111MOL   C24644466   7.589   6.698   1.109 -0.5907  0.4600 -0.2570
  111MOL   O24744467   7.627   6.570   1.128  0.1120 -0.1016  0.0476
  111MOL   C24844468   7.728   6.550   1.235 -1.1700 -0.9058  0.3645
  111MOL   C24944469   7.567   6.793   1.216  0.2259 -0.7549  0.2226
  111MOL   C25044470   7.523   6.922   1.187  0.3023  0.4773  0.0681
  111MOL   C25144471   7.523   7.161   0.893  0.3938  0.1342  0.0843
  111MOL   H25244472   7.479   7.180   1.100 -2.3739  1.5180 -0.6476
  111MOL   H25344473   7.515   6.901   0.846  0.4722 -1.1486 -0.7528
  111MOL   H25444474   7.593   6.674   0.893 -0.2592 -0.0819 -0.8245
  111MOL   H25544475   7.783   6.455   1.233  0.8715  0.2332  1.2096
  111MOL   H25644476   7.803   6.629   1.241 -1.1101 -0.9388  0.0562
  111MOL   H25744477   7.681   6.549   1.333 -1.2955  0.2090  0.3141
  111MOL   H25844478   7.587   6.764   1.318  0.5380 -1.1141  0.0637
  111MOL   H25944479   7.497   6.986   1.270 -1.1270 -1.8113  1.4263
  111MOL   H26044480   7.450   7.157   0.812  0.0103 -2.5251  0.5217
  111MOL   H26144481   7.605   7.092   0.872  0.6407  0.0029  1.4695
  111MOL   C26244482   7.601   7.291   0.908 -0.2251 -0.0754  0.2658
  111MOL   C26344483   7.636   7.352   0.771 -0.2029  0.5101  0.2629
  111MOL   C26444484   7.659   7.280   0.656 -0.7596  0.1161 -0.2703
  111MOL   C26544485   7.701   7.345   0.537 -0.2696 -0.3049 -0.6590
  111MOL   C26644486   7.694   7.484   0.524 -0.1754  0.0701 -0.1373
  111MOL   O26744487   7.729   7.545   0.409  0.5137 -0.2294  0.3684
  111MOL   C26844488   7.701   7.481   0.288  0.1544  0.4446 -0.2264
  111MOL   C26944489   7.654   7.561   0.637 -0.3637 -0.1525  0.0332
  111MOL   C27044490   7.631   7.496   0.763 -0.0781 -0.4324 -0.8305
  111MOL   C27144491   7.729   7.287   0.997 -0.7115 -0.4180  0.2814
  111MOL   H27244492   7.534   7.361   0.959 -1.4964 -2.0124  1.3022
  111MOL   H27344493   7.667   7.173   0.667  0.6254  0.3716  1.2857
  111MOL   H27444494   7.727   7.284   0.451  0.3499 -1.1907  0.1531
  111MOL   H27544495   7.605   7.431   0.271  1.0026 -1.1113 -0.5070
  111MOL   H27644496   7.770   7.398   0.274  0.0287  0.7320 -2.7256
  111MOL   H27744497   7.714   7.545   0.201  2.5626 -0.8424 -0.8552
  111MOL   H27844498   7.648   7.668   0.623 -2.1544 -0.5582 -2.4770
  111MOL   H27944499   7.617   7.549   0.857  0.1728 -1.0855 -0.4258
  111MOL   H28044500   7.755   7.183   1.021 -0.7146 -0.7528 -1.1320
  111MOL   H28144501   7.810   7.324   0.935  0.0939  0.7829  2.0029
  111MOL   C28244502   7.739   7.361   1.128  0.6279  0.5455 -0.1976
  111MOL   C28344503   7.737   7.513   1.120 -0.3326 -0.1912  0.2420
  111MOL   C28444504   7.845   7.585   1.056 -0.1624 -0.0769  0.3679
  111MOL   C28544505   7.861   7.723   1.077 -0.0330 -0.0243  0.0294
  111MOL   C28644506   7.761   7.800   1.138  0.4476 -0.4358  0.3238
  111MOL   O28744507   7.782   7.937   1.141  0.3673 -0.0717  0.5156
  111MOL   C28844508   7.706   8.017   1.228  0.0839  0.1702  0.2246
  111MOL   C28944509   7.642   7.733   1.181  0.6465 -0.0783  0.5775
  111MOL   C29044510   7.636   7.589   1.182  0.4082 -0.1662  0.3259
  111MOL   C29144511   7.863   7.318   1.203 -0.5973 -0.1250 -0.3955
  111MOL   H29244512   7.660   7.317   1.189  2.2375 -0.4972  1.2106
  111MOL   H29344513   7.923   7.529   1.007 -0.5816 -1.5178  1.3162
  111MOL   H29444514   7.948   7.775   1.040 -1.5171  1.8277 -0.8993
  111MOL   H29544515   7.738   0.081   1.233  2.6651 -0.6761  2.1356
  111MOL   H29644516   7.601   8.020   1.200  0.8005  3.7556 -2.5145
  111MOL   H29744517   7.715   7.980   1.330 -2.3755  0.9332  0.7595
  111MOL   H29844518   7.563   7.801   1.209  0.9019  0.0107  1.0926
  111MOL   H29944519   7.550   7.534   1.219  1.1027 -1.7791 -0.4284
  111MOL   H30044520   7.887   7.214   1.180  1.5903  0.5668 -1.4122
  111MOL   H30144521   7.948   7.377   1.168 -0.6080  1.1864  1.7012
  111MOL   C30244522   7.841   7.335   1.358  0.2625  0.0840  0.5794
  111MOL   C30344523   7.754   7.231   1.420 -0.4513 -0.2921  0.8302
  111MOL   C30444524   7.623   7.265   1.467 -0.2821 -0.1540 -0.1480
  111MOL   C30544525   7.534   7.170   1.516  0.2942  0.0021 -0.4020
  111MOL   C30644526   7.568   7.038   1.529 -0.2229  0.6284 -1.4858
  111MOL   O30744527   7.495   6.934   1.575 -0.7603  0.3803  0.3185
  111MOL   C30844528   7.358   6.948   1.560 -1.0710 -0.0864 -0.6783
  111MOL   C30944529   7.692   7.004   1.479  0.1520  0.2977  0.5816
  111MOL   C31044530   7.778   7.094   1.415 -0.3286 -0.1257  0.5259
  111MOL   C31144531   7.966   7.361   1.434 -0.1683  0.0910 -0.5308
  111MOL   H31244532   7.792   7.432   1.367 -0.6524 -0.4201  1.1614
  111MOL   H31344533   7.602   7.371   1.476  0.7210 -0.0815  1.5942
  111MOL   H31444534   7.439   7.213   1.542 -0.1547 -0.3484 -1.4406
  111MOL   H31544535   7.310   7.021   1.625  0.3161  0.7528 -0.5870
  111MOL   H31644536   7.311   6.851   1.575  2.1162 -1.6588 -0.5381
  111MOL   H31744537   7.324   6.984   1.463 -0.5804  2.0445 -0.0883
  111MOL   H31844538   7.719   6.900   1.466  0.1011  0.4141 -0.5086
  111MOL   H31944539   7.868   7.062   1.364  0.4313  1.2456  0.9436
  111MOL   H32044540   8.020   7.441   1.383  2.7565 -0.3667  1.6649
  111MOL   H32144541   8.022   7.268   1.420 -2.0469 -1.2159  0.4477
  111MOL   C32244542   7.956   7.387   1.584 -0.9122  0.0139  0.1633
  111MOL   C32344543   7.887   7.524   1.609  0.5687 -0.1629 -0.1289
  111MOL   C32444544   7.771   7.532   1.686 -0.1375  0.0704  0.4161
  111MOL   C32544545   7.705   7.652   1.708 -0.0042 -0.6685  0.0647
  111MOL   C32644546   7.757   7.772   1.661  0.3285 -0.3657 -0.0962
  111MOL   O32744547   7.702   7.890   1.695 -0.2350  0.2044 -0.3064
  111MOL   C32844548   7.763   8.014   1.659  0.2696 -0.1404  0.0907
  111MOL   C32944549   7.874   7.765   1.579 -0.4749 -0.3565  0.2648
  111MOL   C33044550   7.939   7.644   1.553  0.0030  0.8301 -0.0706
  111MOL   C33144551   0.044   7.385   1.667 -0.5927  0.3905  0.4257
  111MOL   H33244552   7.887   7.317   1.630 -0.0415 -0.6712  0.4538
  111MOL   H33344553   7.734   7.436   1.717  0.8487 -0.7453 -0.8622
  111MOL   H33444554   7.612   7.653   1.763  0.5183  1.1289  0.9571
  111MOL   H33544555   7.701   0.053   1.702  0.2719  0.7470 -1.5114
  111MOL   H33644556   7.766   8.026   1.551 -2.7098 -1.8243 -0.2308
  111MOL   H33744557   7.861   8.033   1.705 -0.0996  0.1440  0.7635
  111MOL   H33844558   7.918   7.852   1.535  1.7601 -2.5564 -2.0236
  111MOL   H33944559   8.032   7.642   1.498  0.3927 -1.6979  0.6217
  111MOL   H34044560   0.114   7.466   1.648 -2.3104  1.6772 -0.5253
  111MOL   H34144561   0.017   7.402   1.771  0.5783 -1.9429  1.1482
  111MOL   C34244562   0.131   7.251   1.654 -0.5507 -0.9683  0.3486
  111MOL   C34344563   0.044   7.130   1.662  0.3630 -0.0614 -0.4041
  111MOL   C34444564   0.055   7.031   1.562 -0.1653  0.6727 -0.3707
  111MOL   C34544565   8.011   6.914   1.561 -0.0148 -0.1871  0.2406
  111MOL   C34644566   7.928   6.889   1.671  0.2841 -0.3691  0.1068
  111MOL   O34744567   7.852   6.773   1.669 -0.1509 -0.3601 -0.3383
  111MOL   C34844568   7.778   6.742   1.783  0.3248 -0.6614  0.3466
  111MOL   C34944569   7.925   6.984   1.776 -0.0465 -0.2600 -0.2217
  111MOL   C35044570   8.002   7.104   1.775 -1.2569 -0.0225  0.3246
  111MOL   C35144571   0.252   7.247   1.749  0.2436  0.1654  1.0505
  111MOL   H35244572   0.174   7.254   1.554  0.3580 -1.2066  0.7289
  111MOL   H35344573   0.117   7.056   1.477  0.1636 -0.7375 -0.5622
  111MOL   H35444574   8.015   6.843   1.479  0.8048 -0.3620  0.4244
  111MOL   H35544575   7.833   6.763   1.875  0.2290 -0.6467  0.4005
  111MOL   H35644576   7.687   6.802   1.785  0.7701  0.0138  0.5392
  111MOL   H35744577   7.755   6.636   1.795 -2.7465  0.1483  2.3164
  111MOL   H35844578   7.866   6.967   1.865  0.7701 -1.6338  0.0603
  111MOL   H35944579   8.013   7.164   1.864 -1.1563  0.0566  0.2593
  111MOL   H36044580   0.218   7.285   1.845 -1.7437 -1.5392  1.0504
  111MOL   H36144581   0.286   7.147   1.777  1.7421 -0.1917 -1.8308
  111MOL   C36244582   0.386   7.300   1.690  0.4427 -0.6362  0.4614
  111MOL   C36344583   0.439   7.218   1.577 -0.3158  0.0537  0.0037
  111MOL   C36444584   0.494   7.091   1.590  0.5205  0.1246  0.0427
  111MOL   C36544585   0.539   7.016   1.481 -0.2200 -0.5380  0.4499
  111MOL   C36644586   0.515   7.061   1.351 -0.5554  0.7542 -0.5944
  111MOL   O36744587   0.550   6.978   1.252  0.0949 -0.0204  0.4751
  111MOL   C36844588   0.505   7.009   1.116  0.6205 -0.7779 -0.1160
  111MOL   C36944589   0.450   7.186   1.331  0.2293  0.2005 -0.0991
  111MOL   C37044590   0.421   7.259   1.446  0.4612 -0.2346 -0.4103
  111MOL   C37144591   0.500   7.329   1.791  0.4551  0.0106 -0.5876
  111MOL   H37244592   0.365   7.397   1.644 -1.8667 -1.4925 -0.3532
  111MOL   H37344593   0.518   7.049   1.686 -0.7426  0.2340  0.4237
  111MOL   H37444594   0.587   6.920   1.496  0.4269 -0.7847 -2.8951
  111MOL   H37544595   0.539   6.933   1.046  0.3257 -1.2038  0.2044
  111MOL   H37644596   0.396   7.014   1.106  0.6963  1.4376 -0.1020
  111MOL   H37744597   0.539   7.103   1.072 -1.8137  0.3879  0.4056
  111MOL   H37844598   0.426   7.211   1.229  1.2998 -1.6717 -0.8371
  111MOL   H37944599   0.374   7.355   1.427  0.4319  0.3714  2.4685
  111MOL   H38044600   0.543   7.234   1.825  4.5569  2.5584  1.7380
  111MOL   H38144601   0.581   7.376   1.735  1.1418  0.3647  0.6775
  111MOL   C38244602   0.458   7.412   1.916  0.1036  0.3314  0.0852
  111MOL   C38344603   0.381   7.534   1.868  0.6233 -0.6715  0.2895
  111MOL   C38444604   0.243   7.547   1.912  0.0289  0.3266  0.0164
  111MOL   C38544605   0.166   7.652   1.861 -0.1963 -0.4339 -1.1605
  111MOL   C38644606   0.221   7.745   1.769  0.6234 -0.6370 -0.0287
  111MOL   O38744607   0.135   7.840   1.713 -0.2548  0.8434 -0.2205
  111MOL   C38844608   0.179   7.946   1.635  0.2045 -0.5892  0.0500
  111MOL   C38944609   0.355   7.732   1.735 -0.3027 -0.2238  0.0962
  111MOL   C39044610   0.433   7.627   1.785 -0.1607 -0.1062  0.1941
  111MOL   C39144611   0.590   7.454   1.989 -0.1155  0.6337 -0.1718
  111MOL   H39244612   0.394   7.356   1.985 -0.3122 -0.0527 -0.6047
  111MOL   H39344613   0.199   7.470   1.973  0.7461 -0.9189 -0.9999
  111MOL   H39444614   0.068   7.657   1.905 -0.4720  1.8598 -1.9293
  111MOL   H39544615   0.232   7.918   1.544  1.0944  1.8710 -0.2441
  111MOL   H39644616   0.247   8.002   1.699  0.5786  0.6212 -1.3820
  111MOL   H39744617   0.090   7.989   1.589  0.3154 -0.5293 -0.1081
  111MOL   H39844618   0.397   7.807   1.669 -4.0424  1.9908  0.1266
  111MOL   H39944619   0.534   7.613   1.749 -0.6310 -2.2834 -0.3897
  111MOL   H40044620   0.661   7.497   1.918 -1.1856 -0.1370 -1.7685
  111MOL   H40144621   0.635   7.366   2.035  1.7753  0.8091 -1.6140
  111MOL   H40244622   0.592   7.525   2.071  1.2352 -0.0076  0.3617
  112MOL     C144623   3.689   8.030   0.083 -0.4578  0.0390  0.5081
  112MOL     C244624   3.792   0.088   0.143  0.6444  0.7193  0.0027
  112MOL     C344625   3.754   0.213   0.195  0.5568 -0.2162  0.0402
  112MOL     C444626   3.845   0.305   0.246  0.4591 -0.2033  0.0790
  112MOL     C544627   3.989   0.276   0.232  0.1281 -0.2756 -0.0363
  112MOL     O644628   4.090   0.354   0.285  0.7672 -0.0808 -0.3562
  112MOL     C744629   4.048   0.480   0.336 -0.0037  0.4451 -0.2901
  112MOL     C844630   4.022   0.150   0.180 -0.0605 -0.4569 -0.1091
  112MOL     C944631   3.927   0.056   0.141 -0.0922  0.2412 -0.3746
  112MOL    C1044632   3.703   8.013   7.970 -0.0807  0.9627  0.0315
  112MOL    H1144633   3.593   0.040   0.096 -0.3065  1.0252 -1.9985
  112MOL    H1244634   3.649   0.238   0.201 -0.1841 -2.6956 -1.3260
  112MOL    H1344635   3.806   0.395   0.292  3.0164  0.9500  0.1195
  112MOL    H1444636   4.063   0.559   0.263 -0.1110  0.4998 -0.2532
  112MOL    H1544637   3.946   0.491   0.374 -0.0094  2.5001 -0.8440
  112MOL    H1644638   4.109   0.510   0.421  0.0083  1.2360 -0.5798
  112MOL    H1744639   4.123   0.116   0.197  0.3594 -1.4898 -4.1594
  112MOL    H1844640   3.966   8.005   0.097  0.6002  1.0895 -1.5495
  112MOL    H1944641   3.729   0.068   7.924 -2.2445  2.1290  1.1781
  112MOL    H2044642   3.794   7.959   7.943  0.5037  1.9703 -0.0302
  112MOL    H2144643   3.688   7.934   0.135  0.3071  0.6845  1.7407
  112MOL    C2244644   3.590   7.936   7.887 -0.4563  0.0869  0.4781
  112MOL    C2344645   3.620   7.936   7.733 -0.1847 -0.0129 -0.5706
  112MOL    C2444646   3.709   7.843   7.666  0.1804 -0.1074 -0.8608
  112MOL    C2544647   3.718   7.847   7.521 -0.0904  0.1913 -0.3710
  112MOL    C2644648   3.627   7.926   7.441  0.3290 -0.1881 -0.3248
  112MOL    O2744649   3.620   7.926   7.306 -0.2662  0.2981  0.1237
  112MOL    C2844650   3.715   7.863   7.231 -0.3695  0.2882 -0.9000
  112MOL    C2944651   3.530   8.004   7.510 -0.1075  0.3685  0.4212
  112MOL    C3044652   3.533   8.012   7.651  0.6919  0.0319 -0.4354
  112MOL    C3144653   3.554   7.796   7.932  0.7077  0.7819  0.1321
  112MOL    H3244654   3.505   8.000   7.912  1.3574  2.2892  1.1505
  112MOL    H3344655   3.781   7.783   7.718  1.6394  2.3566  0.0591
  112MOL    H3444656   3.796   7.785   7.479  0.0381 -0.9158  1.4412
  112MOL    H3544657   3.714   7.902   7.129  1.8986 -0.5476 -1.2737
  112MOL    H3644658   3.693   7.756   7.242 -0.5544  0.3837 -0.3083
  112MOL    H3744659   3.813   7.892   7.268 -1.0677  0.8229  0.5603
  112MOL    H3844660   3.455   0.018   7.454  0.8720  0.0134 -1.2632
  112MOL    H3944661   3.460   0.035   7.700 -0.2513 -1.8690  0.6277
  112MOL    H4044662   3.638   7.730   7.909  0.6545  0.3294  1.2408
  112MOL    H4144663   3.551   7.797   0.001  0.2490 -1.1185  0.1457
  112MOL    C4244664   3.419   7.743   7.885  0.6240  0.0710 -0.1139
  112MOL    C4344665   3.305   7.843   7.863  0.1447 -0.3999 -0.3946
  112MOL    C4444666   3.248   7.869   7.739 -0.1243 -0.2304 -0.0017
  112MOL    C4544667   3.138   7.954   7.722 -0.4630 -0.1004  0.0360
  112MOL    C4644668   3.085   8.014   7.839  0.4656 -0.1209  0.2549
  112MOL    O4744669   2.974   0.054   7.818 -0.0651  0.2648 -0.0025
  112MOL    C4844670   2.924   0.122   7.934  0.4610  0.3205  0.0187
  112MOL    C4944671   3.153   7.998   7.964 -0.8070  0.7388 -0.1936
  112MOL    C5044672   3.264   7.918   7.974 -0.5847  0.2735  0.3727
  112MOL    C5144673   3.378   7.615   7.971  0.1685 -0.7923 -0.7643
  112MOL    H5244674   3.454   7.723   7.784  1.9096 -1.7067  0.6581
  112MOL    H5344675   3.272   7.820   7.646  0.8665  0.8530 -0.3269
  112MOL    H5444676   3.094   7.974   7.625 -0.4723 -0.0918  0.0414
  112MOL    H5544677   2.890   0.059   8.016 -1.6361 -1.1333 -1.8856
  112MOL    H5644678   3.004   0.190   7.961 -0.5798  1.5381  0.0529
  112MOL    H5744679   2.834   0.172   7.896 -0.8581 -0.7472  1.6591
  112MOL    H5844680   3.120   0.002   0.017  0.3237  1.2683 -0.0256
  112MOL    H5944681   3.312   7.899   0.028  2.2175  0.9878 -0.8583
  112MOL    H6044682   3.306   7.653   0.004 -0.4687 -0.4821 -1.5418
  112MOL    H6144683   3.460   7.582   8.035 -0.3841 -0.0651  0.3322
  112MOL    C6244684   3.320   7.493   7.895  0.9281  0.3379  0.1791
  112MOL    C6344685   3.425   7.426   7.806 -0.2685 -0.1181  0.1053
  112MOL    C6444686   3.453   7.463   7.676  0.7129 -0.4841  1.1054
  112MOL    C6544687   3.537   7.387   7.596 -0.1285 -0.1844  0.5188
  112MOL    C6644688   3.606   7.287   7.654 -0.0485 -0.4800 -0.2625
  112MOL    O6744689   3.699   7.214   7.583 -0.0902  0.0097 -0.0667
  112MOL    C6844690   3.645   7.104   7.522 -0.9552 -0.1069 -0.1968
  112MOL    C6944691   3.588   7.244   7.782 -0.6075 -0.3032 -0.6515
  112MOL    C7044692   3.484   7.306   7.854  0.4116  0.3127 -0.0730
  112MOL    C7144693   3.182   7.520   7.825 -0.1866 -0.2290  0.0008
  112MOL    H7244694   3.300   7.418   7.972 -0.2114 -0.0231 -0.4632
  112MOL    H7344695   3.391   7.538   7.630  0.9253 -0.2898  1.1381
  112MOL    H7444696   3.569   7.409   7.495  1.6321 -1.3968  0.7775
  112MOL    H7544697   3.721   7.051   7.463 -0.8283  1.1502 -1.1818
  112MOL    H7644698   3.564   7.130   7.453 -0.5720  1.2434 -0.1463
  112MOL    H7744699   3.611   7.021   7.584 -2.0219  1.0124  0.7156
  112MOL    H7844700   3.645   7.172   7.840 -0.5080 -0.6615 -1.1803
  112MOL    H7944701   3.477   7.272   7.957 -0.7725  0.4699 -0.0915
  112MOL    H8044702   3.119   7.576   7.894 -0.2796  2.2682 -2.0462
  112MOL    H8144703   3.180   7.586   7.738 -1.0447 -0.0564  0.1434
  112MOL    C8244704   3.105   7.382   7.797 -0.5935 -0.4242 -0.3348
  112MOL    C8344705   3.027   7.332   7.914  0.4823  0.9476 -0.5167
  112MOL    C8444706   2.920   7.397   7.972  0.5120 -0.1003  0.4480
  112MOL    C8544707   2.841   7.352   0.041  0.1348  0.0435 -0.7013
  112MOL    C8644708   2.862   7.219   0.092 -0.1857 -0.3146 -0.3777
  112MOL    O8744709   2.788   7.153   0.182  0.7150  0.1874  0.5655
  112MOL    C8844710   2.737   7.235   0.290  0.5557  0.2919  0.1843
  112MOL    C8944711   2.962   7.145   0.026  0.4691  0.4820 -0.2442
  112MOL    C9044712   3.048   7.199   7.965 -0.3041  0.3099  0.2003
  112MOL    C9144713   3.022   7.387   7.667  0.1603 -0.3697  1.0150
  112MOL    H9244714   3.189   7.315   7.783 -0.3422 -0.0348 -0.7230
  112MOL    H9344715   2.894   7.498   7.943  0.0607 -0.0358  1.0735
  112MOL    H9444716   2.772   7.416   0.094  1.4603 -0.4258  1.7094
  112MOL    H9544717   2.818   7.283   0.345  0.4388  0.7771 -0.0647
  112MOL    H9644718   2.678   7.169   0.355 -2.4405  1.4773 -1.2547
  112MOL    H9744719   2.674   7.321   0.268  0.0242  0.1010  0.9337
  112MOL    H9844720   2.979   7.043   0.058 -0.5807  0.5381  0.5006
  112MOL    H9944721   3.131   7.145   7.923  0.5050 -0.1258  2.2811
  112MOL   H10044722   2.930   7.329   7.669 -1.6415  2.3443  0.0111
  112MOL   H10144723   2.984   7.489   7.652 -0.7291 -0.7428  0.6640
  112MOL   C10244724   3.108   7.344   7.552 -0.2710  0.2522  0.2525
  112MOL   C10344725   3.127   7.193   7.553  0.2669  0.4003  0.3797
  112MOL   C10444726   3.025   7.094   7.534  0.3270 -0.3677  0.5592
  112MOL   C10544727   3.048   6.961   7.552 -0.4578  0.8022  0.1508
  112MOL   C10644728   3.177   6.910   7.585 -0.0909 -0.0031  0.0340
  112MOL   O10744729   3.198   6.776   7.604  0.5587 -0.5336 -0.1293
  112MOL   C10844730   3.301   6.743   7.695  0.1003 -0.4811  0.0315
  112MOL   C10944731   3.282   7.006   7.601  0.0170  0.5115  0.1218
  112MOL   C11044732   3.259   7.146   7.580  0.8785 -0.2535  0.0413
  112MOL   C11144733   3.045   7.387   7.419  0.0137 -0.3136  0.5287
  112MOL   H11244734   3.205   7.394   7.551 -0.0508 -0.1733 -0.7161
  112MOL   H11344735   2.931   7.138   7.504  0.8784 -0.1261 -0.8703
  112MOL   H11444736   2.966   6.894   7.534 -1.8218  1.5804  3.1474
  112MOL   H11544737   3.282   6.638   7.714 -0.6708 -0.7514 -2.0841
  112MOL   H11644738   3.404   6.740   7.660 -0.6324 -1.7659 -2.1026
  112MOL   H11744739   3.284   6.793   7.791 -0.6703 -1.9637  0.6790
  112MOL   H11844740   3.383   6.974   7.620  1.4978  2.7522 -3.4038
  112MOL   H11944741   3.343   7.210   7.604  0.0499  1.0306 -0.3743
  112MOL   H12044742   2.939   7.360   7.421  0.3473 -1.7633 -0.7464
  112MOL   H12144743   3.051   7.495   7.410 -0.9608 -0.2551  0.4831
  112MOL   C12244744   3.113   7.341   7.286  0.0810  0.0783 -0.4523
  112MOL   C12344745   3.263   7.380   7.275  0.3259 -1.0481 -0.0996
  112MOL   C12444746   3.309   7.509   7.300 -0.1654 -0.3391  0.0612
  112MOL   C12544747   3.443   7.546   7.273 -0.0317  0.4044 -0.4166
  112MOL   C12644748   3.535   7.452   7.235  0.6453  0.1883  0.4946
  112MOL   O12744749   3.667   7.496   7.223  0.6818  0.1324 -0.2416
  112MOL   C12844750   3.760   7.391   7.205  0.9026  0.0781 -0.7410
  112MOL   C12944751   3.493   7.315   7.222 -0.1538 -0.0281  0.4185
  112MOL   C13044752   3.359   7.280   7.241  0.0278 -0.0139  0.1673
  112MOL   C13144753   3.025   7.389   7.169 -0.0276 -1.0608 -0.0623
  112MOL   H13244754   3.109   7.232   7.280 -1.8079  0.2154 -2.4104
  112MOL   H13344755   3.236   7.586   7.316  1.4322  1.3965 -0.7766
  112MOL   H13444756   3.477   7.647   7.288  2.7679 -0.8006  1.9112
  112MOL   H13544757   3.767   7.345   7.106  1.6690 -1.1761 -0.1075
  112MOL   H13644758   3.854   7.441   7.226 -0.5693  2.2121  1.0775
  112MOL   H13744759   3.761   7.331   7.295 -0.1604  2.3926  0.8641
  112MOL   H13844760   3.552   7.226   7.204 -1.2345 -0.8097  0.6813
  112MOL   H13944761   3.339   7.175   7.231 -0.6938  0.2360 -1.2080
  112MOL   H14044762   3.037   7.497   7.166 -0.4408 -1.0125 -0.0113
  112MOL   H14144763   2.921   7.360   7.178 -0.4288 -0.1188 -1.6270
  112MOL   C14244764   3.058   7.340   7.025 -0.5108 -0.1915 -0.6678
  112MOL   C14344765   3.029   7.194   7.015 -0.1726  0.0153 -0.2318
  112MOL   C14444766   3.134   7.110   6.977  0.5542 -0.3533 -0.0769
  112MOL   C14544767   3.119   6.972   6.946 -0.4376 -0.2205  0.0140
  112MOL   C14644768   2.992   6.916   6.955  0.1568  0.0150  0.5450
  112MOL   O14744769   2.988   6.785   6.925 -0.2267 -0.3720 -0.4768
  112MOL   C14844770   2.871   6.721   6.966 -0.1201 -0.6589 -0.1853
  112MOL   C14944771   2.882   7.005   6.988  0.5079 -0.3174 -0.0050
  112MOL   C15044772   2.901   7.134   7.029  0.0104 -0.8060  0.3608
  112MOL   C15144773   2.980   7.419   6.915 -0.3113  0.2455  0.1585
  112MOL   H15244774   3.160   7.372   7.006 -1.6621  2.7018 -2.2748
  112MOL   H15344775   3.232   7.152   6.966 -0.0351  1.5378  1.5937
  112MOL   H15444776   3.200   6.921   6.897  1.6546  2.0550  1.0010
  112MOL   H15544777   2.789   6.769   6.912  0.2406  1.3645  0.9834
  112MOL   H15644778   2.877   6.615   6.943  0.0627 -0.9035  0.9744
  112MOL   H15744779   2.850   6.734   7.072  0.8079 -0.3616 -0.0378
  112MOL   H15844780   2.782   6.963   6.996 -0.0068  0.9937  0.5392
  112MOL   H15944781   2.814   7.190   7.059  1.0695  0.2276  1.5290
  112MOL   H16044782   2.984   7.519   6.958  2.3097  0.9499 -1.6130
  112MOL   H16144783   2.873   7.403   6.915 -0.0632 -1.6105  1.1355
  112MOL   C16244784   3.032   7.407   6.774  0.3898  0.0451  0.6012
  112MOL   C16344785   2.996   7.537   6.689  0.1019 -1.2059 -0.3610
  112MOL   C16444786   3.099   7.608   6.620  0.3626  0.6025 -0.4464
  112MOL   C16544787   3.068   7.727   6.552  0.6355  0.3363 -0.1604
  112MOL   C16644788   2.931   7.769   6.540  0.3433  0.4563 -0.6051
  112MOL   O16744789   2.893   7.878   6.469  0.1027  0.4781 -0.2823
  112MOL   C16844790   2.993   7.961   6.414 -0.6457  0.9482  0.1445
  112MOL   C16944791   2.828   7.697   6.605  0.0964 -0.0847 -0.7265
  112MOL   C17044792   2.864   7.584   6.673 -0.6626  0.0962 -1.1275
  112MOL   C17144793   2.975   7.283   6.695 -0.7286 -0.1172  0.4612
  112MOL   H17244794   3.141   7.402   6.779  0.5262  0.6673 -1.0835
  112MOL   H17344795   3.199   7.569   6.623  0.3878  0.7813  1.2039
  112MOL   H17444796   3.156   7.778   6.516  0.4520 -1.0337 -2.6614
  112MOL   H17544797   2.942   8.030   6.347 -0.4238  1.0913  0.1228
  112MOL   H17644798   3.072   7.905   6.363 -1.1803 -0.1306  0.4841
  112MOL   H17744799   3.045   8.014   6.494 -0.4209 -0.7996  1.1879
  112MOL   H17844800   2.730   7.741   6.610 -0.1496 -0.8181  1.3807
  112MOL   H17944801   2.775   7.556   6.728 -0.8938  2.0954 -0.4423
  112MOL   H18044802   2.872   7.299   6.662 -0.3693 -1.8923 -1.6828
  112MOL   H18144803   2.956   7.191   6.750 -1.2098 -1.2626 -1.5484
  112MOL   C18244804   3.060   7.259   6.570 -0.8361 -0.2456  0.8242
  112MOL   C18344805   2.983   7.192   6.455  0.1598 -0.1088  0.0536
  112MOL   C18444806   2.909   7.275   6.366  0.2749 -0.0348 -0.7693
  112MOL   C18544807   2.830   7.218   6.265 -0.2485  0.0907  0.1835
  112MOL   C18644808   2.831   7.079   6.243 -0.4274  0.2504 -0.4736
  112MOL   O18744809   2.758   7.020   6.145  0.3074  0.1248  0.3232
  112MOL   C18844810   2.664   7.102   6.072  0.1885 -0.2655  0.3518
  112MOL   C18944811   2.902   7.002   6.339 -0.0070  0.1715  0.7847
  112MOL   C19044812   2.972   7.058   6.445 -0.3464 -0.4472 -0.2419
  112MOL   C19144813   3.186   7.182   6.613 -0.2572  0.1417 -0.1890
  112MOL   H19244814   3.079   7.349   6.511  1.8189 -1.1507  0.2562
  112MOL   H19344815   2.903   7.383   6.378 -0.3079 -0.0930 -0.4943
  112MOL   H19444816   2.786   7.294   6.202 -0.8342 -0.0978  0.3632
  112MOL   H19544817   2.636   7.054   5.978  0.4244  0.8046 -0.2791
  112MOL   H19644818   2.708   7.194   6.033 -0.1932 -1.0676 -2.0959
  112MOL   H19744819   2.585   7.139   6.136 -1.0387 -2.7488  0.3256
  112MOL   H19844820   2.902   6.894   6.327 -0.9253 -0.1320  3.1175
  112MOL   H19944821   3.021   6.993   6.517  1.5455 -1.3314 -2.2705
  112MOL   H20044822   3.227   7.231   6.702 -2.5413  2.5119 -0.4146
  112MOL   H20144823   3.153   7.086   6.653 -1.8070  0.8374  0.2173
  112MOL   C20244824   3.298   7.195   6.511 -0.6967  0.4287  0.6217
  112MOL   C20344825   3.403   7.082   6.534 -0.6321 -0.0303 -0.2603
  112MOL   C20444826   3.429   6.984   6.437  0.5720  0.1526 -0.7197
  112MOL   C20544827   3.536   6.893   6.462  0.1338 -0.1575  0.3188
  112MOL   C20644828   3.602   6.888   6.587  0.3041  0.0560  0.0109
  112MOL   O20744829   3.677   6.779   6.624 -0.6726  0.1999 -0.6814
  112MOL   C20844830   3.730   6.703   6.520  0.4840 -0.9855 -0.2559
  112MOL   C20944831   3.578   6.991   6.682 -0.7706  0.7374  0.4008
  112MOL   C21044832   3.470   7.082   6.660  0.3865 -1.0022 -0.1751
  112MOL   C21144833   3.363   7.330   6.488  0.4930  0.3314  0.5391
  112MOL   H21244834   3.259   7.169   6.412 -1.6399  1.4141  0.7246
  112MOL   H21344835   3.379   6.981   6.342  0.2739  2.7891 -0.6671
  112MOL   H21444836   3.552   6.820   6.385  1.0463  1.7115 -1.3005
  112MOL   H21544837   3.784   6.762   6.446 -1.7930  0.0043 -1.1737
  112MOL   H21644838   3.796   6.624   6.555  0.4598 -0.6035  0.6906
  112MOL   H21744839   3.647   6.650   6.474  0.6901 -1.4838 -0.0529
  112MOL   H21844840   3.636   6.990   6.773  1.0456 -1.5573 -0.7359
  112MOL   H21944841   3.439   7.150   6.737 -1.3395 -0.9273 -0.9212
  112MOL   H22044842   3.454   7.322   6.546  1.1714 -0.1281 -0.5687
  112MOL   H22144843   3.298   7.403   6.536 -1.4309  0.6881 -2.4332
  112MOL   C22244844   3.379   7.369   6.336 -0.4993 -0.0792  0.8283
  112MOL   C22344845   3.376   7.520   6.316  0.4712 -1.2972 -0.4434
  112MOL   C22444846   3.414   7.605   6.419 -0.2174  0.2586 -0.1786
  112MOL   C22544847   3.440   7.743   6.395  0.3265  0.4756  0.3433
  112MOL   C22644848   3.407   7.794   6.267  0.2637  0.1307 -0.2709
  112MOL   O22744849   3.420   7.931   6.241  0.4832 -0.5648  0.2008
  112MOL   C22844850   3.361   7.989   6.124 -0.1497 -0.6312 -0.3420
  112MOL   C22944851   3.365   7.706   6.165  0.0163 -0.7142 -0.7725
  112MOL   C23044852   3.352   7.569   6.191 -0.5391  0.0702  0.8587
  112MOL   C23144853   3.521   7.319   6.286  0.1097  0.1307 -0.1314
  112MOL   H23244854   3.293   7.329   6.282  1.1559  0.0369 -1.9794
  112MOL   H23344855   3.438   7.563   6.515  0.6237  2.1331  0.4630
  112MOL   H23444856   3.478   7.811   6.469  1.8443 -2.2402  2.1701
  112MOL   H23544857   3.254   7.972   6.128 -0.3537 -0.1236 -2.9689
  112MOL   H23644858   3.381   0.055   6.108 -0.1464 -0.4382  0.9070
  112MOL   H23744859   3.385   7.943   6.028 -0.3076  0.4691 -0.9140
  112MOL   H23844860   3.345   7.739   6.064 -0.6037  0.2298 -0.3461
  112MOL   H23944861   3.338   7.511   6.101 -2.8486  2.6034 -0.5178
  112MOL   H24044862   3.575   7.411   6.263  0.3441 -0.0281 -0.2116
  112MOL   H24144863   3.566   7.270   6.372 -0.0104  0.7795  0.3039
  112MOL   C24244864   3.532   7.220   6.164  0.2267  0.1184 -0.2846
  112MOL   C24344865   3.471   7.286   6.044  0.3978  0.7000 -0.2814
  112MOL   C24444866   3.355   7.242   5.988 -0.5047 -0.5777 -0.1928
  112MOL   C24544867   3.314   7.284   5.863  0.0707 -0.1285  0.1097
  112MOL   C24644868   3.377   7.398   5.799  0.6699  0.8563  0.3627
  112MOL   O24744869   3.337   7.453   5.680 -0.5595  0.7250 -0.1123
  112MOL   C24844870   3.214   7.414   5.623 -1.0327 -0.5823  0.3508
  112MOL   C24944871   3.485   7.459   5.866  0.3520  0.2415 -0.1531
  112MOL   C25044872   3.533   7.398   5.990 -0.1845 -0.5797 -0.0402
  112MOL   C25144873   3.670   7.166   6.130  0.7455  0.6852  0.3250
  112MOL   H25244874   3.467   7.136   6.190  1.3304 -0.1725  1.5756
  112MOL   H25344875   3.317   7.154   6.039  0.1330  0.4685  2.1795
  112MOL   H25444876   3.228   7.234   5.820  0.8176  1.0868 -2.8643
  112MOL   H25544877   3.182   7.460   5.529  2.3147  0.2176 -0.4433
  112MOL   H25644878   3.214   7.308   5.600 -1.3745 -0.6040  0.4456
  112MOL   H25744879   3.134   7.425   5.696 -1.5080 -2.8236  0.2152
  112MOL   H25844880   3.531   7.544   5.818  1.5773  0.8407  2.0267
  112MOL   H25944881   3.619   7.438   6.042 -1.5131  1.2857  0.7941
  112MOL   H26044882   3.714   7.129   6.222  0.2307  0.0556  0.3188
  112MOL   H26144883   3.731   7.249   6.095  0.0177  0.2033 -2.2183
  112MOL   C26244884   3.683   7.058   6.018 -0.0310  0.7942  0.1553
  112MOL   C26344885   3.650   6.921   6.070  0.1264  0.0979 -0.2358
  112MOL   C26444886   3.519   6.873   6.062  0.4796 -0.1556 -0.4056
  112MOL   C26544887   3.474   6.744   6.102  0.2450  0.3185  0.1756
  112MOL   C26644888   3.569   6.663   6.167  0.0452  0.1211  0.0228
  112MOL   O26744889   3.521   6.544   6.218  0.1241 -0.2094 -0.1153
  112MOL   C26844890   3.612   6.440   6.261  0.7656  0.1357  0.1417
  112MOL   C26944891   3.705   6.706   6.173  0.3312 -0.2368  0.1878
  112MOL   C27044892   3.747   6.830   6.117  0.1729  0.2806 -0.6250
  112MOL   C27144893   3.828   7.063   5.963  0.4873  0.6847 -0.0487
  112MOL   H27244894   3.617   7.089   5.937 -0.9911  2.9452  1.7261
  112MOL   H27344895   3.446   6.941   6.020  0.4384 -1.2713 -2.2076
  112MOL   H27444896   3.370   6.715   6.095  1.3334 -3.6385 -0.7031
  112MOL   H27544897   3.681   6.413   6.181  0.3342  2.6113 -1.1318
  112MOL   H27644898   3.545   6.355   6.266  1.4393 -0.4946 -1.2615
  112MOL   H27744899   3.651   6.463   6.360 -0.9596 -0.1897  0.9277
  112MOL   H27844900   3.784   6.648   6.218  0.5587  0.0936  0.2135
  112MOL   H27944901   3.853   6.848   6.112  0.1902  1.0419  1.8511
  112MOL   H28044902   3.898   7.090   6.042  0.6109 -3.4219  1.3587
  112MOL   H28144903   3.857   6.969   5.915  2.1283  0.1662  1.8672
  112MOL   C28244904   3.844   7.166   5.846  0.3312  0.3456 -0.3133
  112MOL   C28344905   3.758   7.145   5.721 -0.3205  0.3764 -0.4645
  112MOL   C28444906   3.681   7.251   5.669 -0.1520  0.9482 -0.3481
  112MOL   C28544907   3.592   7.224   5.557  0.5818 -0.2735 -0.2430
  112MOL   C28644908   3.601   7.099   5.486 -0.5315 -0.1570 -0.1402
  112MOL   O28744909   3.534   7.081   5.369  0.2368  0.1585  0.5255
  112MOL   C28844910   3.476   7.194   5.308  0.0477  1.1606 -0.6441
  112MOL   C28944911   3.684   6.996   5.538  0.1772  0.3198 -0.0640
  112MOL   C29044912   3.762   7.017   5.659  0.5505  0.0307  0.2821
  112MOL   C29144913   3.994   7.177   5.804 -0.6505 -0.8420  0.6668
  112MOL   H29244914   3.804   7.260   5.885  0.8774  1.8007 -3.1465
  112MOL   H29344915   3.688   7.348   5.714  1.0918  0.2079  1.0759
  112MOL   H29444916   3.531   7.308   5.528 -0.2272 -0.2794  1.4120
  112MOL   H29544917   3.428   7.178   5.211 -0.1231 -0.4465 -0.3056
  112MOL   H29644918   3.399   7.247   5.365 -0.8450  0.6376 -1.3415
  112MOL   H29744919   3.568   7.248   5.288  0.9891  0.8258  2.5755
  112MOL   H29844920   3.685   6.908   5.476 -0.3560  0.4803 -0.3007
  112MOL   H29944921   3.830   6.940   5.692 -0.1433 -1.0710 -0.8206
  112MOL   H30044922   4.043   7.139   5.893  0.2162 -0.6800  0.2615
  112MOL   H30144923   4.017   7.104   5.726  0.1837 -0.2786  0.3750
  112MOL   C30244924   4.055   7.325   5.786 -0.2900 -0.2656  0.2887
  112MOL   C30344925   3.994   7.411   5.901 -0.2336  0.3071 -0.4942
  112MOL   C30444926   4.054   7.404   6.026  0.2733 -0.4175  0.0867
  112MOL   C30544927   3.994   7.474   6.132  1.0110 -0.0722  0.2601
  112MOL   C30644928   3.883   7.559   6.109 -0.4156  0.2351 -0.2958
  112MOL   O30744929   3.833   7.632   6.214  0.2002 -0.3930 -0.4233
  112MOL   C30844930   3.721   7.707   6.200  0.0643 -0.2932  0.5234
  112MOL   C30944931   3.823   7.568   5.982 -0.6679  0.0294 -0.2172
  112MOL   C31044932   3.882   7.492   5.879 -0.7055 -0.8258  0.2348
  112MOL   C31144933   4.211   7.328   5.773  0.2731  0.0468 -0.9430
  112MOL   H31244934   4.005   7.368   5.699  0.3533 -0.1200 -0.0134
  112MOL   H31344935   4.144   7.346   6.039  0.8146  0.5587  0.7769
  112MOL   H31444936   4.027   7.467   6.234 -0.7313 -4.8222  0.6258
  112MOL   H31544937   3.650   7.626   6.189  0.8572 -0.9818  0.4789
  112MOL   H31644938   3.727   7.780   6.119  1.2385 -1.1077 -0.1405
  112MOL   H31744939   3.701   7.758   6.295  0.5561  1.2874 -0.1966
  112MOL   H31844940   3.732   7.623   5.964 -1.4695 -1.1454  0.1950
  112MOL   H31944941   3.840   7.489   5.780  2.1208 -0.7127 -0.9914
  112MOL   H32044942   4.260   7.273   5.852  1.7244  0.1209 -1.7734
  112MOL   H32144943   4.236   7.434   5.784 -1.4453  0.1455  2.7607
  112MOL   C32244944   4.276   7.278   5.645  0.3244  1.0724  0.8766
  112MOL   C32344945   4.392   7.183   5.669  0.1736 -0.0668  0.6833
  112MOL   C32444946   4.375   7.051   5.628 -0.0362  0.1094  0.0344
  112MOL   C32544947   4.472   6.958   5.675 -0.0483  0.4799  0.7999
  112MOL   C32644948   4.590   6.998   5.735  0.2071 -0.3063 -0.3388
  112MOL   O32744949   4.677   6.901   5.772 -0.1746 -0.1383 -0.6997
  112MOL   C32844950   4.810   6.934   5.799 -0.1120  0.6143 -0.7708
  112MOL   C32944951   4.616   7.140   5.746  0.1303  0.6388  0.4057
  112MOL   C33044952   4.511   7.227   5.721  0.0067 -0.4895 -0.0423
  112MOL   C33144953   4.330   7.395   5.563  0.0413  0.2694 -0.0338
  112MOL   H33244954   4.200   7.229   5.584  1.2591  0.4340  0.2062
  112MOL   H33344955   4.283   7.025   5.577  1.3704  2.8447 -4.1418
  112MOL   H33444956   4.463   6.851   5.661 -1.6799  0.6839  0.2249
  112MOL   H33544957   4.869   6.842   5.797  0.7530  1.1023  1.3698
  112MOL   H33644958   4.822   6.991   5.891 -1.8100  0.5929 -0.5181
  112MOL   H33744959   4.853   6.994   5.719  0.7247 -1.8666 -2.2418
  112MOL   H33844960   4.708   7.177   5.790  0.1363  0.3191  0.6655
  112MOL   H33944961   4.521   7.329   5.754 -0.4642  0.2635 -2.1455
  112MOL   H34044962   4.250   7.469   5.550  1.4378  1.7585 -0.3473
  112MOL   H34144963   4.404   7.451   5.620 -1.9939  2.1229  0.8742
  112MOL   C34244964   4.392   7.361   5.427  0.5130  0.2736 -0.3455
  112MOL   C34344965   4.503   7.465   5.390  0.7210  0.0104 -0.0735
  112MOL   C34444966   4.624   7.424   5.325 -0.7415 -0.2388  0.0793
  112MOL   C34544967   4.714   7.512   5.274  0.4337 -0.2187 -0.5071
  112MOL   C34644968   4.686   7.653   5.284  0.9640  0.4190  0.4104
  112MOL   O34744969   4.780   7.732   5.230  0.6414 -0.0942 -0.2993
  112MOL   C34844970   4.757   7.870   5.222  0.3382 -0.2789  0.7141
  112MOL   C34944971   4.569   7.701   5.351  0.0637  0.0151  0.2405
  112MOL   C35044972   4.476   7.604   5.401 -0.2746 -0.1993 -0.7835
  112MOL   C35144973   4.282   7.336   5.316 -0.6196  0.2324  0.3942
  112MOL   H35244974   4.446   7.268   5.444 -1.0614 -0.4795  0.6093
  112MOL   H35344975   4.643   7.319   5.307 -0.9908 -0.8320  3.0713
  112MOL   H35444976   4.805   7.487   5.221  0.8794 -2.7814  1.4034
  112MOL   H35544977   4.830   7.920   5.159 -0.7609 -0.2355 -0.5341
  112MOL   H35644978   4.666   7.880   5.162  0.9216 -0.8456 -0.2770
  112MOL   H35744979   4.763   7.907   5.325 -0.7002 -3.7459  2.0953
  112MOL   H35844980   4.556   7.807   5.368 -0.4531  0.4470 -2.5929
  112MOL   H35944981   4.383   7.641   5.440  0.4387 -0.3077  1.0453
  112MOL   H36044982   4.331   7.280   5.237  0.1937  0.5829  0.6503
  112MOL   H36144983   4.206   7.266   5.352 -1.3854 -0.8499 -3.1687
  112MOL   C36244984   4.208   7.467   5.256 -0.2541 -0.5436 -0.4041
  112MOL   C36344985   4.102   7.523   5.355 -0.2333 -0.3995 -0.1284
  112MOL   C36444986   4.113   7.658   5.400 -0.1040 -0.5953  0.4843
  112MOL   C36544987   4.010   7.709   5.483 -0.8506 -0.6313 -0.3040
  112MOL   C36644988   3.898   7.637   5.517  0.2424 -0.1332  0.3285
  112MOL   O36744989   3.786   7.688   5.579 -0.8481  0.1705 -0.1435
  112MOL   C36844990   3.801   7.804   5.652 -0.7777  0.4453 -0.1154
  112MOL   C36944991   3.893   7.503   5.483  0.3884 -0.0900  0.5594
  112MOL   C37044992   3.987   7.448   5.389  0.1796  0.0962 -0.1155
  112MOL   C37144993   4.138   7.445   5.117  0.2426 -0.1552 -0.7637
  112MOL   H37244994   4.286   7.541   5.235  1.3737 -1.6194  1.6614
  112MOL   H37344995   4.198   7.719   5.374 -0.3441 -0.2992  0.3880
  112MOL   H37444996   4.027   7.813   5.506 -1.7048 -0.7261  0.7984
  112MOL   H37544997   3.893   7.795   5.710 -1.5457 -0.3633  1.0063
  112MOL   H37644998   3.798   7.889   5.583 -2.0015 -0.4343 -1.1526
  112MOL   H37744999   3.719   7.812   5.723  0.8555 -0.8251  1.9796
  112MOL   H37845000   3.802   7.445   5.485  1.4125 -1.8117 -1.0765
  112MOL   H37945001   3.973   7.347   5.353 -0.6264 -0.9530  3.0046
  112MOL   H38045002   4.091   7.347   5.129  0.6197 -0.0346  2.0836
  112MOL   H38145003   4.064   7.517   5.082  0.2775  0.1529 -0.2059
  112MOL   C38245004   4.241   7.435   4.998 -0.1522 -0.4703 -0.2730
  112MOL   C38345005   4.294   7.573   4.977 -0.4171  0.3473  0.4673
  112MOL   C38445006   4.221   7.679   4.915 -0.3836  0.6997 -0.8681
  112MOL   C38545007   4.279   7.811   4.903  0.0933 -0.4785  0.0301
  112MOL   C38645008   4.408   7.835   4.953  0.2028 -0.1817 -0.5071
  112MOL   O38745009   4.475   7.951   4.939 -0.7129  0.2293  1.0892
  112MOL   C38845010   4.409   0.026   4.881 -0.9065  0.4419 -0.2169
  112MOL   C38945011   4.485   7.727   5.005  0.1206 -0.0158 -0.4014
  112MOL   C39045012   4.424   7.600   5.015 -0.2109  0.3012  0.3534
  112MOL   C39145013   4.185   7.378   4.868  0.4633  0.1087  0.1185
  112MOL   H39245014   4.312   7.357   5.028  0.3756 -0.8048 -2.3089
  112MOL   H39345015   4.118   7.664   4.887 -0.4223  0.4227 -0.5761
  112MOL   H39445016   4.225   7.887   4.848 -0.5532 -2.7898 -2.6626
  112MOL   H39545017   4.385   8.035   4.779  1.9088 -1.5880 -0.3383
  112MOL   H39645018   4.488   0.101   4.876  0.5143 -0.9992 -0.1608
  112MOL   H39745019   4.319   0.053   4.935 -1.1196  1.6206 -1.1553
  112MOL   H39845020   4.583   7.743   5.046  0.6044  0.7717 -1.8399
  112MOL   H39945021   4.479   7.526   5.072 -0.8303 -1.1198 -0.8601
  112MOL   H40045022   4.112   7.446   4.825  1.5488  0.3112 -1.4560
  112MOL   H40145023   4.137   7.283   4.889  1.9480 -0.2151  2.2395
  112MOL   H40245024   4.262   7.360   4.793 -0.5846  1.4190 -1.2978
  113MOL     C145025   3.016   1.741   5.704  0.3267  0.2174 -0.2259
  113MOL     C245026   3.029   1.590   5.724  0.4918 -1.3024 -0.0722
  113MOL     C345027   3.145   1.519   5.754 -0.8765  0.4923  0.7330
  113MOL     C445028   3.146   1.380   5.765 -0.4126  0.2036 -0.4682
  113MOL     C545029   3.027   1.309   5.764  0.4410  0.1722 -0.5613
  113MOL     O645030   3.036   1.171   5.793 -0.4587 -0.2098 -0.0769
  113MOL     C745031   2.927   1.091   5.780  0.1235  0.3959  0.4651
  113MOL     C845032   2.908   1.373   5.725  0.1403 -0.2643 -0.0857
  113MOL     C945033   2.913   1.515   5.704 -0.3979 -0.1007  0.1455
  113MOL    C1045034   2.982   1.787   5.559 -0.0433  0.2476 -0.1600
  113MOL    H1145035   3.110   1.783   5.739 -0.0232 -0.0077  0.9920
  113MOL    H1245036   3.231   1.584   5.763 -1.1170  1.2299 -1.9374
  113MOL    H1345037   3.238   1.330   5.794 -0.7041  1.5043  2.9382
  113MOL    H1445038   2.838   1.131   5.826  0.0901 -0.2670  0.9835
  113MOL    H1545039   2.909   1.067   5.675 -0.8554  0.3350  0.6501
  113MOL    H1645040   2.950   1.005   5.842  1.2680  2.6180  3.2129
  113MOL    H1745041   2.816   1.317   5.713  0.4618 -0.8130 -0.0021
  113MOL    H1845042   2.821   1.566   5.681  0.5501  0.8760 -1.5723
  113MOL    H1945043   3.069   1.770   5.496 -0.2289  0.8199 -0.5709
  113MOL    H2045044   2.898   1.729   5.521 -0.0787 -1.0940  1.8876
  113MOL    H2145045   2.937   1.781   5.767  0.4927  0.8937 -0.4481
  113MOL    C2245046   2.937   1.934   5.550 -0.3022  0.4360  0.4445
  113MOL    C2345047   3.057   2.022   5.589 -0.2961  0.1997 -0.1014
  113MOL    C2445048   3.039   2.127   5.687  0.5777  0.5096  0.0492
  113MOL    C2545049   3.152   2.212   5.723  0.2601 -0.3670  0.1127
  113MOL    C2645050   3.277   2.204   5.654  0.2255 -0.1518  0.6732
  113MOL    O2745051   3.365   2.298   5.691 -0.4171 -0.8852 -0.1869
  113MOL    C2845052   3.492   2.307   5.625  0.3735  0.0781  0.0893
  113MOL    C2945053   3.285   2.110   5.547  0.2256 -0.2004 -0.9931
  113MOL    C3045054   3.176   2.023   5.511 -0.1845 -0.7463  0.0857
  113MOL    C3145055   2.878   1.974   5.409 -0.3351 -0.6618  0.1051
  113MOL    H3245056   2.858   1.946   5.624 -0.9101  1.0603 -0.2940
  113MOL    H3345057   2.935   2.140   5.715  0.2248 -0.4762 -0.7565
  113MOL    H3445058   3.138   2.293   5.793 -0.8515  0.0638 -0.5901
  113MOL    H3545059   3.478   2.320   5.517  0.8810  1.4295  0.1773
  113MOL    H3645060   3.545   2.215   5.652  2.1097  1.4235  1.3383
  113MOL    H3745061   3.553   2.392   5.654  0.1583 -0.4656  2.2147
  113MOL    H3845062   3.364   2.109   5.473 -0.1571 -0.3687 -1.4057
  113MOL    H3945063   3.171   1.946   5.436 -1.7371 -0.5620 -0.0076
  113MOL    H4045064   2.966   1.981   5.346 -0.8087  0.7377 -0.4300
  113MOL    H4145065   2.822   1.889   5.368  1.3120 -0.9502 -1.6003
  113MOL    C4245066   2.802   2.105   5.400 -0.8687  0.2317  0.7321
  113MOL    C4345067   2.676   2.101   5.484 -0.7555 -0.5436 -0.1561
  113MOL    C4445068   2.663   2.178   5.600 -0.5341 -0.5439  0.0220
  113MOL    C4545069   2.540   2.176   5.668 -0.7608 -0.3496 -0.4223
  113MOL    C4645070   2.434   2.100   5.620  0.0070  0.1483 -0.5633
  113MOL    O4745071   2.311   2.094   5.679  0.6580  0.2861 -0.2009
  113MOL    C4845072   2.265   2.221   5.717 -0.0497  0.0884  0.0653
  113MOL    C4945073   2.449   2.015   5.514  0.4061 -1.1149 -0.0960
  113MOL    C5045074   2.570   2.017   5.440  0.0236  0.6279  0.8603
  113MOL    C5145075   2.774   2.155   5.258  0.0174 -0.6786  0.4412
  113MOL    H5245076   2.867   2.177   5.450  0.5475 -0.6200  0.1553
  113MOL    H5345077   2.743   2.241   5.635 -1.3762  1.0568 -0.8813
  113MOL    H5445078   2.529   2.236   5.758 -0.5126  0.0833 -0.6769
  113MOL    H5545079   2.291   2.251   5.819 -0.2264  1.4010 -0.2625
  113MOL    H5645080   2.304   2.288   5.641  1.5348 -0.6687  0.1942
  113MOL    H5745081   2.158   2.241   5.707  0.2969  2.1077  0.1103
  113MOL    H5845082   2.369   1.959   5.468  0.9788 -2.3818  0.4276
  113MOL    H5945083   2.585   1.961   5.349 -0.3555  2.8531 -0.6083
  113MOL    H6045084   2.678   2.205   5.260  0.9420  1.2637 -1.6982
  113MOL    H6145085   2.770   2.069   5.191  1.3090  0.4391 -1.1158
  113MOL    C6245086   2.871   2.265   5.212  0.2023 -0.1666 -0.3662
  113MOL    C6345087   2.873   2.382   5.309  0.1690 -0.3010 -0.4406
  113MOL    C6445088   2.754   2.455   5.326 -0.4734  0.2021 -0.4173
  113MOL    C6545089   2.745   2.550   5.433 -0.1955  0.9012 -0.3997
  113MOL    C6645090   2.854   2.594   5.513  0.0272 -0.5852 -0.6027
  113MOL    O6745091   2.855   2.697   5.603 -0.1601 -0.4526 -0.0889
  113MOL    C6845092   2.732   2.767   5.616 -0.6639  0.4063 -0.7190
  113MOL    C6945093   2.975   2.537   5.479 -0.3573  0.4608 -0.4252
  113MOL    C7045094   2.989   2.426   5.386 -0.5180  0.1640  0.9094
  113MOL    C7145095   2.837   2.297   5.069 -0.5503  0.6199 -0.1898
  113MOL    H7245096   2.969   2.219   5.227  0.8368  1.9623  2.4478
  113MOL    H7345097   2.665   2.416   5.279 -1.7474  0.8355  1.4092
  113MOL    H7445098   2.653   2.606   5.441 -0.2018  0.8495 -0.0994
  113MOL    H7545099   2.654   2.708   5.664  1.3512  0.9583  3.5136
  113MOL    H7645100   2.706   2.803   5.517 -0.4552 -0.4838 -1.1061
  113MOL    H7745101   2.761   2.855   5.673  0.0441  1.2723 -2.3808
  113MOL    H7845102   3.055   2.577   5.539 -0.2540  0.1937 -0.3881
  113MOL    H7945103   3.089   2.391   5.366 -0.2242  0.5406  1.6756
  113MOL    H8045104   2.830   2.205   5.012  0.0278  0.7726 -0.5098
  113MOL    H8145105   2.734   2.332   5.069 -1.2901 -1.5049 -1.7352
  113MOL    C8245106   2.924   2.405   4.998  0.2744 -0.0133  0.2713
  113MOL    C8345107   3.068   2.359   4.975  0.3589 -0.6339  0.2493
  113MOL    C8445108   3.170   2.454   4.999 -0.4300 -0.1546 -0.2979
  113MOL    C8545109   3.309   2.410   4.999 -0.3883 -0.5836  0.5846
  113MOL    C8645110   3.341   2.279   4.960 -0.7445  0.4899 -0.0075
  113MOL    O8745111   3.476   2.244   4.953 -0.1490 -0.4468 -0.6252
  113MOL    C8845112   3.511   2.145   4.857 -0.9780  0.0983  0.2018
  113MOL    C8945113   3.236   2.194   4.923  0.2927  0.1775  0.6266
  113MOL    C9045114   3.101   2.227   4.931  0.2058 -0.5526 -0.2143
  113MOL    C9145115   2.866   2.467   4.865  0.3462 -0.4103  0.5558
  113MOL    H9245116   2.928   2.488   5.068  1.6570  1.6284 -1.7210
  113MOL    H9345117   3.140   2.554   5.026  0.6286  0.3855 -1.0731
  113MOL    H9445118   3.390   2.480   5.015 -0.8128 -0.6352  3.0988
  113MOL    H9545119   3.479   2.045   4.886 -0.3244 -0.0886  0.2768
  113MOL    H9645120   3.619   2.152   4.852 -0.9685  1.4496  1.9132
  113MOL    H9745121   3.462   2.164   4.762 -1.9288 -0.1795  0.6290
  113MOL    H9845122   3.255   2.089   4.906  2.7972  0.6623  0.3652
  113MOL    H9945123   3.025   2.156   4.901 -0.9458  1.4873 -2.2556
  113MOL   H10045124   2.774   2.515   4.900  0.1078 -0.0863 -0.4992
  113MOL   H10145125   2.926   2.550   4.826 -0.1940 -0.3383 -0.1242
  113MOL   C10245126   2.840   2.360   4.752 -0.1188  0.1230  0.9276
  113MOL   C10345127   2.706   2.393   4.681 -0.2075  0.2875 -0.5535
  113MOL   C10445128   2.697   2.507   4.597 -0.3193 -0.5681 -0.4433
  113MOL   C10545129   2.566   2.540   4.541 -0.2374 -0.0971 -0.5387
  113MOL   C10645130   2.453   2.461   4.574  0.3042  0.1165 -0.2673
  113MOL   O10745131   2.335   2.508   4.527  0.3671 -0.0673  0.2856
  113MOL   C10845132   2.213   2.443   4.560 -0.5816 -0.0868 -0.2027
  113MOL   C10945133   2.461   2.346   4.661 -0.5797 -0.9310  0.3096
  113MOL   C11045134   2.587   2.316   4.708 -0.5360 -0.2157 -0.1254
  113MOL   C11145135   2.950   2.351   4.646 -1.1243 -0.5517  0.4666
  113MOL   H11245136   2.824   2.259   4.791  3.9240  0.1294  2.8593
  113MOL   H11345137   2.781   2.567   4.564 -0.8620  0.0959 -0.6486
  113MOL   H11445138   2.550   2.625   4.476 -1.4735  0.1649  0.0897
  113MOL   H11545139   2.210   2.338   4.530  1.3954 -0.3518  0.4015
  113MOL   H11645140   2.187   2.464   4.664  0.3595  1.5357 -0.2686
  113MOL   H11745141   2.127   2.483   4.506  0.7512  0.1167 -2.2347
  113MOL   H11845142   2.378   2.286   4.695  1.1252 -1.9396  2.8537
  113MOL   H11945143   2.608   2.231   4.772 -0.3886  0.0122  0.1334
  113MOL   H12045144   2.971   2.448   4.601 -4.0910  0.1551  0.5012
  113MOL   H12145145   3.039   2.341   4.709  0.3373  3.0189 -0.8629
  113MOL   C12245146   2.929   2.241   4.538  0.5138  0.1298 -0.0354
  113MOL   C12345147   3.050   2.148   4.550  0.5602 -0.3095 -0.0784
  113MOL   C12445148   3.040   2.030   4.624  0.4397  0.0321  0.5969
  113MOL   C12545149   3.153   1.945   4.644 -1.0098  0.4877 -0.0721
  113MOL   C12645150   3.276   1.977   4.577  0.0683 -0.6647 -0.0614
  113MOL   O12745151   3.379   1.897   4.620 -0.4112 -0.0839  0.0749
  113MOL   C12845152   3.516   1.917   4.576  0.8306 -0.1835  0.0887
  113MOL   C12945153   3.281   2.087   4.493 -0.3734  1.1335 -0.3138
  113MOL   C13045154   3.172   2.175   4.484  0.8227  0.0048 -0.0719
  113MOL   C13145155   2.897   2.284   4.396  0.6667 -0.1116  0.1056
  113MOL   H13245156   2.846   2.182   4.575 -0.3245  0.8008 -0.8157
  113MOL   H13345157   2.945   2.012   4.673  0.4477 -3.2305 -0.4793
  113MOL   H13445158   3.153   1.856   4.705 -2.6509  0.6869  0.2478
  113MOL   H13545159   3.517   1.974   4.483  0.0208 -1.1744 -0.5411
  113MOL   H13645160   3.563   1.990   4.641 -0.9520  0.8828  0.2075
  113MOL   H13745161   3.574   1.824   4.571 -0.1608 -0.8552  0.8477
  113MOL   H13845162   3.376   2.118   4.450  0.2902 -1.4327 -0.7908
  113MOL   H13945163   3.191   2.267   4.430 -0.9804  0.8003  0.6295
  113MOL   H14045164   2.986   2.330   4.354  0.7710 -1.9187 -1.7149
  113MOL   H14145165   2.819   2.360   4.397  0.3841 -0.3885  2.0621
  113MOL   C14245166   2.858   2.172   4.292  0.5800  0.0542  0.1337
  113MOL   C14345167   2.747   2.079   4.349  0.0087  0.0664  0.6560
  113MOL   C14445168   2.762   1.938   4.328 -0.5162 -0.3620  0.2150
  113MOL   C14545169   2.661   1.847   4.371 -0.0308 -0.6552 -0.1316
  113MOL   C14645170   2.549   1.904   4.441 -0.8888 -0.4316  0.3880
  113MOL   O14745171   2.454   1.821   4.502 -0.1836 -0.0057  0.3872
  113MOL   C14845172   2.462   1.678   4.488 -0.0122 -0.2002  0.2811
  113MOL   C14945173   2.529   2.044   4.454 -0.2994  0.0836  0.7009
  113MOL   C15045174   2.634   2.129   4.407  1.2208  0.4683 -0.0897
  113MOL   C15145175   2.807   2.224   4.156  0.2602  0.0377  1.0604
  113MOL   H15245176   2.950   2.115   4.285 -0.0010 -0.6096 -2.5141
  113MOL   H15345177   2.852   1.903   4.280  1.5919  2.7416  1.7276
  113MOL   H15445178   2.668   1.746   4.332  0.8897 -0.0651 -1.5330
  113MOL   H15545179   2.555   1.625   4.506  1.1753  1.0089 -2.0961
  113MOL   H15645180   2.382   1.639   4.551 -0.8035  0.8963 -0.0399
  113MOL   H15745181   2.434   1.660   4.384  1.1291  0.5512 -0.1574
  113MOL   H15845182   2.434   2.084   4.484 -0.1879 -1.1414  2.7679
  113MOL   H15945183   2.615   2.235   4.404  1.9934  0.5937 -0.7851
  113MOL   H16045184   2.733   2.300   4.179 -0.4430 -1.2642  3.2825
  113MOL   H16145185   2.751   2.141   4.111  1.0076  1.1910 -2.1517
  113MOL   C16245186   2.919   2.273   4.058 -0.3599  0.1696  0.5651
  113MOL   C16345187   2.981   2.397   4.112 -0.5478 -0.1703 -0.1818
  113MOL   C16445188   3.120   2.400   4.146  0.7826  0.7958 -0.0876
  113MOL   C16545189   3.179   2.512   4.207  0.1746  0.9818  0.4043
  113MOL   C16645190   3.098   2.617   4.249 -0.8322 -0.0429 -0.1448
  113MOL   O16745191   3.161   2.706   4.329  0.1519  0.2926 -0.0041
  113MOL   C16845192   3.083   2.817   4.371 -0.0085 -0.4016 -0.1148
  113MOL   C16945193   2.964   2.623   4.204 -0.2723 -0.0799  0.0602
  113MOL   C17045194   2.907   2.517   4.131 -0.3242  0.9025 -0.2514
  113MOL   C17145195   2.863   2.307   3.914  0.0895 -0.0890  0.4268
  113MOL   H17245196   2.993   2.193   4.053  2.5018  2.7115  0.2475
  113MOL   H17345197   3.179   2.314   4.119 -1.3973 -0.8914  0.3860
  113MOL   H17445198   3.280   2.506   4.244  0.6969  0.4904 -1.0694
  113MOL   H17545199   3.143   2.884   4.432  1.9678 -0.2290 -2.1898
  113MOL   H17645200   2.994   2.789   4.427 -2.0205  1.8646 -2.0518
  113MOL   H17745201   3.042   2.874   4.288 -0.3548 -0.7332 -0.1774
  113MOL   H17845202   2.905   2.713   4.218  2.2396  1.3671  1.8248
  113MOL   H17945203   2.801   2.523   4.115 -0.1180 -0.5232 -2.3328
  113MOL   H18045204   2.942   2.358   3.858 -1.2795 -0.2598 -1.7001
  113MOL   H18145205   2.780   2.378   3.912  0.6933  0.6202  0.0445
  113MOL   C18245206   2.818   2.183   3.834  0.3074  0.5194  0.0030
  113MOL   C18345207   2.945   2.119   3.771 -0.3697  0.0861 -0.5052
  113MOL   C18445208   3.002   2.012   3.835 -0.1475  0.6073 -0.2453
  113MOL   C18545209   3.105   1.935   3.770  0.6032 -0.0072 -0.1561
  113MOL   C18645210   3.169   1.981   3.656  0.2849 -0.2284  0.3963
  113MOL   O18745211   3.279   1.912   3.627 -0.3593  0.4640  0.3354
  113MOL   C18845212   3.324   1.946   3.497 -0.3317  0.5135  0.7558
  113MOL   C18945213   3.121   2.102   3.600 -0.9481  0.3393  0.0741
  113MOL   C19045214   3.008   2.166   3.659 -0.3222 -0.1072  0.4750
  113MOL   C19145215   2.716   2.225   3.730 -0.4255 -0.7204 -0.5821
  113MOL   H19245216   2.772   2.106   3.896  0.0352 -0.5343 -1.4926
  113MOL   H19345217   2.973   1.977   3.933 -0.3308 -2.0432 -1.1870
  113MOL   H19445218   3.126   1.839   3.816 -1.6289 -0.0208  0.8868
  113MOL   H19545219   3.410   1.880   3.487 -0.4539  0.7356 -2.3427
  113MOL   H19645220   3.355   2.048   3.476 -2.8431  0.7910 -1.9949
  113MOL   H19745221   3.252   1.915   3.420  1.4968 -0.4133 -0.6331
  113MOL   H19845222   3.168   2.141   3.512  0.3849 -0.3213  0.4757
  113MOL   H19945223   2.982   2.255   3.604  1.2827  0.4692  0.6315
  113MOL   H20045224   2.628   2.244   3.792  0.4644  2.9147 -0.3222
  113MOL   H20145225   2.735   2.325   3.691 -1.8857 -0.3700 -0.4386
  113MOL   C20245226   2.680   2.137   3.619  0.6716  0.0662 -0.8553
  113MOL   C20345227   2.571   2.199   3.531  0.4625 -0.1235  0.3195
  113MOL   C20445228   2.453   2.256   3.580 -1.1077  0.2104 -0.0123
  113MOL   C20545229   2.351   2.296   3.498 -0.0790  0.2679  0.5082
  113MOL   C20645230   2.360   2.284   3.362 -0.2896  0.3127  0.5261
  113MOL   O20745231   2.268   2.326   3.274 -0.2699  0.0262 -0.2172
  113MOL   C20845232   2.143   2.379   3.327  0.1485  0.2017  0.5031
  113MOL   C20945233   2.479   2.246   3.308  0.4140 -0.3293  0.1178
  113MOL   C21045234   2.588   2.203   3.389  0.2974 -0.4405  0.6293
  113MOL   C21145235   2.631   1.999   3.667 -0.4221  0.5802 -1.0119
  113MOL   H21245236   2.768   2.115   3.559 -0.7848  0.0650 -3.0698
  113MOL   H21345237   2.427   2.262   3.685  1.4624  0.5662  0.6345
  113MOL   H21445238   2.255   2.330   3.535 -0.2367 -0.1981  0.5267
  113MOL   H21545239   2.183   2.469   3.376  1.1864 -0.0456  0.1229
  113MOL   H21645240   2.074   2.407   3.248 -1.4636 -1.5028  1.2614
  113MOL   H21745241   2.094   2.310   3.396  1.5029 -1.3818 -0.0746
  113MOL   H21845242   2.478   2.241   3.200 -0.0305 -3.1389  0.2078
  113MOL   H21945243   2.683   2.182   3.344 -0.0268  0.3319 -0.4503
  113MOL   H22045244   2.541   2.012   3.728  1.1986 -0.8617  1.8407
  113MOL   H22145245   2.702   1.969   3.744 -1.6874 -2.3021 -0.8835
  113MOL   C22245246   2.621   1.889   3.556 -0.3693  0.5581  0.4234
  113MOL   C22345247   2.753   1.833   3.512 -0.3160  0.3046 -0.1014
  113MOL   C22445248   2.822   1.739   3.590 -0.0613 -0.2925  0.2341
  113MOL   C22545249   2.947   1.700   3.555  0.2009 -0.4173  0.0264
  113MOL   C22645250   3.001   1.745   3.434 -0.1178  0.3706  0.6169
  113MOL   O22745251   3.125   1.693   3.391 -0.0469  0.4840 -0.2647
  113MOL   C22845252   3.205   1.616   3.482 -0.3000  0.2464  0.3378
  113MOL   C22945253   2.922   1.824   3.345 -0.2255 -0.4925  0.3172
  113MOL   C23045254   2.791   1.868   3.383  0.2432  0.0988  0.2034
  113MOL   C23145255   2.519   1.785   3.614 -0.4280  0.0036  0.0996
  113MOL   H23245256   2.558   1.931   3.477 -2.1504 -1.9587  0.4720
  113MOL   H23345257   2.775   1.689   3.674  0.0108 -0.7440  0.0083
  113MOL   H23445258   3.002   1.633   3.619 -2.7536 -1.1551  1.9252
  113MOL   H23545259   3.148   1.526   3.503 -0.8379  0.3027 -0.8229
  113MOL   H23645260   3.304   1.588   3.447  0.2675 -1.0822  2.8495
  113MOL   H23745261   3.227   1.673   3.573 -0.9219  1.2090 -0.1065
  113MOL   H23845262   2.957   1.856   3.248 -0.4785 -0.2996  0.2883
  113MOL   H23945263   2.726   1.931   3.323  1.2845  0.0118 -1.0387
  113MOL   H24045264   2.525   1.697   3.549  2.5658 -0.8083  1.3769
  113MOL   H24145265   2.561   1.759   3.711 -1.6225 -0.9502  0.3784
  113MOL   C24245266   2.373   1.839   3.613  0.7803 -0.0018 -0.5331
  113MOL   C24345267   2.289   1.789   3.489  0.5600 -0.1356 -0.4714
  113MOL   C24445268   2.262   1.652   3.472 -0.2654  0.7620  0.6216
  113MOL   C24545269   2.169   1.614   3.382  0.7799 -0.4656  0.5279
  113MOL   C24645270   2.097   1.700   3.297 -0.5740  0.5626  0.7315
  113MOL   O24745271   2.011   1.667   3.191  0.1965 -0.1932  0.8594
  113MOL   C24845272   1.992   1.527   3.173 -0.7140 -0.2807 -0.1389
  113MOL   C24945273   2.122   1.839   3.324 -0.2075  0.3425  0.6934
  113MOL   C25045274   2.225   1.884   3.409 -0.0156 -0.3606  0.1491
  113MOL   C25145275   2.303   1.787   3.738  0.1150  0.5448 -0.3964
  113MOL   H25245276   2.371   1.947   3.621  2.8146 -0.0674  1.3735
  113MOL   H25345277   2.312   1.582   3.537  1.9958  1.9742  0.2344
  113MOL   H25445278   2.143   1.509   3.377 -1.7130  0.0101  2.3293
  113MOL   H25545279   1.930   1.523   3.083  0.6613 -0.3319 -1.0950
  113MOL   H25645280   2.092   1.487   3.155 -0.9583 -0.4896 -1.0482
  113MOL   H25745281   1.941   1.488   3.260 -1.5309  1.9471  0.4255
  113MOL   H25845282   2.066   1.915   3.271 -0.5298 -0.1260  0.3583
  113MOL   H25945283   2.248   1.988   3.429  1.3277 -1.1813  3.1201
  113MOL   H26045284   2.355   1.844   3.815 -2.0013  1.2573  0.5465
  113MOL   H26145285   2.323   1.681   3.755  1.3163  0.8292  0.0726
  113MOL   C26245286   2.148   1.816   3.749  0.6491 -0.1832 -0.1540
  113MOL   C26345287   2.105   1.959   3.718 -0.1016 -0.4391  0.5136
  113MOL   C26445288   2.179   2.069   3.761 -0.3047 -0.1217 -0.0661
  113MOL   C26545289   2.129   2.199   3.744 -0.4802 -0.9384 -0.5628
  113MOL   C26645290   2.012   2.223   3.661 -0.5031 -0.2425  0.9190
  113MOL   O26745291   1.985   2.358   3.643 -0.3212 -0.0009  0.5365
  113MOL   C26845292   1.854   2.371   3.619 -0.1350  0.5323  0.5523
  113MOL   C26945293   1.945   2.113   3.604  0.5331  0.3518 -0.5149
  113MOL   C27045294   1.998   1.986   3.633 -0.5185  0.0551 -0.1490
  113MOL   C27145295   2.105   1.777   3.888  0.4486 -0.2735  0.2128
  113MOL   H27245296   2.096   1.755   3.674 -0.0518  1.1790 -0.7990
  113MOL   H27345297   2.273   2.049   3.810  0.4360  0.8752 -1.0405
  113MOL   H27445298   2.180   2.278   3.797  1.7074 -3.0047  0.5052
  113MOL   H27545299   1.823   2.475   3.613 -1.7148 -0.0209 -1.2955
  113MOL   H27645300   1.792   2.332   3.700  2.2774 -2.7415  0.9380
  113MOL   H27745301   1.806   2.340   3.527 -0.5516 -0.0447  0.9547
  113MOL   H27845302   1.851   2.121   3.552 -1.1376 -2.4211  1.9499
  113MOL   H27945303   1.946   1.901   3.592  2.4862 -1.0750 -1.7157
  113MOL   H28045304   2.113   1.669   3.904 -0.1644 -0.3823 -0.2116
  113MOL   H28145305   2.176   1.815   3.961 -0.8911 -0.3462  1.5782
  113MOL   C28245306   1.967   1.831   3.947 -0.0935  0.8893 -0.1353
  113MOL   C28345307   1.981   1.967   4.011 -0.5200  0.3500 -0.5311
  113MOL   C28445308   1.909   2.076   3.975  0.1277  0.1035  0.4633
  113MOL   C28545309   1.919   2.197   4.049 -1.0016 -0.1342 -0.2943
  113MOL   C28645310   2.012   2.209   4.160  1.2079  0.2758  0.0720
  113MOL   O28745311   2.032   2.329   4.228  0.4599 -0.1252  0.2357
  113MOL   C28845312   1.970   2.438   4.169  0.0360 -0.6451 -0.0819
  113MOL   C28945313   2.089   2.094   4.191  0.0791 -0.1867  0.0379
  113MOL   C29045314   2.070   1.976   4.118  0.4165 -0.3991  0.3252
  113MOL   C29145315   1.898   1.729   4.050  0.3580  0.4519  0.5272
  113MOL   H29245316   1.896   1.832   3.865  0.1833  0.9415 -0.3727
  113MOL   H29345317   1.844   2.070   3.888 -1.1077 -1.3100  1.4474
  113MOL   H29445318   1.864   2.286   4.019 -2.0120 -1.0313 -1.1572
  113MOL   H29545319   1.998   2.527   4.225 -0.7955  0.2497 -1.0707
  113MOL   H29645320   2.005   2.464   4.069 -0.4679 -0.7891 -0.2958
  113MOL   H29745321   1.862   2.428   4.169  0.0520 -0.8329  0.0162
  113MOL   H29845322   2.161   2.101   4.271 -0.7735  1.3598  0.6812
  113MOL   H29945323   2.120   1.886   4.151  1.2601  0.0487  0.2809
  113MOL   H30045324   1.931   1.632   4.016  0.1837  0.1332  1.2579
  113MOL   H30145325   1.944   1.742   4.148  1.3194  1.7765 -0.0814
  113MOL   C30245326   1.747   1.715   4.051 -0.1814  0.0668 -0.2607
  113MOL   C30345327   1.690   1.580   4.063  0.1650  0.0048  0.4289
  113MOL   C30445328   1.737   1.491   4.166  0.6508 -0.0923 -0.2639
  113MOL   C30545329   1.672   1.369   4.182  0.1986 -0.2848 -0.0806
  113MOL   C30645330   1.583   1.321   4.081  1.0716  0.2245 -0.3575
  113MOL   O30745331   1.528   1.193   4.078  0.1039 -0.1095 -0.1415
  113MOL   C30845332   1.561   1.104   4.174 -0.4945 -0.5448  0.1827
  113MOL   C30945333   1.535   1.416   3.986  0.1444 -0.5950  0.0322
  113MOL   C31045334   1.582   1.544   3.977 -0.3159 -0.2640 -0.8241
  113MOL   C31145335   1.678   1.814   4.145 -0.2989  0.0557 -0.7262
  113MOL   H31245336   1.719   1.749   3.952  1.6871  1.2071 -0.4222
  113MOL   H31345337   1.809   1.528   4.238  1.0988 -4.7087  1.8482
  113MOL   H31445338   1.708   1.300   4.256 -1.0552 -1.3952 -0.4886
  113MOL   H31545339   1.538   1.000   4.150 -1.1257 -0.4752  0.4910
  113MOL   H31645340   1.515   1.126   4.270 -1.8099 -2.1084 -0.0526
  113MOL   H31745341   1.666   1.098   4.204 -0.2600  1.1714 -0.2859
  113MOL   H31845342   1.451   1.376   3.930  0.7344 -2.0621  0.1632
  113MOL   H31945343   1.543   1.610   3.901 -0.3830  0.2428 -0.3497
  113MOL   H32045344   1.747   1.897   4.157  2.7805 -2.4392 -0.2931
  113MOL   H32145345   1.675   1.780   4.249  0.2880  0.6267 -0.5237
  113MOL   C32245346   1.538   1.874   4.103 -0.1264 -0.3697  0.6011
  113MOL   C32345347   1.539   2.019   4.147 -0.0446 -0.7588 -0.2979
  113MOL   C32445348   1.551   2.053   4.281  0.0879 -0.1980  0.4479
  113MOL   C32545349   1.544   2.190   4.318  1.0304  0.0373 -0.3113
  113MOL   C32645350   1.542   2.289   4.218  0.4256 -0.3038  0.1402
  113MOL   O32745351   1.547   2.428   4.245  0.8205  0.3603  0.0808
  113MOL   C32845352   1.561   2.459   4.381 -0.2352  0.1294 -0.2811
  113MOL   C32945353   1.545   2.249   4.086 -0.1119  0.0055  0.1878
  113MOL   C33045354   1.536   2.114   4.050 -0.1829 -0.6422 -0.7336
  113MOL   C33145355   1.434   1.778   4.176 -0.3246 -0.0559  0.7911
  113MOL   H33245356   1.536   1.874   3.994  0.8553  2.2333  0.5520
  113MOL   H33345357   1.555   1.974   4.355 -1.2231 -1.6220 -0.9802
  113MOL   H33445358   1.555   2.203   4.425 -0.1514  0.8923 -0.2852
  113MOL   H33545359   1.658   2.435   4.425  0.1443  2.0604 -0.0283
  113MOL   H33645360   1.488   2.415   4.449 -0.6073  2.2403  0.7163
  113MOL   H33745361   1.550   2.566   4.400  0.4994  0.3886 -1.3007
  113MOL   H33845362   1.535   2.322   4.008 -1.8493 -0.6477 -0.2256
  113MOL   H33945363   1.540   2.096   3.943  1.3607 -0.1982 -0.7624
  113MOL   H34045364   1.452   1.673   4.153 -1.2073 -0.0037 -0.2268
  113MOL   H34145365   1.441   1.800   4.282 -2.6798  0.1896  0.9222
  113MOL   C34245366   1.289   1.795   4.129 -0.3126  0.2125 -0.2595
  113MOL   C34345367   1.275   1.755   3.979  0.0488  0.3195 -0.4740
  113MOL   C34445368   1.301   1.842   3.876 -0.1060 -0.6793  0.2861
  113MOL   C34545369   1.299   1.801   3.740  0.2080  0.4634 -0.2014
  113MOL   C34645370   1.253   1.672   3.710  0.9369 -0.0691 -0.3427
  113MOL   O34745371   1.250   1.626   3.578  0.1399 -0.5872 -0.1546
  113MOL   C34845372   1.325   1.691   3.480 -0.1878 -0.0896 -0.0687
  113MOL   C34945373   1.214   1.586   3.815 -0.7035  0.1757  0.1235
  113MOL   C35045374   1.231   1.627   3.949  0.4987 -0.0582  0.6281
  113MOL   C35145375   1.216   1.927   4.169  0.2127 -0.2981 -0.3693
  113MOL   H35245376   1.229   1.724   4.186  1.2992  0.8957  2.3828
  113MOL   H35345377   1.346   1.937   3.899  1.2922 -1.0351 -0.9170
  113MOL   H35445378   1.328   1.869   3.661 -1.7174  1.0272 -0.4519
  113MOL   H35545379   1.309   1.635   3.388 -2.8215  0.2154  0.1756
  113MOL   H35645380   1.300   1.797   3.472  1.3164  0.2477 -0.5486
  113MOL   H35745381   1.431   1.687   3.505  0.2611 -2.4385 -2.1412
  113MOL   H35845382   1.167   1.492   3.789 -0.3991  0.2816 -0.8248
  113MOL   H35945383   1.210   1.562   4.033 -0.3746 -2.8232 -1.6821
  113MOL   H36045384   1.259   1.962   4.263  0.1076 -3.1463  0.8124
  113MOL   H36145385   1.256   2.008   4.108  0.8428  0.7924  1.4420
  113MOL   C36245386   1.058   1.928   4.162  0.0589  0.5118 -0.8520
  113MOL   C36345387   1.014   2.076   4.173 -0.4094 -0.3011  0.2860
  113MOL   C36445388   1.027   2.156   4.053 -0.1514 -0.7045 -0.1498
  113MOL   C36545389   0.993   2.298   4.056  0.6261  0.6376  1.1066
  113MOL   C36645390   0.943   2.347   4.181 -0.5310  0.0668 -0.4676
  113MOL   O36745391   0.916   2.480   4.200 -0.1894 -0.3840  0.0479
  113MOL   C36845392   0.947   2.568   4.088 -0.8549 -0.2809 -0.2992
  113MOL   C36945393   0.926   2.267   4.294 -0.8694 -0.2345 -0.8197
  113MOL   C37045394   0.954   2.131   4.286 -0.2022  0.1224 -0.7082
  113MOL   C37145395   0.987   1.834   4.264 -0.4420 -0.0911  0.4287
  113MOL   H37245396   1.036   1.882   4.066  1.5945  1.4090 -1.6618
  113MOL   H37345397   1.059   2.108   3.962  0.7447  0.5513 -0.5185
  113MOL   H37445398   0.988   2.349   3.961  0.3348 -0.5039  0.4973
  113MOL   H37545399   1.049   2.548   4.055 -0.6237  0.4027 -0.0145
  113MOL   H37645400   0.886   2.564   3.998  0.0291  0.6926 -0.9472
  113MOL   H37745401   0.947   2.674   4.110  1.0749 -0.1492 -0.8570
  113MOL   H37845402   0.883   2.310   4.383 -0.7264 -0.9434 -0.4055
  113MOL   H37945403   0.952   2.080   4.381 -0.1793  0.8279 -0.3253
  113MOL   H38045404   1.031   1.734   4.266  1.6380  0.7986  0.8055
  113MOL   H38145405   1.019   1.873   4.360  0.7263 -0.3718  0.1606
  113MOL   C38245406   0.832   1.829   4.262  0.8776  0.1722  0.0141
  113MOL   C38345407   0.782   1.769   4.390  0.3820 -0.0798 -0.7802
  113MOL   C38445408   0.836   1.651   4.449 -0.3259  0.3001 -0.1639
  113MOL   C38545409   0.770   1.600   4.560  0.3676 -0.2762  0.0162
  113MOL   C38645410   0.659   1.674   4.623 -0.7623 -0.3085 -0.2004
  113MOL   O38745411   0.593   1.638   4.738 -0.0794  0.3365  0.4018
  113MOL   C38845412   0.609   1.510   4.794  0.4042 -0.4179 -0.1904
  113MOL   C38945413   0.613   1.792   4.566  0.0940  0.3271 -0.1918
  113MOL   C39045414   0.673   1.839   4.447 -0.4005  0.2360  0.2211
  113MOL   C39145415   0.789   1.754   4.131  0.6188 -0.5978  0.0697
  113MOL   H39245416   0.807   1.935   4.258  0.6938  0.0564 -2.7835
  113MOL   H39345417   0.918   1.595   4.408 -1.0406 -1.2683  0.5186
  113MOL   H39445418   0.793   1.501   4.596 -0.4534 -0.5387 -0.1618
  113MOL   H39545419   0.705   1.525   4.843 -0.5305  1.5939  1.1444
  113MOL   H39645420   0.608   1.432   4.718  1.8552  1.1733 -1.8727
  113MOL   H39745421   0.530   1.494   4.869  1.2021  0.9485  0.9829
  113MOL   H39845422   0.531   1.845   4.612  0.6299  0.7887  0.2408
  113MOL   H39945423   0.634   1.930   4.403  1.0350  1.4853  1.4834
  113MOL   H40045424   0.685   1.780   4.114  0.5907 -0.7409  0.0218
  113MOL   H40145425   0.778   1.646   4.140 -0.9391 -0.4088  0.5368
  113MOL   H40245426   0.845   1.778   4.041  3.3734 -0.9909  1.6107
  114MOL     C145427   4.671   7.432   2.225 -0.3418 -0.0613 -0.0610
  114MOL     C245428   4.746   7.347   2.123  0.1903 -0.5162  0.2619
  114MOL     C345429   4.818   7.235   2.178  0.2053 -0.9541  0.4301
  114MOL     C445430   4.872   7.136   2.090 -0.0878 -0.1241  0.4746
  114MOL     C545431   4.871   7.164   1.950 -0.7563 -0.7685 -0.1030
  114MOL     O645432   4.933   7.075   1.858  0.5802  0.4253  0.1332
  114MOL     C745433   5.002   6.968   1.908  0.2470 -0.3054 -0.1269
  114MOL     C845434   4.810   7.277   1.902 -0.6426  0.0910  0.1197
  114MOL     C945435   4.747   7.368   1.987 -0.8244  0.3853  0.1132
  114MOL    C1045436   4.760   7.530   2.292  0.4968 -0.0623 -0.3126
  114MOL    H1145437   4.624   7.362   2.294 -1.3308  1.9376  1.3411
  114MOL    H1245438   4.821   7.223   2.285  4.5918  0.2073  0.5114
  114MOL    H1345439   4.921   7.060   2.148 -0.9790  0.0044  1.4178
  114MOL    H1445440   5.078   7.004   1.977  0.6193  0.1690 -0.7885
  114MOL    H1545441   4.937   6.890   1.949 -2.8978  0.7157 -2.9485
  114MOL    H1645442   5.054   6.920   1.825  0.3483  1.3196 -1.0194
  114MOL    H1745443   4.803   7.288   1.795 -0.3977  1.7545  0.2655
  114MOL    H1845444   4.686   7.449   1.949  2.4804  1.4634 -3.2289
  114MOL    H1945445   4.864   7.498   2.293  1.5224  3.1138 -1.2003
  114MOL    H2045446   4.766   7.621   2.232 -0.5389 -0.1248 -0.5228
  114MOL    H2145447   4.597   7.495   2.175 -0.8540 -0.1940  0.5171
  114MOL    C2245448   4.724   7.571   2.439 -0.2820 -0.8046 -0.0890
  114MOL    C2345449   4.724   7.455   2.535 -0.1454 -1.0068  0.2583
  114MOL    C2445450   4.615   7.425   2.612  0.6736  0.0794  0.4066
  114MOL    C2545451   4.613   7.313   2.690 -0.3587  0.1861  0.6576
  114MOL    C2645452   4.728   7.231   2.706 -0.9314  0.9225  0.2553
  114MOL    O2745453   4.712   7.127   2.790 -0.3055  0.6624  0.4192
  114MOL    C2845454   4.821   7.043   2.814  0.1057 -0.2403  0.2102
  114MOL    C2945455   4.849   7.266   2.635  0.2353  0.9410 -0.3783
  114MOL    C3045456   4.841   7.374   2.545 -0.0477  0.1400 -0.2386
  114MOL    C3145457   4.811   7.691   2.492 -0.6750  0.7803  0.1059
  114MOL    H3245458   4.621   7.604   2.431  0.4943  1.5098 -0.9504
  114MOL    H3345459   4.520   7.475   2.598 -0.6515 -2.6069 -0.4475
  114MOL    H3445460   4.524   7.292   2.747 -2.3401  2.4493 -1.4621
  114MOL    H3545461   4.903   7.091   2.866 -0.4380  2.4210 -1.3100
  114MOL    H3645462   4.851   7.000   2.718  1.1146  1.0655 -0.0673
  114MOL    H3745463   4.786   6.962   2.878 -1.7919  0.7562  0.4769
  114MOL    H3845464   4.934   7.200   2.643 -0.9610 -0.8162 -1.7887
  114MOL    H3945465   4.928   7.397   2.486 -1.2236 -1.9818 -2.9021
  114MOL    H4045466   4.916   7.663   2.484 -0.8565  0.3204 -0.7313
  114MOL    H4145467   4.800   7.775   2.424 -1.4722  0.7965  0.2511
  114MOL    C4245468   4.775   7.747   2.635 -0.3186  0.6335  0.1756
  114MOL    C4345469   4.629   7.806   2.647  0.4159  0.4749 -0.0895
  114MOL    C4445470   4.534   7.756   2.738  0.2826  0.4196 -0.3663
  114MOL    C4545471   4.405   7.818   2.752 -0.2964  0.4218 -0.4392
  114MOL    C4645472   4.373   7.929   2.666 -0.4662  0.2757  0.2733
  114MOL    O4745473   4.253   7.993   2.655 -0.3650  0.2159  0.4156
  114MOL    C4845474   4.141   7.930   2.712 -0.2465  0.5072 -0.5196
  114MOL    C4945475   4.469   7.984   2.582 -0.3272  0.0008  0.1548
  114MOL    C5045476   4.592   7.922   2.574 -0.7543  0.0955 -0.6043
  114MOL    C5145477   4.879   7.841   2.704 -0.2166  0.8278  0.3926
  114MOL    H5245478   4.777   7.661   2.701 -2.4631  1.2418  1.0823
  114MOL    H5345479   4.539   7.661   2.789  0.3456  0.3398 -0.5191
  114MOL    H5445480   4.323   7.777   2.809 -0.4007 -0.5952 -1.3057
  114MOL    H5545481   4.108   7.857   2.638 -3.6329  0.3869  1.0030
  114MOL    H5645482   4.143   7.877   2.807  0.7492  0.8120 -0.3714
  114MOL    H5745483   4.067   8.010   2.721 -1.9464 -0.9043 -1.6748
  114MOL    H5845484   4.461   0.026   2.512  1.3842 -0.3134 -0.4301
  114MOL    H5945485   4.664   7.972   2.511  0.3503  0.1006  0.6220
  114MOL    H6045486   4.840   7.891   2.792 -2.1392 -1.3158  0.8303
  114MOL    H6145487   4.890   7.919   2.629 -1.7483 -0.3754 -1.1425
  114MOL    C6245488   5.019   7.779   2.728 -0.2870  0.2529  0.1382
  114MOL    C6345489   5.031   7.704   2.863  0.4668  0.5478 -0.7912
  114MOL    C6445490   5.054   7.566   2.867 -0.0695 -0.4204 -0.5480
  114MOL    C6545491   5.068   7.500   2.988 -0.2673  0.8133 -0.5182
  114MOL    C6645492   5.068   7.563   3.111 -0.0997 -0.0740 -0.0872
  114MOL    O6745493   5.063   7.483   3.216  0.5631  0.9818 -0.2407
  114MOL    C6845494   5.127   7.530   3.335  0.1409  0.3349 -0.5206
  114MOL    C6945495   5.049   7.706   3.108 -0.0803  0.2770 -0.1275
  114MOL    C7045496   5.023   7.773   2.987 -0.3330  0.8686 -0.3484
  114MOL    C7145497   5.132   7.885   2.704  0.8476 -1.0567 -0.5762
  114MOL    H7245498   5.032   7.698   2.656 -0.3864  0.3855 -0.0273
  114MOL    H7345499   5.057   7.508   2.776  0.4662  1.7743 -1.9571
  114MOL    H7445500   5.072   7.392   2.990  1.1356  0.8470 -0.8688
  114MOL    H7545501   5.073   7.487   3.419 -0.0695  0.8288 -0.4012
  114MOL    H7645502   5.135   7.639   3.343 -0.9919  0.1990  3.0568
  114MOL    H7745503   5.230   7.499   3.350 -0.0640 -1.6862 -2.9493
  114MOL    H7845504   5.043   7.751   3.207  0.1714  0.7094 -0.3083
  114MOL    H7945505   5.010   7.880   2.984 -1.2083  0.7373 -1.3474
  114MOL    H8045506   5.107   7.935   2.610  0.0577  2.1368  1.2352
  114MOL    H8145507   5.106   7.964   2.775 -2.2754 -2.0104 -0.5719
  114MOL    C8245508   5.278   7.840   2.725  0.1055 -0.0394  0.0549
  114MOL    C8345509   5.323   7.756   2.608  0.6423 -0.0240  0.0617
  114MOL    C8445510   5.390   7.813   2.501 -0.3007  0.7901  0.5044
  114MOL    C8545511   5.457   7.735   2.413 -0.7498  0.0333  0.1825
  114MOL    C8645512   5.454   7.593   2.422  0.1172 -0.6241 -0.5861
  114MOL    O8745513   5.538   7.511   2.355 -0.0582  0.2285  0.6282
  114MOL    C8845514   5.653   7.558   2.283 -0.6553  0.6094 -0.9131
  114MOL    C8945515   5.377   7.537   2.525 -0.1848  0.0473 -0.5598
  114MOL    C9045516   5.316   7.618   2.616  0.0130 -0.5798 -0.3070
  114MOL    C9145517   5.379   7.950   2.755 -0.0547 -0.8699 -0.1179
  114MOL    H9245518   5.289   7.769   2.808 -0.1994 -1.3257 -0.9812
  114MOL    H9345519   5.395   7.920   2.486 -0.5274  0.6535 -0.6121
  114MOL    H9445520   5.510   7.774   2.328 -0.5426 -1.2012 -0.2732
  114MOL    H9545521   5.701   7.478   2.226  0.3891  0.8374 -0.3638
  114MOL    H9645522   5.733   7.599   2.345 -0.2179 -0.5405 -0.7047
  114MOL    H9745523   5.603   7.627   2.214  0.7914  2.6847  0.0854
  114MOL    H9845524   5.382   7.429   2.527  0.8898  0.1225  2.2377
  114MOL    H9945525   5.267   7.577   2.703  1.4430  2.5045  2.0389
  114MOL   H10045526   5.481   7.915   2.735 -0.2840 -2.1242  0.8644
  114MOL   H10145527   5.364   8.032   2.684  0.5298  0.7099  1.5594
  114MOL   C10245528   5.372   8.016   2.898  0.0296 -0.0348 -0.5917
  114MOL   C10345529   5.470   7.938   2.993 -0.0673 -0.6771 -0.4875
  114MOL   C10445530   5.607   7.944   2.982 -0.3097 -0.2120  0.4647
  114MOL   C10545531   5.688   7.884   3.080 -0.0702  0.4859  0.5178
  114MOL   C10645532   5.637   7.809   3.187 -0.5559 -0.0663  1.0232
  114MOL   O10745533   5.713   7.753   3.285 -0.2187 -0.6233 -0.1210
  114MOL   C10845534   5.854   7.786   3.284  0.1154  0.7272  0.9120
  114MOL   C10945535   5.498   7.788   3.182 -0.2435  0.2016 -0.3578
  114MOL   C11045536   5.417   7.852   3.091  0.2318  0.0081  0.2751
  114MOL   C11145537   5.405   0.123   2.884  0.1411 -0.2626  0.0057
  114MOL   H11245538   5.272   8.008   2.941  0.1915  1.5308  0.1053
  114MOL   H11345539   5.655   7.995   2.900  1.2855 -1.4875  0.5747
  114MOL   H11445540   5.793   7.906   3.063  0.4043  0.5575  3.2744
  114MOL   H11545541   5.916   7.771   3.196 -2.0529  1.0567 -0.6916
  114MOL   H11645542   5.864   7.888   3.322  2.1507  0.5138  1.0515
  114MOL   H11745543   5.893   7.731   3.371 -2.6348 -0.8494  1.1946
  114MOL   H11845544   5.456   7.728   3.261 -1.1961  0.9416 -0.2990
  114MOL   H11945545   5.310   7.848   3.102  0.2463  0.4774  0.6523
  114MOL   H12045546   5.495   0.146   2.827  2.4726  0.2900  3.7498
  114MOL   H12145547   5.327   0.169   2.825 -0.2666 -0.4912  0.3653
  114MOL   C12245548   5.434   0.200   3.019 -0.5339  0.4534  0.0179
  114MOL   C12345549   5.315   0.205   3.103  0.4411 -0.8259 -0.6997
  114MOL   C12445550   5.219   0.301   3.067  0.3652 -0.1828 -0.2523
  114MOL   C12545551   5.108   0.321   3.152  0.0495 -0.4395 -0.4915
  114MOL   C12645552   5.084   0.236   3.258  0.4020 -0.3845  0.1287
  114MOL   O12745553   4.984   0.256   3.350 -0.1524 -0.3730  0.7565
  114MOL   C12845554   4.899   0.370   3.324  0.0536  0.0550  0.3083
  114MOL   C12945555   5.185   0.143   3.295  1.4579 -0.2146  0.7040
  114MOL   C13045556   5.294   0.123   3.215 -0.3257 -0.6393 -0.0345
  114MOL   C13145557   5.514   0.329   3.013 -0.2267 -0.3258 -0.2839
  114MOL   H13245558   5.490   0.129   3.079 -0.5126  1.7230  1.5389
  114MOL   H13345559   5.237   0.351   2.973 -0.4498 -0.4817 -0.5744
  114MOL   H13445560   5.041   0.397   3.115  2.3608  1.9136 -0.0206
  114MOL   H13545561   4.962   0.456   3.306 -0.1155 -0.0651 -0.9022
  114MOL   H13645562   4.837   0.341   3.238 -0.0110 -0.6350  0.5801
  114MOL   H13745563   4.828   0.391   3.404 -1.7894 -2.2657 -0.6336
  114MOL   H13845564   5.167   0.104   3.394  0.2802 -1.9584 -0.1886
  114MOL   H13945565   5.366   0.048   3.243 -1.4334 -1.7970 -0.2083
  114MOL   H14045566   5.477   0.392   2.932 -4.0291  1.7110  2.8788
  114MOL   H14145567   5.614   0.297   2.983 -0.4392 -0.8267 -0.4511
  114MOL   C14245568   5.530   0.417   3.145  0.0970  0.1684  0.1479
  114MOL   C14345569   5.559   0.338   3.267 -0.3145 -0.0118  0.0083
  114MOL   C14445570   5.504   0.381   3.388 -0.2491  0.1725 -0.0058
  114MOL   C14545571   5.526   0.310   3.501  0.4994 -0.5605 -0.1600
  114MOL   C14645572   5.592   0.187   3.504  0.1272  0.2925 -0.3791
  114MOL   O14745573   5.595   0.105   3.606 -0.0309  0.3771 -0.4549
  114MOL   C14845574   5.555   0.160   3.727  0.5759  0.2731 -0.7177
  114MOL   C14945575   5.659   0.146   3.388  0.1891 -0.2583  1.0184
  114MOL   C15045576   5.647   0.228   3.269 -0.0690 -0.2469  0.1593
  114MOL   C15145577   5.646   0.519   3.130 -0.4841  0.5398  0.0274
  114MOL   H15245578   5.428   0.454   3.162 -1.1220 -3.6008  1.5649
  114MOL   H15345579   5.438   0.466   3.386 -1.5997 -0.7741  2.4252
  114MOL   H15445580   5.467   0.351   3.582  0.1583 -0.1541 -0.6119
  114MOL   H15545581   5.570   0.085   3.805 -0.8507  1.2384  0.5164
  114MOL   H15645582   5.617   0.246   3.754  0.3824  0.5333 -1.1078
  114MOL   H15745583   5.447   0.175   3.732  0.7697  1.6635 -0.2530
  114MOL   H15845584   5.722   0.059   3.402 -1.8327 -2.0235 -0.6209
  114MOL   H15945585   5.709   0.196   3.187  0.4205 -0.4603  0.6117
  114MOL   H16045586   5.665   0.527   3.023 -2.0452  0.7236 -0.2501
  114MOL   H16145587   5.742   0.488   3.170 -0.9360 -0.9303 -0.0106
  114MOL   C16245588   5.616   0.657   3.192  0.0536 -0.6753 -0.6177
  114MOL   C16345589   5.505   0.723   3.108 -0.6161 -0.1247 -0.5619
  114MOL   C16445590   5.526   0.750   2.976 -0.5281  0.0862  0.3134
  114MOL   C16545591   5.421   0.798   2.895  0.1236 -0.2638  0.1943
  114MOL   C16645592   5.294   0.826   2.948 -0.3068 -0.4453 -0.3300
  114MOL   O16745593   5.205   0.886   2.859 -0.0236  0.1523 -0.3223
  114MOL   C16845594   5.072   0.882   2.903 -0.2902 -0.3588 -0.2233
  114MOL   C16945595   5.271   0.796   3.082 -0.1951 -0.0324  0.1158
  114MOL   C17045596   5.374   0.743   3.164 -0.3202  0.5870  0.2292
  114MOL   C17145597   5.746   0.747   3.201  0.4644  0.0172 -0.0837
  114MOL   H17245598   5.591   0.633   3.296 -1.5557  3.5631  0.0794
  114MOL   H17345599   5.621   0.740   2.927  0.2204  1.7969  1.3648
  114MOL   H17445600   5.446   0.817   2.792  0.4148  2.3130  0.6926
  114MOL   H17545601   5.061   0.964   2.973  1.2756 -0.2803 -0.0364
  114MOL   H17645602   5.045   0.787   2.949  0.2714  0.4142  1.7719
  114MOL   H17745603   5.008   0.902   2.818  1.2778  1.6636 -0.9706
  114MOL   H17845604   5.171   0.804   3.123 -1.4131 -0.3610 -2.6755
  114MOL   H17945605   5.348   0.723   3.267  0.6402  2.2132  0.8042
  114MOL   H18045606   5.708   0.848   3.212 -1.5704 -0.6178 -1.0856
  114MOL   H18145607   5.815   0.748   3.117 -1.6082 -1.4033 -1.8397
  114MOL   C18245608   5.831   0.724   3.331 -0.1008 -0.0612 -0.1765
  114MOL   C18345609   5.936   0.831   3.347 -0.3127  0.5543  0.3559
  114MOL   C18445610   5.911   0.933   3.435 -0.2377 -0.0099  0.4436
  114MOL   C18545611   5.995   1.040   3.444 -0.6506  0.2018 -0.2924
  114MOL   C18645612   6.120   1.039   3.372 -0.1415  0.1904  0.1827
  114MOL   O18745613   6.211   1.143   3.367 -0.3924  0.2401 -0.3889
  114MOL   C18845614   6.180   1.250   3.454 -0.1602 -0.1502  0.3215
  114MOL   C18945615   6.152   0.930   3.288 -0.2349  0.8919 -0.1251
  114MOL   C19045616   6.058   0.824   3.274  0.3540 -0.5333  0.7224
  114MOL   C19145617   5.881   0.586   3.369 -1.0726  0.2627 -0.6090
  114MOL   H19245618   5.752   0.739   3.406  0.4738 -1.5767  0.7506
  114MOL   H19345619   5.819   0.938   3.492 -0.0919 -1.9269  0.8862
  114MOL   H19445620   5.965   1.125   3.505 -0.4664 -2.2352  3.3321
  114MOL   H19545621   6.174   1.231   3.561  0.1457 -1.6725  0.0708
  114MOL   H19645622   6.089   1.293   3.410 -1.5341 -0.7266  2.5202
  114MOL   H19745623   6.250   1.329   3.429 -1.7986  0.8326 -1.3118
  114MOL   H19845624   6.244   0.922   3.231 -0.3012  0.7885 -0.2197
  114MOL   H19945625   6.078   0.744   3.204  0.7162 -0.2732  0.5237
  114MOL   H20045626   5.787   0.531   3.375 -0.6052 -0.4268  0.6126
  114MOL   H20145627   5.951   0.551   3.293 -1.2910 -0.8147 -0.3151
  114MOL   C20245628   5.968   0.578   3.503 -0.4169 -0.2827  0.2856
  114MOL   C20345629   6.039   0.442   3.515  0.2497  0.0450 -0.0150
  114MOL   C20445630   6.172   0.434   3.539  0.4028  0.3887  0.4448
  114MOL   C20545631   6.238   0.307   3.555  0.0756 -0.2698  0.0062
  114MOL   C20645632   6.163   0.191   3.511  0.2179  0.3443 -0.1892
  114MOL   O20745633   6.215   0.062   3.494  0.0872 -0.1186 -0.3913
  114MOL   C20845634   6.346   0.055   3.458  0.8580  0.2075 -0.2876
  114MOL   C20945635   6.028   0.200   3.481  0.3954  0.5536  0.5424
  114MOL   C21045636   5.965   0.325   3.478 -0.1938 -0.3860  0.8312
  114MOL   C21145637   5.865   0.601   3.624 -0.2179  0.0424 -0.2732
  114MOL   H21245638   6.043   0.657   3.494 -2.7072  1.8367 -0.9108
  114MOL   H21345639   6.224   0.526   3.561 -0.2958  0.8137  0.3204
  114MOL   H21445640   6.340   0.307   3.592 -0.2305 -0.9883  0.8620
  114MOL   H21545641   6.405   0.001   3.532 -1.5438 -2.3078 -0.1392
  114MOL   H21645642   6.357   8.038   3.366  0.6919 -0.4233  0.0856
  114MOL   H21745643   6.398   0.147   3.428  0.8753 -0.1966 -1.4993
  114MOL   H21845644   5.980   0.105   3.462 -0.6696  1.4185 -1.2452
  114MOL   H21945645   5.857   0.327   3.475 -0.1914 -0.7087  0.5457
  114MOL   H22045646   5.784   0.529   3.617  1.3428 -1.6300 -1.6859
  114MOL   H22145647   5.838   0.705   3.602  3.2178  1.5160  2.0486
  114MOL   C22245648   5.927   0.598   3.769 -0.6899 -0.5155 -0.0199
  114MOL   C22345649   6.065   0.661   3.779 -0.1553  0.8472 -0.0046
  114MOL   C22445650   6.178   0.591   3.815  0.1708  0.4077 -0.0935
  114MOL   C22545651   6.308   0.650   3.816 -0.0879 -0.4643  0.8895
  114MOL   C22645652   6.322   0.792   3.792 -0.7449  0.3189 -0.1679
  114MOL   O22745653   6.444   0.856   3.798  0.0446  0.1800  0.4008
  114MOL   C22845654   6.551   0.805   3.872  0.9319  0.4206 -0.4429
  114MOL   C22945655   6.207   0.865   3.757 -0.3529  0.2100  0.0384
  114MOL   C23045656   6.085   0.797   3.749  0.5878  0.1588 -0.2842
  114MOL   C23145657   5.830   0.647   3.875 -0.6687  0.1686 -0.3968
  114MOL   H23245658   5.931   0.489   3.782 -0.0967 -0.6477 -1.2285
  114MOL   H23345659   6.170   0.486   3.837 -2.6477  1.1056  2.6176
  114MOL   H23445660   6.393   0.585   3.825 -1.0347 -2.0558 -1.1517
  114MOL   H23545661   6.597   0.724   3.816  1.2012  1.7200 -2.1086
  114MOL   H23645662   6.620   0.888   3.879  1.4222  0.0295 -0.6292
  114MOL   H23745663   6.524   0.768   3.971 -2.2323  0.3973 -1.2469
  114MOL   H23845664   6.210   0.971   3.737  0.4487  0.3817  1.0480
  114MOL   H23945665   5.995   0.848   3.720 -0.7180 -4.0163 -4.0290
  114MOL   H24045666   5.777   0.732   3.831 -0.5127 -0.0232 -0.9570
  114MOL   H24145667   5.756   0.568   3.882 -1.2348  0.5052 -2.2423
  114MOL   C24245668   5.869   0.685   4.027 -1.0229 -0.2651  0.3955
  114MOL   C24345669   5.758   0.772   4.092  0.2451  0.3108  0.0699
  114MOL   C24445670   5.783   0.862   4.199 -0.4759  0.1413  0.2578
  114MOL   C24545671   5.682   0.914   4.280 -0.8187  0.2000  0.3508
  114MOL   C24645672   5.545   0.886   4.245  0.1404 -0.4698  0.4902
  114MOL   O24745673   5.446   0.947   4.329 -0.0363  0.2201  0.0323
  114MOL   C24845674   5.338   0.863   4.369  0.2968 -0.2841  0.3870
  114MOL   C24945675   5.516   0.801   4.133 -0.7572 -0.3101 -0.1329
  114MOL   C25045676   5.626   0.750   4.062  0.0080  0.3890  0.5359
  114MOL   C25145677   5.892   0.555   4.100  0.4210  0.2263 -0.6375
  114MOL   H25245678   5.962   0.741   4.039 -0.9256 -0.5144  0.7998
  114MOL   H25345679   5.888   0.869   4.225 -1.0475  1.9543  2.2396
  114MOL   H25445680   5.689   0.970   4.372  0.3204 -1.9120  1.5970
  114MOL   H25545681   5.270   0.922   4.431 -1.1578 -0.5990 -0.8784
  114MOL   H25645682   5.285   0.820   4.285  0.2200  1.2692 -0.3720
  114MOL   H25745683   5.379   0.784   4.432  0.2471  0.0903  0.8918
  114MOL   H25845684   5.414   0.777   4.109 -0.2072 -0.9686 -1.8589
  114MOL   H25945685   5.604   0.678   3.984 -0.3743  1.9868 -0.8608
  114MOL   H26045686   5.985   0.519   4.055 -0.3445  0.3416 -2.3484
  114MOL   H26145687   5.816   0.481   4.075 -0.3542  1.2300 -1.3029
  114MOL   C26245688   5.931   0.556   4.255  0.2568  0.0944  0.2976
  114MOL   C26345689   6.070   0.607   4.274 -0.4088 -1.2907 -0.1137
  114MOL   C26445690   6.185   0.563   4.204 -0.0515 -0.0268  0.2946
  114MOL   C26545691   6.314   0.612   4.231 -0.1531  0.1702 -0.6474
  114MOL   C26645692   6.322   0.707   4.330 -0.4922 -0.7464  0.1765
  114MOL   O26745693   6.445   0.749   4.383  0.0441 -0.1610 -0.0791
  114MOL   C26845694   6.569   0.719   4.320  0.5560  0.3555  0.0995
  114MOL   C26945695   6.206   0.758   4.393  0.3689 -0.1324 -0.2495
  114MOL   C27045696   6.082   0.705   4.369  0.3161 -0.5186  0.1371
  114MOL   C27145697   5.916   0.412   4.308 -0.2625  0.5007 -0.3141
  114MOL   H27245698   5.861   0.612   4.316 -0.5255 -0.7929  0.2319
  114MOL   H27345699   6.176   0.492   4.123  0.4482 -1.0912  1.1544
  114MOL   H27445700   6.394   0.586   4.163 -0.8046  1.0684 -1.7787
  114MOL   H27545701   6.561   0.721   4.211 -0.8874 -1.5133  0.1299
  114MOL   H27645702   6.616   0.625   4.348 -2.7139 -1.4568 -0.2210
  114MOL   H27745703   6.638   0.797   4.353 -0.1401  1.0503 -0.0797
  114MOL   H27845704   6.209   0.833   4.471 -0.2303 -1.6605  1.2841
  114MOL   H27945705   6.002   0.757   4.420  1.4635 -0.5983  2.0742
  114MOL   H28045706   5.952   0.340   4.234 -0.1535 -0.4973  0.7061
  114MOL   H28145707   5.973   0.408   4.401 -1.0720  1.4026  0.2245
  114MOL   C28245708   5.768   0.373   4.335  0.2276 -0.3042  0.5013
  114MOL   C28345709   5.710   0.422   4.466 -0.2502 -0.0449  0.2094
  114MOL   C28445710   5.628   0.534   4.470 -0.5577 -0.4400 -0.4091
  114MOL   C28545711   5.568   0.573   4.594 -0.5786  0.0755 -0.2003
  114MOL   C28645712   5.585   0.500   4.712  0.3829 -0.1396  0.5057
  114MOL   O28745713   5.543   0.543   4.838  0.2981  0.3184 -0.3553
  114MOL   C28845714   5.478   0.668   4.852  0.6278 -0.3663  0.1526
  114MOL   C28945715   5.662   0.383   4.711 -0.4858  1.0018 -0.3022
  114MOL   C29045716   5.722   0.351   4.586  1.0763 -0.2781 -0.3840
  114MOL   C29145717   5.731   0.232   4.300  0.6064 -0.1503 -0.7828
  114MOL   H29245718   5.710   0.438   4.270 -2.1716 -1.4541  1.3990
  114MOL   H29345719   5.622   0.596   4.382 -1.6163 -0.2270 -0.1937
  114MOL   H29445720   5.514   0.666   4.583 -0.6566 -0.0156 -0.5973
  114MOL   H29545721   5.378   0.674   4.811  0.4186  3.0568  0.9635
  114MOL   H29645722   5.469   0.689   4.959  1.6162 -2.3048  0.6497
  114MOL   H29745723   5.538   0.746   4.804  2.3849 -1.1154  1.0481
  114MOL   H29845724   5.683   0.320   4.796 -0.7343 -2.2680 -2.5993
  114MOL   H29945725   5.785   0.263   4.589 -1.0351 -1.8015  1.0067
  114MOL   H30045726   5.781   0.205   4.206  2.8342 -4.0737  1.4019
  114MOL   H30145727   5.770   0.166   4.377 -0.1986 -1.5233 -1.5168
  114MOL   C30245728   5.578   0.209   4.298  0.2106 -0.2002 -0.6462
  114MOL   C30345729   5.509   0.310   4.190 -1.3636  0.4636 -0.2308
  114MOL   C30445730   5.386   0.373   4.220 -0.5207 -0.3755 -0.2059
  114MOL   C30545731   5.323   0.457   4.126  0.1977  0.4377 -0.1545
  114MOL   C30645732   5.386   0.484   4.006  0.0862 -0.4444 -0.0981
  114MOL   O30745733   5.332   0.553   3.906  0.2076  0.6691  0.6378
  114MOL   C30845734   5.207   0.626   3.932 -0.4077 -0.4674 -0.3413
  114MOL   C30945735   5.509   0.427   3.978  1.1143  0.2152 -0.1019
  114MOL   C31045736   5.569   0.334   4.063 -0.9507  0.0528 -0.0261
  114MOL   C31145737   5.542   0.054   4.277 -0.4695  0.2021 -0.3479
  114MOL   H31245738   5.548   0.236   4.399  2.2577 -1.7503  0.3911
  114MOL   H31345739   5.334   0.347   4.311 -1.9866 -1.2144 -1.2550
  114MOL   H31445740   5.222   0.483   4.152 -0.0207 -0.6160  0.0682
  114MOL   H31545741   5.130   0.549   3.937  0.3115 -1.1252  0.7773
  114MOL   H31645742   5.183   0.699   3.854  0.6031  1.0231  0.7106
  114MOL   H31745743   5.195   0.694   4.016  1.3785 -0.1818 -0.2901
  114MOL   H31845744   5.548   0.467   3.885  0.1100  1.4140 -0.0259
  114MOL   H31945745   5.668   0.299   4.038 -1.8133 -1.5783 -1.2509
  114MOL   H32045746   5.614   0.001   4.339 -0.7253  1.5799  1.1873
  114MOL   H32145747   5.572   0.035   4.174 -2.5402 -1.3927 -0.6933
  114MOL   C32245748   5.398   0.023   4.319 -0.6584 -0.2828  0.9326
  114MOL   C32345749   5.382   0.063   4.469  1.3635  0.0628  0.4975
  114MOL   C32445750   5.279   0.149   4.521  0.7308 -0.2660 -0.1383
  114MOL   C32545751   5.272   0.180   4.666  0.3818  0.0821 -0.3493
  114MOL   C32645752   5.368   0.129   4.747 -0.3726  0.4514  0.4012
  114MOL   O32745753   5.365   0.137   4.882  1.0937  0.8187 -0.6566
  114MOL   C32845754   5.286   0.251   4.928  0.4771  0.3426 -0.5940
  114MOL   C32945755   5.466   0.041   4.694 -0.0928  0.5513  0.0207
  114MOL   C33045756   5.472   0.007   4.561  0.4806 -0.3398  0.2369
  114MOL   C33145757   5.364   7.914   4.287 -0.0499  0.2346 -0.1331
  114MOL   H33245758   5.337   0.094   4.263  0.2656 -1.3532 -1.5163
  114MOL   H33345759   5.214   0.196   4.450  0.4306  0.3245  0.5274
  114MOL   H33445760   5.194   0.243   4.706  0.1090 -0.3103 -0.2549
  114MOL   H33545761   5.304   0.342   4.873  1.2925 -0.4174 -1.5939
  114MOL   H33645762   5.313   0.272   5.031  2.3246  0.6791 -1.1404
  114MOL   H33745763   5.182   0.217   4.927  0.2101  1.1006  0.8076
  114MOL   H33845764   5.534   8.033   4.763 -1.0056 -2.1901 -0.8838
  114MOL   H33945765   5.550   7.980   4.528  0.2178 -0.4434 -0.1742
  114MOL   H34045766   5.452   7.857   4.317 -0.4591 -1.1427 -1.5203
  114MOL   H34145767   5.273   7.888   4.341  0.0830  0.7953  0.3655
  114MOL   C34245768   5.338   7.879   4.137  0.1879 -0.4254 -0.5405
  114MOL   C34345769   5.228   7.960   4.067 -0.8465 -0.1290  0.0951
  114MOL   C34445770   5.097   7.912   4.043  1.1635 -0.4157 -0.3457
  114MOL   C34545771   4.997   8.000   3.992 -0.9172  0.3768 -0.0953
  114MOL   C34645772   5.031   0.093   3.956 -0.1555 -0.2212  0.2484
  114MOL   O34745773   4.921   0.166   3.923  1.0741  0.0024  0.0826
  114MOL   C34845774   4.916   0.301   3.937  0.1504  0.8987 -0.3493
  114MOL   C34945775   5.165   0.131   3.960  0.0583 -0.6455  0.7608
  114MOL   C35045776   5.257   0.053   4.022  0.1088  0.2648 -0.8462
  114MOL   C35145777   5.337   7.727   4.117  0.0854  0.3197  0.0310
  114MOL   H35245778   5.426   7.923   4.090  1.5534 -1.3957  1.0436
  114MOL   H35345779   5.064   7.813   4.070  0.8075 -0.6338 -1.5416
  114MOL   H35445780   4.894   7.969   3.992 -1.3224  1.7012  0.8252
  114MOL   H35545781   4.928   0.357   3.844 -0.1513  3.3496  1.0746
  114MOL   H35645782   4.820   0.323   3.984  0.5214  0.1523  0.7746
  114MOL   H35745783   5.004   0.330   3.995 -0.8882  1.2601  1.0555
  114MOL   H35845784   5.184   0.234   3.936 -3.1222  0.0486  0.9505
  114MOL   H35945785   5.357   0.088   4.041 -0.3707  0.6313  1.1438
  114MOL   H36045786   5.260   7.683   4.182 -0.6070 -0.3792 -1.2396
  114MOL   H36145787   5.298   7.707   4.017 -0.9543  1.2277  0.2429
  114MOL   C36245788   5.461   7.650   4.141  0.4130 -0.2957 -0.9143
  114MOL   C36345789   5.585   7.728   4.084  0.2971 -0.1535  0.7729
  114MOL   C36445790   5.700   7.751   4.166  0.3105  0.0415  0.2517
  114MOL   C36545791   5.811   7.813   4.111 -0.2233  1.0396  0.1615
  114MOL   C36645792   5.820   7.856   3.976 -0.3135  0.0517  0.3941
  114MOL   O36745793   5.940   7.898   3.933 -0.0031 -0.1738  0.3925
  114MOL   C36845794   5.957   7.921   3.797  0.2573 -0.3638  0.3017
  114MOL   C36945795   5.702   7.836   3.892  0.2212  0.4036 -0.6630
  114MOL   C37045796   5.587   7.772   3.947 -0.8041 -0.3316  0.3755
  114MOL   C37145797   5.454   7.504   4.086  1.0177  0.2514  0.8973
  114MOL   H37245798   5.460   7.656   4.250 -3.3302  0.6724 -0.9416
  114MOL   H37345799   5.716   7.706   4.263  2.1302  0.3514  0.1180
  114MOL   H37445800   5.898   7.804   4.174  0.8812  1.8465 -1.2195
  114MOL   H37545801   5.926   7.835   3.738 -1.6480  1.4722 -1.4800
  114MOL   H37645802   5.911   8.013   3.758  1.2120 -0.1470 -0.3296
  114MOL   H37745803   6.064   7.932   3.779  0.2166 -0.5084 -0.0316
  114MOL   H37845804   5.693   7.872   3.790 -2.0395  0.5423 -0.4531
  114MOL   H37945805   5.507   7.749   3.878  0.4552  1.4364 -1.7168
  114MOL   H38045806   5.396   7.491   3.995  1.5574 -0.2720  0.6287
  114MOL   H38145807   5.553   7.483   4.047  0.4511  0.1191 -0.4969
  114MOL   C38245808   5.419   7.390   4.186 -0.4599 -0.5457  0.5593
  114MOL   C38345809   5.282   7.402   4.254 -0.1972  0.3191  0.2703
  114MOL   C38445810   5.259   7.448   4.384  0.2651 -0.1639  0.1003
  114MOL   C38545811   5.131   7.449   4.444 -0.3976 -0.1400  0.6774
  114MOL   C38645812   5.026   7.399   4.369 -0.0089  0.0044 -0.0763
  114MOL   O38745813   4.919   7.379   4.453 -0.7315  0.4689 -0.3413
  114MOL   C38845814   4.839   7.266   4.417 -0.5453  0.1165 -0.0278
  114MOL   C38945815   5.039   7.361   4.233 -0.1084 -0.1321  0.0420
  114MOL   C39045816   5.172   7.361   4.180 -0.6303 -0.1945  0.6314
  114MOL   C39145817   5.534   7.363   4.280 -0.3147 -0.3633  0.0631
  114MOL   H39245818   5.415   7.293   4.137 -1.1710  0.1162 -0.7300
  114MOL   H39345819   5.340   7.475   4.451 -0.3250  0.6761  0.4903
  114MOL   H39445820   5.119   7.471   4.549  1.4033 -0.4565  0.9632
  114MOL   H39545821   4.798   7.286   4.318 -1.5189  0.0797  0.3539
  114MOL   H39645822   4.754   7.254   4.484 -1.2832  2.5723 -0.4663
  114MOL   H39745823   4.905   7.180   4.412  0.4027  0.6602  2.3929
  114MOL   H39845824   4.951   7.331   4.177 -0.3024 -2.1383  1.3824
  114MOL   H39945825   5.191   7.322   4.081  3.0396 -0.4637  1.3589
  114MOL   H40045826   5.553   7.449   4.344  0.9369  0.5999 -1.5435
  114MOL   H40145827   5.628   7.348   4.226 -0.1015 -1.2764  0.6674
  114MOL   H40245828   5.504   7.267   4.322 -0.8341 -0.5901 -0.8110
  115MOL     C145829   5.373   1.664   0.992 -0.3381  0.4058 -0.2098
  115MOL     C245830   5.290   1.549   0.930 -0.5745  0.4124 -0.1906
  115MOL     C345831   5.152   1.560   0.922  0.9074  0.2423 -0.6824
  115MOL     C445832   5.070   1.453   0.884  0.0975 -0.1174  0.2351
  115MOL     C545833   5.136   1.328   0.861 -0.3248 -0.0337  0.2224
  115MOL     O645834   5.049   1.227   0.831  0.6683  0.4797 -0.1846
  115MOL     C745835   5.106   1.101   0.792  1.0580 -0.6196  0.4779
  115MOL     C845836   5.280   1.306   0.871 -0.0275  0.0242  0.0392
  115MOL     C945837   5.355   1.423   0.904 -0.4771  0.2121  0.5687
  115MOL    C1045838   5.401   1.777   0.897  0.2682  0.2298  0.9550
  115MOL    H1145839   5.466   1.632   1.040 -1.1276 -1.5169  0.1073
  115MOL    H1245840   5.115   1.656   0.953 -0.2116 -0.3481 -0.1296
  115MOL    H1345841   4.963   1.467   0.882  0.1084  0.2009  1.4495
  115MOL    H1445842   5.173   1.052   0.864  2.5702  0.8543  0.1039
  115MOL    H1545843   5.023   1.033   0.771 -1.0262  1.3310  2.1661
  115MOL    H1645844   5.165   1.112   0.701  1.4613  3.1503  1.1079
  115MOL    H1745845   5.328   1.210   0.854  1.5141  0.6789  0.6307
  115MOL    H1845846   5.462   1.409   0.914 -0.3829  1.3025  1.1675
  115MOL    H1945847   5.455   1.720   0.822  0.0692  1.8634 -0.4583
  115MOL    H2045848   5.313   1.811   0.844  1.8778 -1.4190 -2.9863
  115MOL    H2145849   5.307   1.693   1.074 -0.7005  1.2176 -0.7920
  115MOL    C2245850   5.475   1.894   0.963 -0.1675 -0.8582 -0.4169
  115MOL    C2345851   5.580   1.953   0.868  0.5121  0.4939 -0.2648
  115MOL    C2445852   5.567   2.077   0.799 -0.2778 -0.8920  1.0900
  115MOL    C2545853   5.655   2.112   0.700  0.0275 -0.5788 -0.2176
  115MOL    C2645854   5.775   2.036   0.685 -0.3171 -0.1916  0.1596
  115MOL    O2745855   5.872   2.065   0.595  0.3209  0.1981 -0.1173
  115MOL    C2845856   5.855   2.144   0.479 -0.6882  0.3709  0.2394
  115MOL    C2945857   5.787   1.914   0.747  0.2836 -0.2068 -0.1130
  115MOL    C3045858   5.693   1.879   0.844  0.2843 -0.2322 -0.9999
  115MOL    C3145859   5.378   1.994   1.029  0.2860 -0.1132  0.3962
  115MOL    H3245860   5.537   1.844   1.037  0.3531  1.2674  0.6293
  115MOL    H3345861   5.479   2.136   0.821 -0.6318  0.4229 -3.3661
  115MOL    H3445862   5.637   2.200   0.640  2.4151 -0.0214 -0.1440
  115MOL    H3545863   5.882   2.244   0.512 -2.2299  0.9901 -0.3318
  115MOL    H3645864   5.761   2.132   0.424 -1.3831  1.8967  1.0679
  115MOL    H3745865   5.928   2.133   0.399 -0.9284  0.2648  0.0324
  115MOL    H3845866   5.874   1.851   0.735 -0.2374 -0.9227 -0.1828
  115MOL    H3945867   5.705   1.783   0.892  3.3626  0.0403 -1.1135
  115MOL    H4045868   5.325   2.062   0.963 -0.9207  0.1379  1.5952
  115MOL    H4145869   5.299   1.931   1.068  0.4589 -1.2804 -1.1099
  115MOL    C4245870   5.448   2.085   1.132  0.0813  0.0338 -0.1691
  115MOL    C4345871   5.530   2.010   1.245 -0.2756  0.0779  0.9862
  115MOL    C4445872   5.665   2.043   1.254 -0.5841 -0.4495 -0.2390
  115MOL    C4545873   5.752   1.971   1.337 -0.0232  0.6617  0.3241
  115MOL    C4645874   5.707   1.865   1.414  0.1202  0.2147  0.0421
  115MOL    O4745875   5.793   1.789   1.489  0.4268  0.1019 -0.2835
  115MOL    C4845876   5.931   1.808   1.485  0.2066  0.0139 -0.0048
  115MOL    C4945877   5.571   1.836   1.410  0.1481 -0.0984 -0.7974
  115MOL    C5045878   5.481   1.914   1.331 -0.5551  0.8163  0.2929
  115MOL    C5145879   5.338   2.169   1.213  0.5526 -0.8615  0.9932
  115MOL    H5245880   5.523   2.148   1.084  0.0926 -0.0124 -0.2120
  115MOL    H5345881   5.709   2.116   1.188  0.3830 -0.6001  0.2290
  115MOL    H5445882   5.857   1.994   1.343  0.4143 -1.1719 -0.0085
  115MOL    H5545883   5.978   1.742   1.558  0.7801  2.9855  2.3992
  115MOL    H5645884   5.967   1.789   1.383 -1.9693  2.5255 -1.3065
  115MOL    H5745885   5.965   1.906   1.517 -0.7962  0.4626 -0.3055
  115MOL    H5845886   5.521   1.755   1.462 -0.8894 -0.1245 -1.8243
  115MOL    H5945887   5.379   1.880   1.329  0.1502 -1.4475  0.6533
  115MOL    H6045888   5.339   2.145   1.319 -0.3517  1.1038  1.4635
  115MOL    H6145889   5.245   2.134   1.167  0.9437 -0.4691 -0.1081
  115MOL    C6245890   5.364   2.319   1.209 -0.5310  0.6111  0.4400
  115MOL    C6345891   5.333   2.387   1.070  0.4786  0.2952  0.5506
  115MOL    C6445892   5.435   2.397   0.977 -0.7658 -0.4465 -0.0152
  115MOL    C6545893   5.403   2.434   0.849  0.1491  0.1859  0.1176
  115MOL    C6645894   5.270   2.475   0.816 -0.6958 -0.0441 -0.2619
  115MOL    O6745895   5.249   2.505   0.684  0.0312 -0.5159  0.3767
  115MOL    C6845896   5.117   2.506   0.638  0.2463 -0.1797 -0.6539
  115MOL    C6945897   5.165   2.472   0.910  0.0703 -0.2605 -0.0866
  115MOL    C7045898   5.198   2.422   1.035  0.3525 -0.2309 -0.9662
  115MOL    C7145899   5.502   2.353   1.269 -0.7815  0.1239 -0.0987
  115MOL    H7245900   5.288   2.358   1.278 -0.1714  0.1133  1.1240
  115MOL    H7345901   5.535   2.364   0.999 -0.1593  0.6976 -0.9756
  115MOL    H7445902   5.463   2.436   0.759 -2.0324 -1.8006 -1.4374
  115MOL    H7545903   5.053   2.420   0.659  0.1209  0.3863  1.4142
  115MOL    H7645904   5.109   2.517   0.530  2.6973  0.9499 -0.7463
  115MOL    H7745905   5.057   2.587   0.681  1.3306  0.6887 -0.7431
  115MOL    H7845906   5.062   2.496   0.887 -0.1011 -2.1722 -1.3798
  115MOL    H7945907   5.117   2.414   1.106  1.8520  3.7252  1.3608
  115MOL    H8045908   5.506   2.285   1.354 -0.2313  0.0697 -0.1694
  115MOL    H8145909   5.582   2.329   1.199 -0.5334 -0.8836  0.5195
  115MOL    C8245910   5.517   2.491   1.333  0.0695 -0.7467  1.0356
  115MOL    C8345911   5.594   2.481   1.462  0.0238 -0.2793 -0.0239
  115MOL    C8445912   5.547   2.534   1.584 -0.0530  0.0003 -0.0849
  115MOL    C8545913   5.623   2.535   1.707 -0.2191 -0.8070 -0.1454
  115MOL    C8645914   5.746   2.472   1.707  1.4303  0.1246  0.7249
  115MOL    O8745915   5.832   2.466   1.813 -0.3034  0.4013  0.1715
  115MOL    C8845916   5.793   2.503   1.948 -0.5773  0.0828 -0.4522
  115MOL    C8945917   5.791   2.410   1.582 -0.2925  0.1108  0.2387
  115MOL    C9045918   5.716   2.415   1.464  0.0129 -0.4393 -1.3378
  115MOL    C9145919   5.574   2.597   1.240  0.7995 -0.4448  0.1095
  115MOL    H9245920   5.415   2.521   1.353 -0.3247 -0.4086 -1.3027
  115MOL    H9345921   5.451   2.584   1.590  0.9776  2.2680 -2.0348
  115MOL    H9445922   5.585   2.582   1.796  0.3274 -1.8520  0.6526
  115MOL    H9545923   5.882   2.506   2.011  0.6669 -1.4872 -2.0821
  115MOL    H9645924   5.723   2.428   1.986 -1.6889  1.0671 -0.5183
  115MOL    H9745925   5.750   2.603   1.943 -1.0197  0.0087  1.3407
  115MOL    H9845926   5.880   2.349   1.586  0.2309  0.8675  0.2801
  115MOL    H9945927   5.759   2.368   1.377  2.7186 -0.7054  0.0519
  115MOL   H10045928   5.676   2.562   1.227  0.6107 -0.8032 -0.4326
  115MOL   H10145929   5.526   2.602   1.142  1.5099  1.2178 -0.1785
  115MOL   C10245930   5.585   2.741   1.297  0.4462 -0.2170  0.0797
  115MOL   C10345931   5.663   2.830   1.204  0.6797 -0.2053 -0.3089
  115MOL   C10445932   5.607   2.903   1.102 -0.4376  0.1512  0.2396
  115MOL   C10545933   5.693   2.974   1.014  0.4373  0.0693 -0.1530
  115MOL   C10645934   5.829   2.977   1.026 -0.6139 -0.1751 -0.2413
  115MOL   O10745935   5.896   3.044   0.931 -0.5707 -0.1582  0.0557
  115MOL   C10845936   6.038   3.065   0.949 -0.7605 -0.3203 -0.0481
  115MOL   C10945937   5.884   2.910   1.140  0.1707  0.2506  0.3234
  115MOL   C11045938   5.804   2.844   1.226 -0.5938 -0.3739 -0.5062
  115MOL   C11145939   5.450   2.803   1.338 -0.1106 -0.6256  0.2783
  115MOL   H11245940   5.642   2.738   1.390 -0.3252  1.9413  0.6712
  115MOL   H11345941   5.503   2.907   1.073 -0.4678  1.2259  0.4723
  115MOL   H11445942   5.656   3.030   0.929  2.2073  2.3819  0.5439
  115MOL   H11545943   6.064   3.138   1.026 -1.5394  0.5677 -0.6108
  115MOL   H11645944   6.081   2.970   0.981 -0.6441 -1.2959 -2.9738
  115MOL   H11745945   6.095   3.090   0.859  0.5420 -0.9691  0.5775
  115MOL   H11845946   5.988   2.913   1.167 -0.5316 -1.9353  3.4944
  115MOL   H11945947   5.856   2.804   1.312 -0.1476  4.2272  1.5237
  115MOL   H12045948   5.390   2.803   1.247 -0.4328 -0.6081  0.4857
  115MOL   H12145949   5.399   2.738   1.409 -0.5311 -0.4418  0.1499
  115MOL   C12245950   5.437   2.951   1.402  0.0964  0.6131  0.4082
  115MOL   C12345951   5.539   2.981   1.514  0.4104 -0.6093 -0.2376
  115MOL   C12445952   5.534   2.914   1.633  0.4439 -0.2676  0.1644
  115MOL   C12545953   5.628   2.926   1.735 -0.2115 -0.4954 -0.1536
  115MOL   C12645954   5.725   3.028   1.724 -0.3197  0.4595  0.7403
  115MOL   O12745955   5.810   3.066   1.822 -0.0975  0.3809  0.2035
  115MOL   C12845956   5.821   2.986   1.938  0.0765 -0.1075  0.3189
  115MOL   C12945957   5.730   3.112   1.609 -0.6273  0.1256  0.6134
  115MOL   C13045958   5.632   3.089   1.503 -0.2137  0.0864  0.7167
  115MOL   C13145959   5.296   2.981   1.456  0.3228  0.0501 -0.1383
  115MOL   H13245960   5.441   3.024   1.321  0.3463  0.2351  0.0767
  115MOL   H13345961   5.464   2.831   1.637 -0.7714  0.7831  1.4006
  115MOL   H13445962   5.624   2.859   1.819  2.5306 -3.1579 -1.9949
  115MOL   H13545963   5.840   2.882   1.909  1.3444  0.3160 -0.4243
  115MOL   H13645964   5.912   3.009   1.994  0.6220 -0.5565 -0.3726
  115MOL   H13745965   5.725   2.978   1.988  0.2820  1.2689  0.9640
  115MOL   H13845966   5.800   3.195   1.605  1.2080 -1.4769 -1.2008
  115MOL   H13945967   5.630   3.147   1.412  3.3831  1.7548  1.5943
  115MOL   H14045968   5.270   2.897   1.519  0.6210  0.8269  1.0329
  115MOL   H14145969   5.221   2.975   1.377  1.5397 -0.4282 -1.2788
  115MOL   C14245970   5.268   3.111   1.537 -0.0907  0.0507 -0.0310
  115MOL   C14345971   5.284   3.240   1.452  0.0645  0.0355  0.6847
  115MOL   C14445972   5.362   3.344   1.495  0.2635 -0.1186  0.0193
  115MOL   C14545973   5.369   3.466   1.416 -0.1963  0.0888  0.4893
  115MOL   C14645974   5.297   3.481   1.292 -0.4707 -0.2973  0.8906
  115MOL   O14745975   5.304   3.596   1.219  0.4238  0.5056 -0.4015
  115MOL   C14845976   5.427   3.665   1.230  0.3483  0.1706 -0.4025
  115MOL   C14945977   5.219   3.367   1.257 -0.3414  0.0910 -0.3637
  115MOL   C15045978   5.203   3.255   1.336 -0.1866  0.7874 -0.8498
  115MOL   C15145979   5.131   3.099   1.597 -0.5087 -0.5848 -0.4202
  115MOL   H15245980   5.326   3.107   1.629  0.1535 -0.1721 -0.1947
  115MOL   H15345981   5.410   3.347   1.592  0.7032  1.9788 -0.2292
  115MOL   H15445982   5.420   3.549   1.463 -0.1939  0.9126 -0.9188
  115MOL   H15545983   5.511   3.596   1.228  0.3018  0.1360 -1.7948
  115MOL   H15645984   5.429   3.735   1.147 -0.2949  1.0816  0.3483
  115MOL   H15745985   5.433   3.716   1.325  0.9428  0.5505 -0.6425
  115MOL   H15845986   5.169   3.367   1.161  0.1331  0.2711 -0.6150
  115MOL   H15945987   5.144   3.171   1.303 -1.6839  0.7413  1.7672
  115MOL   H16045988   5.062   3.054   1.526 -0.7859 -1.5630  0.4488
  115MOL   H16145989   5.098   3.201   1.611  0.7035  0.1075 -2.4378
  115MOL   C16245990   5.106   3.037   1.732  0.6305  0.2882  0.2876
  115MOL   C16345991   5.150   2.893   1.744 -0.4744  0.8167  0.1386
  115MOL   C16445992   5.085   2.785   1.674  1.2043 -0.0780 -0.6756
  115MOL   C16545993   5.123   2.652   1.710  0.3633  0.0424 -0.0052
  115MOL   C16645994   5.229   2.627   1.793  0.4444  0.2035  0.0444
  115MOL   O16745995   5.265   2.502   1.845  0.0728 -0.1938  0.3694
  115MOL   C16845996   5.166   2.400   1.831 -0.2128 -0.1020  0.1746
  115MOL   C16945997   5.300   2.728   1.858  0.0529 -0.1643 -0.1973
  115MOL   C17045998   5.260   2.862   1.832  0.2711 -0.2315  0.6369
  115MOL   C17145999   4.967   3.054   1.785 -0.5243 -0.1366 -0.3685
  115MOL   H17246000   5.161   3.103   1.799 -0.2107 -1.0871  2.3767
  115MOL   H17346001   5.005   2.800   1.604 -0.7356  1.0333  1.7338
  115MOL   H17446002   5.065   2.575   1.660 -1.3549  2.3840 -1.6870
  115MOL   H17546003   5.172   2.351   1.734  0.4088 -0.3978  0.3655
  115MOL   H17646004   5.063   2.436   1.832  0.0840  0.9036 -2.6943
  115MOL   H17746005   5.179   2.319   1.903  2.2457  0.2062  0.1260
  115MOL   H17846006   5.390   2.704   1.914 -0.7546 -0.9105  0.7951
  115MOL   H17946007   5.318   2.941   1.876  0.8627  0.1550 -0.8203
  115MOL   H18046008   4.904   2.988   1.726 -0.9702  1.3794 -1.6376
  115MOL   H18146009   4.921   3.145   1.745  1.0929 -0.3527 -2.8864
  115MOL   C18246010   4.940   3.045   1.934  0.0971 -0.9233 -0.3964
  115MOL   C18346011   5.037   3.122   2.017 -0.0541  0.1843  0.1967
  115MOL   C18446012   5.072   3.254   1.976 -0.2194  0.0899  1.3171
  115MOL   C18546013   5.177   3.326   2.043  0.9966  0.2028  0.2096
  115MOL   C18646014   5.243   3.269   2.154 -0.0880 -0.4310 -0.1691
  115MOL   O18746015   5.345   3.324   2.220  0.5722 -0.2924  0.0905
  115MOL   C18846016   5.388   3.449   2.171  0.5745  0.1772 -0.4026
  115MOL   C18946017   5.186   3.151   2.206 -0.3744  0.6214  0.0591
  115MOL   C19046018   5.092   3.072   2.141  0.1452 -0.1220  0.1707
  115MOL   C19146019   4.909   2.899   1.976  0.3189 -0.6180 -0.7005
  115MOL   H19246020   4.838   3.080   1.949 -0.7109 -2.4421 -2.0392
  115MOL   H19346021   5.028   3.303   1.891 -1.8066 -1.0617  1.4641
  115MOL   H19446022   5.214   3.416   1.997  3.6113 -0.3308  1.1802
  115MOL   H19546023   5.322   3.528   2.208 -1.3593 -1.2280 -0.7567
  115MOL   H19646024   5.405   3.456   2.064  2.1132  1.6807 -0.0684
  115MOL   H19746025   5.483   3.470   2.220  1.5443 -1.4476 -1.5521
  115MOL   H19846026   5.226   3.112   2.298 -0.9497  1.4885  0.6816
  115MOL   H19946027   5.061   2.977   2.182  1.4523  0.0856  1.6561
  115MOL   H20046028   4.999   2.838   1.980 -0.3276 -1.4713  2.0245
  115MOL   H20146029   4.879   2.898   2.081 -0.6493  0.3063 -0.9585
  115MOL   C20246030   4.788   2.827   1.910 -0.1367  0.2152  0.0605
  115MOL   C20346031   4.660   2.907   1.891 -0.1808  0.1183 -0.3289
  115MOL   C20446032   4.584   2.953   2.000 -0.5268  0.0823  0.2290
  115MOL   C20546033   4.477   3.040   1.987  0.2288  0.9610  0.4153
  115MOL   C20646034   4.434   3.084   1.860  0.7306  0.4511  0.0213
  115MOL   O20746035   4.329   3.171   1.835  0.2758  0.1893 -0.3416
  115MOL   C20846036   4.216   3.178   1.928  0.1333  0.1068  0.2594
  115MOL   C20946037   4.502   3.031   1.748  0.0841 -0.1917 -0.2370
  115MOL   C21046038   4.612   2.947   1.760 -0.0090 -0.1517  0.5083
  115MOL   C21146039   4.754   2.694   1.982  0.2737  0.1442 -0.2403
  115MOL   H21246040   4.814   2.807   1.806 -0.9782 -0.2297 -0.0736
  115MOL   H21346041   4.612   2.917   2.098 -0.2132  0.7400  0.3852
  115MOL   H21446042   4.426   3.081   2.073 -0.5135  2.6909 -0.8076
  115MOL   H21546043   4.127   3.210   1.873 -0.3478 -2.1850 -0.3487
  115MOL   H21646044   4.186   3.084   1.974 -3.1468  1.1527  0.4269
  115MOL   H21746045   4.227   3.244   2.015 -0.3903 -0.7690  1.0005
  115MOL   H21846046   4.459   3.056   1.652 -0.9301  0.3140  0.3368
  115MOL   H21946047   4.651   2.913   1.665 -1.6685 -0.6924  0.0114
  115MOL   H22046048   4.718   2.723   2.081 -1.3996 -0.5069 -0.6382
  115MOL   H22146049   4.840   2.631   2.005  0.2739 -0.0405 -0.7542
  115MOL   C22246050   4.647   2.609   1.914  0.2541  0.5298  0.3662
  115MOL   C22346051   4.668   2.581   1.764 -0.4348 -0.1633 -0.3144
  115MOL   C22446052   4.557   2.597   1.678 -0.0978  0.0607  0.5511
  115MOL   C22546053   4.567   2.566   1.540  0.6014 -0.3645  0.3458
  115MOL   C22646054   4.688   2.511   1.490 -0.2617 -0.4182  1.2355
  115MOL   O22746055   4.692   2.492   1.351 -0.1661  0.0381  0.1490
  115MOL   C22846056   4.791   2.415   1.297 -0.5861  0.4513  0.0274
  115MOL   C22946057   4.796   2.495   1.583  0.2551  0.5426  0.7262
  115MOL   C23046058   4.786   2.521   1.717  0.4747  0.4296 -0.0962
  115MOL   C23146059   4.619   2.482   2.000  0.1842  0.5250 -0.7746
  115MOL   H23246060   4.554   2.667   1.914 -0.7565 -1.0378  0.6550
  115MOL   H23346061   4.465   2.642   1.710  0.8766  0.8026  2.3700
  115MOL   H23446062   4.489   2.578   1.466 -2.0397 -0.9669  2.9438
  115MOL   H23546063   4.768   2.415   1.190 -2.8787 -0.4771  0.4735
  115MOL   H23646064   4.886   2.462   1.321 -0.7577  1.1338 -0.6166
  115MOL   H23746065   4.793   2.317   1.346  2.0290  0.3320 -0.2927
  115MOL   H23846066   4.892   2.459   1.548 -0.5526  0.3847 -1.4297
  115MOL   H23946067   4.867   2.510   1.788  0.1265  0.8911  0.3733
  115MOL   H24046068   4.600   2.514   2.102  1.7505  1.5922 -0.8042
  115MOL   H24146069   4.524   2.450   1.959  0.2871 -3.0534  1.5693
  115MOL   C24246070   4.709   2.361   1.998 -0.0521  0.2644 -0.3622
  115MOL   C24346071   4.798   2.352   2.121  0.0887 -0.0779 -0.2593
  115MOL   C24446072   4.745   2.321   2.247  0.2374  0.2713 -1.3787
  115MOL   C24546073   4.824   2.315   2.360 -0.7306  0.2177 -0.1822
  115MOL   C24646074   4.969   2.324   2.349 -0.1134  0.0243  0.1504
  115MOL   O24746075   5.051   2.306   2.462 -0.2007  1.1575 -0.2336
  115MOL   C24846076   5.195   2.296   2.444  0.0474  0.7024  0.4435
  115MOL   C24946077   5.023   2.347   2.221  0.5850 -0.1519 -0.1574
  115MOL   C25046078   4.936   2.367   2.112 -0.1927  0.1794  0.1688
  115MOL   C25146079   4.615   2.236   1.995 -0.2137 -0.0774  0.2017
  115MOL   H25246080   4.775   2.343   1.914  0.8297  0.8222  0.2006
  115MOL   H25346081   4.637   2.322   2.254  0.1148  0.7968 -2.9453
  115MOL   H25446082   4.778   2.330   2.457 -1.0402  1.5597 -0.5222
  115MOL   H25546083   5.216   2.196   2.406 -3.0534  0.7155 -1.4376
  115MOL   H25646084   5.234   2.366   2.369  0.7172  2.0659  2.0231
  115MOL   H25746085   5.248   2.321   2.536  0.4385 -0.7310  0.6146
  115MOL   H25846086   5.130   2.351   2.206  0.3278  0.7639 -1.7686
  115MOL   H25946087   4.978   2.390   2.015 -3.3751 -2.5312 -1.9930
  115MOL   H26046088   4.576   2.244   1.894 -1.1667  0.3966  0.5976
  115MOL   H26146089   4.532   2.248   2.065  0.8399  1.0403  1.2916
  115MOL   C26246090   4.687   2.099   1.978 -0.4374  0.7794  0.2323
  115MOL   C26346091   4.754   2.098   1.839  0.1862 -0.3209  0.1217
  115MOL   C26446092   4.890   2.114   1.833  0.2267 -0.4151 -0.1465
  115MOL   C26546093   4.953   2.118   1.706  0.6328  0.0091 -0.0640
  115MOL   C26646094   4.882   2.115   1.585 -0.4959 -0.2081  0.3248
  115MOL   O26746095   4.935   2.128   1.461  0.0214 -0.2312  0.3717
  115MOL   C26846096   5.048   2.048   1.439 -0.9895 -0.0867 -0.2222
  115MOL   C26946097   4.743   2.099   1.597  0.0641 -0.3435  0.1435
  115MOL   C27046098   4.679   2.093   1.720 -0.7619  0.2624  0.1782
  115MOL   C27146099   4.588   1.993   2.000  0.1284 -0.5834  0.3283
  115MOL   H27246100   4.761   2.091   2.058  1.0951 -1.8076 -1.3838
  115MOL   H27346101   4.949   2.123   1.923 -1.5959  1.0976  0.9347
  115MOL   H27446102   5.060   2.129   1.709  0.6860 -0.6923  0.5393
  115MOL   H27546103   5.040   1.945   1.472  0.2183 -0.4124 -0.9153
  115MOL   H27646104   5.138   2.086   1.487 -1.0250 -1.4643  0.9474
  115MOL   H27746105   5.072   2.042   1.332 -0.4270  0.2106 -0.1135
  115MOL   H27846106   4.691   2.071   1.506 -0.5920 -0.9218  0.6932
  115MOL   H27946107   4.575   2.065   1.727  0.0565 -2.4805  2.1519
  115MOL   H28046108   4.491   2.018   1.956 -0.7590 -2.0198  1.3896
  115MOL   H28146109   4.621   1.905   1.945  3.8150  1.9909 -1.7923
  115MOL   C28246110   4.557   1.954   2.155 -0.3928  0.3208 -0.4171
  115MOL   C28346111   4.678   1.882   2.220  0.4010  0.1743 -0.0292
  115MOL   C28446112   4.696   1.744   2.204 -0.2345 -0.3579 -0.3536
  115MOL   C28546113   4.802   1.675   2.271 -0.4404 -0.3680  0.2464
  115MOL   C28646114   4.898   1.752   2.345 -0.2947  0.2133 -0.1901
  115MOL   O28746115   4.993   1.673   2.399  0.3027  0.4340  0.2284
  115MOL   C28846116   5.088   1.727   2.487 -0.6099 -0.0990  0.1056
  115MOL   C28946117   4.878   1.892   2.365 -0.3994 -0.0618 -0.0047
  115MOL   C29046118   4.762   1.951   2.307 -0.1075 -0.3367  0.4259
  115MOL   C29146119   4.419   1.894   2.182  0.3168  0.0147 -0.4044
  115MOL   H29246120   4.551   2.051   2.205  0.1611  1.6582 -2.8607
  115MOL   H29346121   4.632   1.686   2.140 -0.8495 -1.3823  1.1577
  115MOL   H29446122   4.819   1.570   2.257  0.8333 -0.3556  1.5369
  115MOL   H29546123   5.127   1.654   2.558 -1.6964 -0.4805  0.3271
  115MOL   H29646124   5.172   1.758   2.426 -0.2291  1.5206  1.4340
  115MOL   H29746125   5.044   1.805   2.549  0.6335  1.1019 -0.4929
  115MOL   H29846126   4.951   1.941   2.428  0.0547  0.5204 -0.9727
  115MOL   H29946127   4.756   2.058   2.320 -0.4660 -0.2311 -0.5407
  115MOL   H30046128   4.427   1.789   2.155 -0.1577 -0.1439  0.0783
  115MOL   H30146129   4.404   1.898   2.290  1.3468 -3.3292 -0.0908
  115MOL   C30246130   4.291   1.941   2.112  0.2070 -0.0036 -0.0251
  115MOL   C30346131   4.181   1.841   2.150  0.1837 -0.4649  0.1156
  115MOL   C30446132   4.120   1.847   2.273  0.3379 -0.0924 -0.5024
  115MOL   C30546133   4.019   1.761   2.307  0.4547 -0.3062 -0.2609
  115MOL   C30646134   3.962   1.673   2.218 -0.6382 -0.4600  0.0513
  115MOL   O30746135   3.848   1.602   2.259  0.3695 -0.3391  0.4837
  115MOL   C30846136   3.762   1.564   2.154 -0.3337 -1.0167 -0.3078
  115MOL   C30946137   4.022   1.664   2.090  0.3352  0.2049 -0.4496
  115MOL   C31046138   4.136   1.742   2.058  0.4222  0.1591  0.1335
  115MOL   C31146139   4.253   2.093   2.132 -0.1065  0.1678 -0.3306
  115MOL   H31246140   4.312   1.914   2.008 -0.9127 -2.2945  0.2936
  115MOL   H31346141   4.156   1.915   2.349  0.0725  0.5953 -0.9953
  115MOL   H31446142   3.966   1.771   2.401  0.1205  0.6192 -0.5489
  115MOL   H31546143   3.674   1.532   2.209  0.6062 -0.8205  1.3624
  115MOL   H31646144   3.798   1.480   2.094  1.8950 -0.0983 -0.3003
  115MOL   H31746145   3.737   1.643   2.084  1.0376 -1.7792 -1.7033
  115MOL   H31846146   3.981   1.590   2.022 -1.0960  0.3145  0.2882
  115MOL   H31946147   4.196   1.721   1.970  2.3079  0.7998  1.2450
  115MOL   H32046148   4.341   2.159   2.129 -0.9786  1.2814 -2.0653
  115MOL   H32146149   4.218   2.107   2.234  0.9167  2.7447 -0.2909
  115MOL   C32246150   4.149   2.157   2.042 -0.2379 -0.1805 -0.0148
  115MOL   C32346151   4.205   2.150   1.903  0.5574 -0.4350  0.7065
  115MOL   C32446152   4.307   2.236   1.863 -0.3671  0.8083 -0.0764
  115MOL   C32546153   4.360   2.232   1.731 -0.0368 -0.5671  0.1064
  115MOL   C32646154   4.315   2.134   1.637  0.2488  0.0727 -0.3593
  115MOL   O32746155   4.377   2.114   1.516 -0.3132 -0.0760 -0.3958
  115MOL   C32846156   4.438   2.226   1.458  0.3689 -0.5377 -0.2368
  115MOL   C32946157   4.210   2.046   1.681 -0.6757 -0.3718 -0.2680
  115MOL   C33046158   4.156   2.058   1.808 -0.4598  0.1403  0.1258
  115MOL   C33146159   4.124   2.305   2.087  0.2013 -0.8358  0.4403
  115MOL   H33246160   4.057   2.099   2.044  0.0544 -0.7052 -1.2489
  115MOL   H33346161   4.356   2.306   1.930  1.3082 -0.5560  0.1543
  115MOL   H33446162   4.446   2.292   1.706 -0.7868  0.6841  0.4713
  115MOL   H33546163   4.545   2.243   1.467  0.4008 -0.6627 -0.3685
  115MOL   H33646164   4.388   2.319   1.483 -0.8110 -1.5649  1.3706
  115MOL   H33746165   4.419   2.213   1.351  0.7430 -1.8917 -0.1445
  115MOL   H33846166   4.167   1.972   1.614 -2.4980 -1.0054  1.5698
  115MOL   H33946167   4.083   1.986   1.844  0.3791 -0.1536  1.2675
  115MOL   H34046168   4.194   2.329   2.167  0.2001  1.4128 -0.2109
  115MOL   H34146169   4.144   2.376   2.007  0.4676 -0.9201  0.4323
  115MOL   C34246170   3.983   2.334   2.147  0.6734 -0.4642 -0.2443
  115MOL   C34346171   3.975   2.278   2.287  0.2150  0.1713 -0.2877
  115MOL   C34446172   3.959   2.136   2.309 -0.0860  0.4182 -0.0607
  115MOL   C34546173   3.944   2.085   2.438 -0.4220 -0.0809  0.3063
  115MOL   C34646174   3.953   2.174   2.547 -0.5727 -0.3027 -0.4370
  115MOL   O34746175   3.942   2.114   2.674 -0.2122 -0.1419  0.4111
  115MOL   C34846176   3.987   2.197   2.786  1.1880  0.4884  0.9248
  115MOL   C34946177   3.969   2.315   2.529 -0.0613  0.5138  0.0469
  115MOL   C35046178   3.974   2.363   2.397  0.0873 -0.4817  0.0394
  115MOL   C35146179   3.860   2.310   2.045 -0.7261 -0.4220  0.4107
  115MOL   H35246180   3.989   2.443   2.159  0.2202 -0.1816 -2.4705
  115MOL   H35346181   3.966   2.067   2.226 -0.7464  0.9392 -0.5563
  115MOL   H35446182   3.930   1.979   2.451  2.0076 -0.4366  0.3005
  115MOL   H35546183   4.017   2.120   2.857 -0.5580 -1.3250 -0.2318
  115MOL   H35646184   4.070   2.266   2.770  0.5731  0.8196 -0.9627
  115MOL   H35746185   3.909   2.261   2.827 -0.2983 -0.5605 -0.2012
  115MOL   H35846186   3.977   2.380   2.614  0.9219  0.7309 -0.2139
  115MOL   H35946187   3.979   2.470   2.384  1.1541 -0.8173 -2.6905
  115MOL   H36046188   3.834   2.206   2.064 -1.0100 -0.4567 -0.1328
  115MOL   H36146189   3.775   2.366   2.084 -1.3947 -1.2429  0.1546
  115MOL   C36246190   3.876   2.334   1.888 -0.3344  0.6469 -0.1701
  115MOL   C36346191   3.939   2.471   1.870 -0.3554 -0.8914 -0.2152
  115MOL   C36446192   3.872   2.588   1.912  0.4172 -0.2205  0.5319
  115MOL   C36546193   3.929   2.712   1.885 -0.2208  0.6058 -1.2908
  115MOL   C36646194   4.049   2.728   1.817  0.5476  0.1147  0.3675
  115MOL   O36746195   4.096   2.854   1.794 -0.4211  0.2645  0.6317
  115MOL   C36846196   4.201   2.875   1.700 -0.0299 -0.1983  0.4415
  115MOL   C36946197   4.111   2.615   1.765 -0.2726  0.0216  0.4426
  115MOL   C37046198   4.059   2.488   1.793 -0.5083  0.4368  0.7938
  115MOL   C37146199   3.737   2.335   1.819  0.6168 -0.2864 -0.0337
  115MOL   H37246200   3.936   2.249   1.856 -0.8640  0.0237  0.4850
  115MOL   H37346201   3.780   2.588   1.969 -0.0816  0.2835 -0.2553
  115MOL   H37446202   3.877   2.801   1.918  1.7853  0.6895  1.8284
  115MOL   H37546203   4.169   2.843   1.601  0.4250 -1.8802  0.8209
  115MOL   H37646204   4.223   2.978   1.675 -0.8141 -0.2812 -0.6504
  115MOL   H37746205   4.295   2.824   1.723  0.4594 -0.5361 -2.1211
  115MOL   H37846206   4.199   2.626   1.702  0.7866 -0.2769  1.8512
  115MOL   H37946207   4.118   2.408   1.750  1.6909  1.9287  0.8887
  115MOL   H38046208   3.666   2.397   1.872 -0.6532 -1.0017 -0.8738
  115MOL   H38146209   3.741   2.371   1.716 -1.6413 -1.0224 -0.4014
  115MOL   C38246210   3.658   2.200   1.811 -0.0327  0.4025  0.3123
  115MOL   C38346211   3.740   2.074   1.775 -0.0896  0.4156  0.3662
  115MOL   C38446212   3.785   2.078   1.641 -0.0669  0.1764 -0.4671
  115MOL   C38546213   3.861   1.971   1.594  0.3156 -0.2327 -0.3578
  115MOL   C38646214   3.881   1.857   1.673  0.0973  0.0835 -0.6067
  115MOL   O38746215   3.942   1.742   1.627  0.6124 -0.1226  0.4045
  115MOL   C38846216   3.954   1.737   1.485  0.5828  0.8786 -0.4383
  115MOL   C38946217   3.827   1.852   1.805 -0.1504  0.4866 -0.1955
  115MOL   C39046218   3.756   1.962   1.855 -0.9229  0.2631  0.0204
  115MOL   C39146219   3.527   2.216   1.728 -1.0067  0.6865 -0.8215
  115MOL   H39246220   3.628   2.184   1.914  0.1935  2.1732  0.6646
  115MOL   H39346221   3.778   2.158   1.569  1.8471  0.6595 -0.1445
  115MOL   H39446222   3.901   1.982   1.494 -0.2355 -2.8640 -0.9014
  115MOL   H39546223   3.992   1.643   1.444  0.0652  1.5276 -2.5061
  115MOL   H39646224   4.038   1.801   1.460 -0.7225  2.6332 -0.4103
  115MOL   H39746225   3.863   1.762   1.429  1.5137  0.8257 -2.0254
  115MOL   H39846226   3.837   1.770   1.874 -0.0234 -0.1452 -0.9657
  115MOL   H39946227   3.733   1.956   1.961  0.8739 -0.0124  0.4118
  115MOL   H40046228   3.477   2.309   1.757  0.1463  0.7140  1.1746
  115MOL   H40146229   3.465   2.126   1.738 -1.5394  1.3228  2.1548
  115MOL   H40246230   3.545   2.229   1.622  0.5514  0.3272 -0.6046
  116MOL     C146231   2.061   6.061   2.275  0.5549  0.0518  0.5215
  116MOL     C246232   2.142   5.991   2.376  0.2537 -0.2961  1.1073
  116MOL     C346233   2.251   6.051   2.437 -0.9435 -0.0907 -0.0135
  116MOL     C446234   2.324   5.988   2.540 -0.5580  0.3584  0.4827
  116MOL     C546235   2.292   5.858   2.578  0.2832 -0.2556  0.7611
  116MOL     O646236   2.355   5.802   2.685 -0.0386  0.1895  0.3639
  116MOL     C746237   2.320   5.670   2.726 -0.6044 -0.8020 -0.2181
  116MOL     C846238   2.182   5.789   2.515  0.0030  0.1797 -0.9306
  116MOL     C946239   2.112   5.858   2.411  0.6234 -0.3201  0.1894
  116MOL    C1046240   2.136   6.065   2.141  0.6474  0.3773 -0.9339
  116MOL    H1146241   2.035   6.164   2.299  0.0598  0.2434 -0.7850
  116MOL    H1246242   2.285   6.149   2.408 -0.5747  0.3046  1.6672
  116MOL    H1346243   2.391   6.057   2.589  0.0152  0.6511 -0.6903
  116MOL    H1446244   2.350   5.596   2.652 -0.9741  2.2135 -3.4983
  116MOL    H1546245   2.356   5.650   2.827 -0.1731 -2.4274 -0.6770
  116MOL    H1646246   2.214   5.666   2.751  0.0415 -1.1680  2.7270
  116MOL    H1746247   2.152   5.687   2.531  2.8477 -0.9226 -2.1711
  116MOL    H1846248   2.042   5.809   2.345  0.3156 -0.5962  0.7208
  116MOL    H1946249   2.223   6.129   2.126  2.2228 -1.6861 -0.8569
  116MOL    H2046250   2.183   5.967   2.139  0.4749  0.2861 -0.5877
  116MOL    H2146251   1.965   6.010   2.265 -0.7578  2.2187  1.6971
  116MOL    C2246252   2.047   6.089   2.022 -0.3429  0.4851  0.1590
  116MOL    C2346253   1.971   6.221   2.030 -0.0497  0.2418 -0.0537
  116MOL    C2446254   1.832   6.232   2.057  0.0293  0.5779 -0.2842
  116MOL    C2546255   1.763   6.361   2.044 -0.1218  0.1154  0.4961
  116MOL    C2646256   1.840   6.478   2.031  0.3480 -0.3720  0.9834
  116MOL    O2746257   1.776   6.603   2.007 -0.5369  0.7945 -0.3047
  116MOL    C2846258   1.853   6.718   1.989 -0.7205 -0.4410  0.2667
  116MOL    C2946259   1.984   6.465   2.024  0.4710  0.4630 -0.2427
  116MOL    C3046260   2.048   6.340   2.014 -0.5120  0.1609  0.0657
  116MOL    C3146261   2.124   6.072   1.886  0.5631 -0.5081 -0.0234
  116MOL    H3246262   1.963   6.020   2.027  0.8851 -1.0598 -0.2424
  116MOL    H3346263   1.783   6.138   2.075  3.5223 -1.4805 -0.9956
  116MOL    H3446264   1.655   6.368   2.045 -0.1190  0.2916 -0.3348
  116MOL    H3546265   1.897   6.733   2.087 -1.0500 -0.6897  0.4556
  116MOL    H3646266   1.792   6.805   1.966  2.0146  1.4370 -0.1734
  116MOL    H3746267   1.934   6.702   1.918 -0.0089  0.0402  0.9677
  116MOL    H3846268   2.043   6.555   2.022  2.7744 -0.9655  1.1896
  116MOL    H3946269   2.156   6.335   2.010 -0.6123 -0.6038 -2.1422
  116MOL    H4046270   2.209   6.140   1.899 -0.5029  0.7520  0.5401
  116MOL    H4146271   2.166   5.972   1.881 -0.9295 -1.1268 -0.3741
  116MOL    C4246272   2.050   6.122   1.762 -0.1021  0.0647 -0.0951
  116MOL    C4346273   1.919   6.038   1.748 -0.2946  0.7268  0.5523
  116MOL    C4446274   1.801   6.110   1.714  0.5339  0.3868 -0.1100
  116MOL    C4546275   1.681   6.042   1.710  0.1779 -0.5278  0.7529
  116MOL    C4646276   1.676   5.904   1.732 -0.8045 -0.0608 -0.4796
  116MOL    O4746277   1.552   5.849   1.730 -0.2520 -0.1479  0.1012
  116MOL    C4846278   1.537   5.718   1.778 -0.5154  0.0673  0.2347
  116MOL    C4946279   1.798   5.830   1.734 -0.0254  0.4371  0.0184
  116MOL    C5046280   1.917   5.897   1.750 -0.6952  0.1454 -0.5331
  116MOL    C5146281   2.135   6.129   1.628  0.2256 -0.5407  0.5550
  116MOL    H5246282   2.025   6.227   1.780  1.9278  0.4179  0.8522
  116MOL    H5346283   1.806   6.210   1.674 -0.6220  0.7560  0.6373
  116MOL    H5446284   1.593   6.099   1.683  1.5027  1.5168  0.6686
  116MOL    H5546285   1.566   5.723   1.883  1.6194 -2.1534 -0.2002
  116MOL    H5646286   1.431   5.693   1.783 -0.5208  0.0386 -0.0327
  116MOL    H5746287   1.594   5.645   1.720  0.5278  1.6484 -0.7572
  116MOL    H5846288   1.789   5.723   1.727 -0.4659  0.3833  1.3206
  116MOL    H5946289   2.009   5.841   1.761 -0.9791  0.1009  1.8737
  116MOL    H6046290   2.066   6.167   1.552  0.7980 -3.6383 -1.5780
  116MOL    H6146291   2.163   6.032   1.587 -0.1934  0.7580 -2.9449
  116MOL    C6246292   2.267   6.206   1.615 -0.7935 -0.2250  0.3828
  116MOL    C6346293   2.259   6.335   1.699  0.1508 -0.1569  0.0609
  116MOL    C6446294   2.356   6.367   1.799 -0.0226 -0.8356 -0.2488
  116MOL    C6546295   2.351   6.491   1.861 -0.3377  0.0850  0.6639
  116MOL    C6646296   2.249   6.582   1.827 -0.3237  0.5166  0.2360
  116MOL    O6746297   2.234   6.709   1.882 -0.6700  0.3528 -1.0472
  116MOL    C6846298   2.351   6.776   1.919 -0.0873  0.4568 -0.7316
  116MOL    C6946299   2.146   6.547   1.740  0.4313 -0.0629 -0.1695
  116MOL    C7046300   2.154   6.428   1.667  0.2387 -0.7531 -0.1325
  116MOL    C7146301   2.315   6.234   1.468  0.7767  0.3365  0.7104
  116MOL    H7246302   2.340   6.153   1.677  1.8150 -0.5938 -2.8262
  116MOL    H7346303   2.440   6.300   1.809 -0.4219 -0.8358  3.7999
  116MOL    H7446304   2.422   6.520   1.937  0.0509  0.9098  0.0038
  116MOL    H7546305   2.326   6.881   1.913 -1.5726  0.2589  1.4284
  116MOL    H7646306   2.432   6.757   1.849  1.7324  0.2022  1.3691
  116MOL    H7746307   2.380   6.753   2.022  1.5286  1.3081 -0.9935
  116MOL    H7846308   2.070   6.621   1.720  1.1127  0.8634  0.5982
  116MOL    H7946309   2.075   6.395   1.601  1.8229 -1.3780 -1.7907
  116MOL    H8046310   2.332   6.138   1.418  2.5020  0.4606  1.0322
  116MOL    H8146311   2.236   6.280   1.409  2.8672  1.8356 -0.9876
  116MOL    C8246312   2.439   6.325   1.458  0.1779  0.2621 -0.7757
  116MOL    C8346313   2.562   6.267   1.526 -0.2334 -0.2659  0.0007
  116MOL    C8446314   2.598   6.130   1.506  0.8745 -0.1261 -0.3174
  116MOL    C8546315   2.715   6.078   1.569 -0.3452 -0.1556 -0.1039
  116MOL    C8646316   2.797   6.163   1.645  0.2321  0.5382 -0.0620
  116MOL    O8746317   2.920   6.133   1.689 -0.1757  0.3536  0.0212
  116MOL    C8846318   2.957   6.002   1.680 -0.4212  0.0349 -0.4958
  116MOL    C8946319   2.752   6.293   1.672 -0.0536 -0.4364 -0.6780
  116MOL    C9046320   2.633   6.348   1.612 -0.5826  0.4891 -0.0803
  116MOL    C9146321   2.485   6.363   1.311  0.2328 -0.5748  0.0558
  116MOL    H9246322   2.415   6.411   1.522 -0.9919 -1.5192  1.2539
  116MOL    H9346323   2.531   6.067   1.447  1.2768 -0.5941 -0.2765
  116MOL    H9446324   2.731   5.972   1.555 -1.3157 -0.2713 -0.3644
  116MOL    H9546325   2.952   5.953   1.583  1.6047 -1.3559  0.0654
  116MOL    H9646326   2.898   5.931   1.738 -1.0132 -0.9322 -2.2364
  116MOL    H9746327   3.056   5.993   1.725 -0.8078  1.0985  0.5792
  116MOL    H9846328   2.814   6.360   1.730  3.3373 -3.2088 -0.9473
  116MOL    H9946329   2.608   6.449   1.640  2.8498  1.3753 -0.0259
  116MOL   H10046330   2.590   6.389   1.309 -0.2141  1.4782  1.7885
  116MOL   H10146331   2.471   6.276   1.246 -1.5018  0.0829 -0.4924
  116MOL   C10246332   2.407   6.474   1.240  0.1943 -0.2077 -0.3125
  116MOL   C10346333   2.418   6.608   1.316  0.0913 -0.2345  0.6017
  116MOL   C10446334   2.336   6.640   1.421  0.9415 -0.3456  0.0661
  116MOL   C10546335   2.338   6.758   1.491 -0.1258  0.2211 -0.1157
  116MOL   C10646336   2.432   6.855   1.462 -0.0670  0.4468  0.6944
  116MOL   O10746337   2.416   6.974   1.530  0.1428 -0.2606  0.1857
  116MOL   C10846338   2.514   7.077   1.509 -0.0167  0.1839  0.1318
  116MOL   C10946339   2.531   6.820   1.362 -0.2089  0.2035 -0.0085
  116MOL   C11046340   2.516   6.704   1.281  0.5535 -0.3557 -0.5336
  116MOL   C11146341   2.443   6.481   1.086  0.5037  0.1156 -0.9149
  116MOL   H11246342   2.306   6.437   1.257  0.5931 -0.1070  2.6260
  116MOL   H11346343   2.267   6.561   1.446  3.1723 -1.7136  2.1567
  116MOL   H11446344   2.262   6.782   1.563 -0.5664  1.2153 -0.8884
  116MOL   H11546345   2.509   7.117   1.408 -1.1322 -1.2570 -0.3857
  116MOL   H11646346   2.473   7.161   1.566 -1.0717 -1.5711  2.0567
  116MOL   H11746347   2.617   7.051   1.533 -0.2720 -0.0914  0.9475
  116MOL   H11846348   2.611   6.889   1.341  0.6171 -1.0093 -0.9607
  116MOL   H11946349   2.584   6.675   1.202 -0.8247  0.2400 -1.9498
  116MOL   H12046350   2.549   6.505   1.077  1.3770 -2.6960  1.0537
  116MOL   H12146351   2.432   6.382   1.041  0.3767 -1.0445  1.5589
  116MOL   C12246352   2.338   6.563   1.003  0.3898  0.3465 -0.2651
  116MOL   C12346353   2.195   6.511   1.024  0.7331  0.0799 -0.0260
  116MOL   C12446354   2.094   6.601   1.060  0.5713 -0.5967 -0.7356
  116MOL   C12546355   1.965   6.550   1.082  0.2198  0.6202 -0.0167
  116MOL   C12646356   1.936   6.413   1.073  0.2233  0.5474  0.4075
  116MOL   O12746357   1.806   6.378   1.093  0.3127  0.4769  0.2146
  116MOL   C12846358   1.769   6.245   1.122  0.1230 -0.3320 -0.1880
  116MOL   C12946359   2.043   6.324   1.030 -0.3355  0.4181 -0.6883
  116MOL   C13046360   2.167   6.374   1.004  0.6188 -0.6025  0.2976
  116MOL   C13146361   2.368   6.564   0.850 -0.2935 -0.1308 -0.0012
  116MOL   H13246362   2.336   6.665   1.041  0.1009 -0.5685  2.3606
  116MOL   H13346363   2.126   6.702   1.081 -0.8322 -0.5468  1.3040
  116MOL   H13446364   1.880   6.612   1.107 -2.0583 -2.5768  0.3492
  116MOL   H13546365   1.761   6.184   1.032 -0.1652  0.3263 -0.6108
  116MOL   H13646366   1.840   6.196   1.189  1.2883  1.4089 -0.1092
  116MOL   H13746367   1.670   6.231   1.168 -0.0088 -0.4533 -0.5087
  116MOL   H13846368   2.033   6.217   1.029 -0.9147  0.4641 -0.5622
  116MOL   H13946369   2.247   6.307   0.975  0.7833 -1.4555  2.6114
  116MOL   H14046370   2.271   6.582   0.803  0.2892 -1.4340 -1.7687
  116MOL   H14146371   2.389   6.465   0.810  0.3120 -0.4914  1.2112
  116MOL   C14246372   2.480   6.667   0.807  0.0483  1.0168 -0.7605
  116MOL   C14346373   2.611   6.620   0.854  0.1134  0.7502  0.2039
  116MOL   C14446374   2.688   6.712   0.923  0.5855 -0.6226 -0.2549
  116MOL   C14546375   2.812   6.673   0.984  0.5847  0.2054  0.0722
  116MOL   C14646376   2.867   6.543   0.956 -0.4721  0.2191 -0.4466
  116MOL   O14746377   2.999   6.507   0.981  0.1585  0.0529  0.2146
  116MOL   C14846378   3.067   6.584   1.082  0.5334 -0.6605  0.1532
  116MOL   C14946379   2.791   6.455   0.886  0.4784 -0.4593  0.1716
  116MOL   C15046380   2.663   6.489   0.831  0.5094 -0.7055 -0.1699
  116MOL   C15146381   2.485   6.694   0.656  0.1339  0.1810  0.5432
  116MOL   H15246382   2.470   6.760   0.864 -1.4145  0.4808 -0.1086
  116MOL   H15346383   2.654   6.813   0.943 -1.2217 -1.2410 -0.0790
  116MOL   H15446384   2.871   6.748   1.035 -0.1378 -0.1126  1.3972
  116MOL   H15546385   3.001   6.585   1.169 -0.5507 -2.1638 -0.6313
  116MOL   H15646386   3.163   6.535   1.103  1.1070  0.6650  0.6567
  116MOL   H15746387   3.086   6.687   1.052 -0.3044  0.1000  2.0827
  116MOL   H15846388   2.831   6.357   0.862 -1.5023 -1.1151 -0.5834
  116MOL   H15946389   2.609   6.416   0.773  1.6707 -0.3170 -1.7735
  116MOL   H16046390   2.384   6.711   0.617  0.4776  1.0397  0.0132
  116MOL   H16146391   2.519   6.605   0.604 -1.2947 -0.1737  0.1842
  116MOL   C16246392   2.583   6.807   0.591  0.4167  0.0068 -0.3579
  116MOL   C16346393   2.505   6.938   0.579  0.1715  0.2939 -0.2827
  116MOL   C16446394   2.543   7.051   0.658  0.5658 -0.5999  0.3695
  116MOL   C16546395   2.489   7.178   0.638 -0.0818 -0.2128  0.5756
  116MOL   C16646396   2.390   7.199   0.538 -0.1016  0.3506  0.4867
  116MOL   O16746397   2.355   7.328   0.507  0.3493  0.1294 -0.0596
  116MOL   C16846398   2.247   7.348   0.413 -0.6271 -0.0014 -0.8926
  116MOL   C16946399   2.344   7.086   0.468 -0.1264  0.2116  0.1175
  116MOL   C17046400   2.407   6.958   0.480 -0.8193 -0.2059 -0.0187
  116MOL   C17146401   2.636   6.765   0.452  0.2399  0.1426  0.8459
  116MOL   H17246402   2.665   6.824   0.661  0.6505  1.0977 -0.8848
  116MOL   H17346403   2.620   7.031   0.730  0.8831 -1.2285 -0.1360
  116MOL   H17446404   2.524   7.266   0.689 -1.0497 -0.9946  2.6491
  116MOL   H17546405   2.290   7.332   0.314 -1.2353  0.2088 -1.1919
  116MOL   H17646406   2.204   7.448   0.422  1.8223  0.9273  1.3776
  116MOL   H17746407   2.163   7.281   0.428  1.5025 -1.9161  3.4512
  116MOL   H17846408   2.273   7.098   0.388  0.1385  2.5914  0.1899
  116MOL   H17946409   2.372   6.879   0.416  0.1739 -0.3729 -0.3774
  116MOL   H18046410   2.644   6.854   0.390 -0.6315  0.5406  1.2969
  116MOL   H18146411   2.557   6.711   0.399  2.1546 -0.1069 -1.8586
  116MOL   C18246412   2.770   6.696   0.447  0.0441 -0.4511 -0.0897
  116MOL   C18346413   2.882   6.788   0.503 -0.4026  0.4838 -0.0423
  116MOL   C18446414   2.953   6.773   0.622 -0.2124  0.1895 -0.3055
  116MOL   C18546415   3.060   6.864   0.661 -0.0444  0.2345 -0.7854
  116MOL   C18646416   3.088   6.972   0.576  0.7424 -0.3570  0.0162
  116MOL   O18746417   3.171   7.067   0.632  0.9218  0.1551 -0.7822
  116MOL   C18846418   3.213   7.186   0.561  0.4647 -0.7049  0.3703
  116MOL   C18946419   3.004   7.001   0.465  0.2727 -0.5001  0.2464
  116MOL   C19046420   2.906   6.905   0.425 -0.5782  0.5723 -0.1783
  116MOL   C19146421   2.803   6.634   0.307 -0.6453  0.2434 -0.7375
  116MOL   H19246422   2.754   6.614   0.518  1.2066 -0.8484 -0.2727
  116MOL   H19346423   2.941   6.688   0.687 -1.4061 -0.1518 -0.9579
  116MOL   H19446424   3.115   6.835   0.750 -0.1362 -1.5653 -1.2819
  116MOL   H19546425   3.296   7.240   0.608  0.0605 -1.7808  2.3863
  116MOL   H19646426   3.132   7.255   0.541  0.9466 -0.4203 -0.6048
  116MOL   H19746427   3.256   7.158   0.465 -0.5512  0.7231 -0.4959
  116MOL   H19846428   3.020   7.088   0.403 -3.6211 -0.3242 -0.6361
  116MOL   H19946429   2.845   6.931   0.341  0.8730 -1.6127 -1.9637
  116MOL   H20046430   2.784   6.710   0.231 -0.2304  0.5893 -0.4993
  116MOL   H20146431   2.907   6.604   0.309 -0.8396 -0.4015 -0.0016
  116MOL   C20246432   2.734   6.508   0.260 -0.5411 -0.1937 -0.1679
  116MOL   C20346433   2.752   6.393   0.358  0.5027  0.7421 -0.0373
  116MOL   C20446434   2.645   6.331   0.427 -0.0006  0.2834  0.3332
  116MOL   C20546435   2.661   6.213   0.504 -0.3859 -0.3678 -0.0135
  116MOL   C20646436   2.787   6.160   0.519  0.1479 -0.2037  0.1920
  116MOL   O20746437   2.801   6.048   0.606  0.2750  0.4205  0.2393
  116MOL   C20846438   2.927   5.987   0.613  0.6536 -0.0849  0.3779
  116MOL   C20946439   2.897   6.216   0.450 -0.3032  0.3618 -0.6028
  116MOL   C21046440   2.876   6.325   0.367 -0.7096 -0.2334  0.3836
  116MOL   C21146441   2.769   6.475   0.110  0.5855 -0.1650 -0.4587
  116MOL   H21246442   2.627   6.527   0.266 -0.1397  2.0041  0.6940
  116MOL   H21346443   2.544   6.367   0.430  0.1277  0.5402  2.5150
  116MOL   H21446444   2.571   6.169   0.543  0.2539 -0.8707  0.9184
  116MOL   H21546445   2.962   5.950   0.516  0.0845 -1.4880  0.6875
  116MOL   H21646446   2.997   6.062   0.648 -0.7100  1.6871 -0.5954
  116MOL   H21746447   2.930   5.906   0.686  0.9616 -0.0220  0.4331
  116MOL   H21846448   2.999   6.181   0.463 -0.5025  0.0204  0.0714
  116MOL   H21946449   2.962   6.375   0.324 -1.4484  0.8938  0.1903
  116MOL   H22046450   2.859   6.413   0.109  0.0244 -0.9816 -1.7580
  116MOL   H22146451   2.783   6.570   0.057 -0.3105 -0.6137 -1.5248
  116MOL   C22246452   2.656   6.403   0.035  0.6198  0.3021  0.0523
  116MOL   C22346453   2.523   6.488   0.006 -0.3311  0.3850 -0.1282
  116MOL   C22446454   2.401   6.416   8.033 -0.8924 -0.7865  0.2137
  116MOL   C22546455   2.289   6.488   7.993 -0.2767 -0.0863 -0.2795
  116MOL   C22646456   2.293   6.629   7.984  0.7371 -0.6577  0.1054
  116MOL   O22746457   2.175   6.698   7.953  0.4968 -0.1323 -0.2564
  116MOL   C22846458   2.175   6.838   7.973  0.0948 -0.6678  0.0862
  116MOL   C22946459   2.414   6.701   8.009  0.1741  0.1884 -0.1160
  116MOL   C23046460   2.532   6.631   8.023 -0.3514  0.8407  0.1130
  116MOL   C23146461   2.698   6.343   7.939 -0.0155  0.2562 -0.3002
  116MOL   H23246462   2.616   6.320   0.093  1.3602 -0.1816 -0.1270
  116MOL   H23346463   2.400   6.308   8.027  1.0005 -0.8181  0.3018
  116MOL   H23446464   2.203   6.427   7.975  1.4331 -1.7228 -3.3115
  116MOL   H23546465   2.084   6.886   7.938  0.2552 -2.4111 -2.8023
  116MOL   H23646466   2.198   6.872   0.035 -0.4121 -0.9594  0.2981
  116MOL   H23746467   2.245   6.878   7.900 -0.2772 -2.7736 -1.4491
  116MOL   H23846468   2.421   6.808   7.998  2.1521  0.0452 -0.3656
  116MOL   H23946469   2.623   6.688   8.033  0.1500  0.3450 -1.3708
  116MOL   H24046470   2.614   6.302   7.883  1.5980 -0.3532 -2.3349
  116MOL   H24146471   2.732   6.423   7.872 -0.9857 -0.3602 -1.5560
  116MOL   C24246472   2.796   6.218   7.951 -0.1806  0.0751 -0.3067
  116MOL   C24346473   2.745   6.107   7.854 -0.2103 -0.0644  0.1216
  116MOL   C24446474   2.653   6.007   7.894 -0.1941 -0.6466 -0.4392
  116MOL   C24546475   2.613   5.903   7.807 -0.4425  0.7472 -1.0965
  116MOL   C24646476   2.652   5.891   7.676 -0.0588  0.4856  0.0265
  116MOL   O24746477   2.595   5.796   7.602  0.6872  0.0905  0.2773
  116MOL   C24846478   2.604   5.805   7.456 -0.2182  0.3964 -1.2875
  116MOL   C24946479   2.741   5.987   7.633  0.1476 -0.7600 -0.6852
  116MOL   C25046480   2.781   6.096   7.718 -0.4029 -0.4832 -0.5441
  116MOL   C25146481   2.945   6.258   7.928 -0.2827 -0.0153  0.8076
  116MOL   H25246482   2.800   6.164   0.006  1.4806  0.6498 -0.0257
  116MOL   H25346483   2.609   6.011   7.992  0.9568  0.7508  0.0450
  116MOL   H25446484   2.553   5.822   7.846  0.1474  1.6896  1.9021
  116MOL   H25546485   2.702   5.772   7.421  0.0999 -2.0215  1.6308
  116MOL   H25646486   2.529   5.751   7.399  0.6039 -0.4821 -1.5422
  116MOL   H25746487   2.606   5.904   7.411 -1.0557  0.9686 -0.0976
  116MOL   H25846488   2.789   5.978   7.536 -3.5893 -1.8021 -2.5347
  116MOL   H25946489   2.860   6.159   7.678 -1.8975  0.7407 -1.6235
  116MOL   H26046490   2.951   6.362   7.960 -1.9918 -0.3731  2.4342
  116MOL   H26146491   2.975   6.256   7.823  1.9755 -4.7769  1.4360
  116MOL   C26246492   3.051   6.190   8.016 -0.2140 -0.3549 -0.9800
  116MOL   C26346493   3.192   6.252   8.002 -0.6956  0.3952  0.2507
  116MOL   C26446494   3.274   6.268   0.076 -0.1270  0.2416 -0.1265
  116MOL   C26546495   3.400   6.330   0.056  0.1563  0.7704  0.0524
  116MOL   C26646496   3.443   6.363   7.969  0.1179 -0.1197  0.3568
  116MOL   O26746497   3.569   6.419   7.967 -0.0719 -0.4119 -0.1894
  116MOL   C26846498   3.634   6.429   7.841  0.1636 -0.6693  0.2709
  116MOL   C26946499   3.371   6.332   7.852  0.8493 -0.1252  0.6763
  116MOL   C27046500   3.240   6.280   7.872  0.2799  0.4544 -0.3573
  116MOL   C27146501   3.058   6.039   7.985 -0.3673 -0.4944  0.2539
  116MOL   H27246502   3.028   6.209   0.081  0.5612  0.9951 -1.0328
  116MOL   H27346503   3.250   6.246   0.179  0.9584  2.2305  0.5754
  116MOL   H27446504   3.457   6.342   0.146 -1.0089  1.2024  0.7420
  116MOL   H27546505   3.578   6.497   7.777  2.7863  1.2757 -0.0407
  116MOL   H27646506   3.650   6.329   7.798 -1.0743 -0.9143  0.3678
  116MOL   H27746507   3.733   6.473   7.853 -0.9926  1.8375  0.9308
  116MOL   H27846508   3.388   6.355   7.748  0.8164 -1.4553  0.3703
  116MOL   H27946509   3.186   6.256   7.782 -0.1999 -2.0561  0.5460
  116MOL   H28046510   3.024   6.026   7.882  4.2364  0.4835 -1.5023
  116MOL   H28146511   3.161   6.003   7.985 -0.9740 -2.2930 -0.1121
  116MOL   C28246512   2.997   5.939   0.046  0.3600  0.1129 -0.0142
  116MOL   C28346513   3.112   5.926   0.149  0.5162  0.2489  0.2627
  116MOL   C28446514   3.216   5.831   0.133 -0.0013 -0.1649  0.0998
  116MOL   C28546515   3.316   5.811   0.229  0.2546  0.5492  0.3619
  116MOL   C28646516   3.323   5.892   0.343 -0.1540  0.1927 -0.3796
  116MOL   O28746517   3.428   5.880   0.433 -0.0764  0.0852 -0.3781
  116MOL   C28846518   3.540   5.792   0.406  0.1526 -0.0154  0.4887
  116MOL   C28946519   3.217   5.979   0.366  0.1557  0.0386  0.7881
  116MOL   C29046520   3.118   6.003   0.268 -0.7529 -0.5936  0.5934
  116MOL   C29146521   2.954   5.813   8.011  0.2277  0.4330 -0.4548
  116MOL   H29246522   2.907   5.983   0.090 -0.8560 -1.3113 -1.0379
  116MOL   H29346523   3.226   5.767   0.047 -0.0232 -0.5049  0.3514
  116MOL   H29446524   3.384   5.728   0.214  0.0999  0.4059  0.4586
  116MOL   H29546525   3.569   5.787   0.301 -1.2643 -2.0475  0.1795
  116MOL   H29646526   3.628   5.837   0.453 -0.3350  0.0173  1.3849
  116MOL   H29746527   3.531   5.694   0.452 -0.0869  0.8366  2.3073
  116MOL   H29846528   3.220   6.041   0.455  1.2912 -0.7005  1.2866
  116MOL   H29946529   3.045   6.081   0.283 -0.1151 -0.0360  0.8256
  116MOL   H30046530   2.880   5.848   7.939 -1.0050 -1.7288 -0.2729
  116MOL   H30146531   3.034   5.777   7.947 -0.0731  1.0591 -1.1855
  116MOL   C30246532   2.902   5.692   0.050 -0.5690  0.9100  0.6231
  116MOL   C30346533   2.773   5.723   0.123  0.2406 -0.3821  0.0571
  116MOL   C30446534   2.781   5.791   0.245  0.2922  0.0586 -0.4855
  116MOL   C30546535   2.663   5.819   0.316 -0.8038 -1.0607 -0.0420
  116MOL   C30646536   2.535   5.794   0.268 -0.3245  0.1017  0.0070
  116MOL   O30746537   2.417   5.827   0.336  0.3990  0.5538  0.4880
  116MOL   C30846538   2.424   5.869   0.465  0.2967 -0.3954 -0.2122
  116MOL   C30946539   2.529   5.727   0.140 -0.2073 -0.0887 -0.7070
  116MOL   C31046540   2.648   5.688   0.069 -0.0172 -0.2313 -0.5923
  116MOL   C31146541   2.892   5.578   7.985  0.3728  0.4456 -0.3038
  116MOL   H31246542   2.978   5.661   0.121 -0.0908  3.0372  1.0682
  116MOL   H31346543   2.877   5.805   0.292 -0.2045 -0.9275  0.8688
  116MOL   H31446544   2.680   5.858   0.416  1.0915  0.3994 -0.8978
  116MOL   H31546545   2.460   5.972   0.463 -0.7439 -0.0453 -1.0206
  116MOL   H31646546   2.492   5.812   0.529  2.7350  2.3091 -0.2693
  116MOL   H31746547   2.326   5.873   0.512  1.7887 -0.0520  3.0065
  116MOL   H31846548   2.430   5.704   0.103 -0.1083 -1.9538  0.1103
  116MOL   H31946549   2.636   5.645   8.010 -1.1372  0.4085 -0.7490
  116MOL   H32046550   2.993   5.568   7.946  0.9826  1.8695  0.8656
  116MOL   H32146551   2.836   5.619   7.901  0.2895 -0.8905 -0.9008
  116MOL   C32246552   2.847   5.436   8.018 -0.3712  0.2427 -0.3634
  116MOL   C32346553   2.907   5.379   0.110 -0.1538 -0.4478 -0.0179
  116MOL   C32446554   2.821   5.300   0.195  0.1752 -0.2568 -0.3422
  116MOL   C32546555   2.860   5.242   0.319 -0.2386  0.4553 -0.2008
  116MOL   C32646556   2.992   5.261   0.364 -0.5812 -0.6823 -0.2712
  116MOL   O32746557   3.044   5.232   0.488  0.1625  0.4727  0.4149
  116MOL   C32846558   2.971   5.146   0.571  0.4852  0.8504  0.2864
  116MOL   C32946559   3.078   5.330   0.276  0.7757 -0.6394  0.2460
  116MOL   C33046560   3.042   5.386   0.149  0.7888  0.3139 -0.0244
  116MOL   C33146561   2.877   5.333   7.909 -0.2656 -0.0010  0.0842
  116MOL   H33246562   2.739   5.436   8.032 -0.2631 -0.6096  0.5153
  116MOL   H33346563   2.723   5.276   0.156  1.1149 -0.6908 -2.5084
  116MOL   H33446564   2.783   5.192   0.376  2.6112 -0.9109  2.6136
  116MOL   H33546565   2.882   5.198   0.608 -0.1657  0.6396 -0.9437
  116MOL   H33646566   3.027   5.104   0.654  0.2293  0.8722  0.4729
  116MOL   H33746567   2.924   5.059   0.525 -0.7606  0.6627  1.8797
  116MOL   H33846568   3.179   5.346   0.311  0.9323  2.8603 -1.5456
  116MOL   H33946569   3.123   5.429   0.092 -0.9921 -0.3395 -3.2013
  116MOL   H34046570   2.984   5.326   7.890 -0.5041  1.8053 -2.0494
  116MOL   H34146571   2.844   5.239   7.954 -1.0012 -0.4738 -1.4274
  116MOL   C34246572   2.813   5.347   7.776 -0.1768 -0.4978  0.0630
  116MOL   C34346573   2.657   5.370   7.784  0.2193  0.9018  0.2834
  116MOL   C34446574   2.610   5.491   7.747 -0.3882 -1.1127  0.6441
  116MOL   C34546575   2.476   5.531   7.769 -0.2373 -0.6265  0.3727
  116MOL   C34646576   2.384   5.437   7.823 -0.0543  0.4481 -0.3306
  116MOL   O34746577   2.249   5.467   7.855 -0.1871  0.7081  0.2896
  116MOL   C34846578   2.199   5.596   7.817  0.1436 -0.4065  0.3595
  116MOL   C34946579   2.438   5.303   7.857  0.1127  0.0477  0.5673
  116MOL   C35046580   2.572   5.270   7.839  0.3759 -0.1035  0.8549
  116MOL   C35146581   2.835   5.217   7.682 -0.0227  0.5124 -0.6590
  116MOL   H35246582   2.856   5.430   7.720 -1.0703 -0.0891 -0.0238
  116MOL   H35346583   2.672   5.566   7.702 -0.3956 -1.7521 -0.4681
  116MOL   H35446584   2.455   5.633   7.742 -0.1451 -1.1845 -1.8685
  116MOL   H35546585   2.094   5.609   7.845 -0.2097  0.6329 -1.3318
  116MOL   H35646586   2.256   5.675   7.864 -0.0766  0.4155 -0.7330
  116MOL   H35746587   2.214   5.598   7.709 -0.2043 -1.1200  0.2962
  116MOL   H35846588   2.372   5.220   7.882  0.7315 -0.2190  1.3685
  116MOL   H35946589   2.606   5.169   7.857  0.0067 -0.0972  1.6055
  116MOL   H36046590   2.852   5.136   7.753 -0.3047  1.2628  0.2754
  116MOL   H36146591   2.737   5.194   7.640 -1.2608  0.4857  2.1444
  116MOL   C36246592   2.930   5.230   7.566  0.0241  0.3641 -0.0097
  116MOL   C36346593   2.870   5.327   7.465  0.3600  0.5187  0.2026
  116MOL   C36446594   2.767   5.285   7.371  0.7165  0.4428  0.0777
  116MOL   C36546595   2.724   5.380   7.278  0.4344 -0.5415 -0.5912
  116MOL   C36646596   2.779   5.517   7.270  0.0285  0.4488 -0.0472
  116MOL   O36746597   2.743   5.613   7.177 -0.1144  0.1076 -0.2802
  116MOL   C36846598   2.629   5.591   7.099  0.3158 -0.8223  0.1186
  116MOL   C36946599   2.881   5.546   7.362 -0.0117 -0.7571 -0.2955
  116MOL   C37046600   2.925   5.458   7.458 -0.3022 -0.4148 -0.2942
  116MOL   C37146601   2.966   5.090   7.511  0.7933  0.4256 -0.0301
  116MOL   H37246602   3.028   5.263   7.601  0.0880 -0.4622  0.5922
  116MOL   H37346603   2.740   5.180   7.366  1.1287  0.4260 -2.5004
  116MOL   H37446604   2.657   5.341   7.202  0.9109  0.7630 -1.7071
  116MOL   H37546605   2.635   5.506   7.031  2.7131 -0.6134  0.0080
  116MOL   H37646606   2.535   5.585   7.153 -0.2722 -1.1669 -0.9271
  116MOL   H37746607   2.622   5.681   7.037 -0.6548 -1.8668 -1.3172
  116MOL   H37846608   2.932   5.640   7.349 -1.9171  0.0555 -2.3122
  116MOL   H37946609   3.011   5.477   7.521  0.3051 -0.2461 -1.1771
  116MOL   H38046610   2.961   5.018   7.593 -0.1935  0.5201 -0.0090
  116MOL   H38146611   2.882   5.048   7.456 -0.5867  0.3830  2.0674
  116MOL   C38246612   3.097   5.066   7.434  1.2776  0.1099  0.3324
  116MOL   C38346613   3.214   5.115   7.515  0.0153  0.4289 -0.0607
  116MOL   C38446614   3.258   5.032   7.621  0.1925 -0.2716  0.4600
  116MOL   C38546615   3.367   5.068   7.701  0.0734 -0.0008  0.4540
  116MOL   C38646616   3.442   5.175   7.667  0.0822 -0.3549  0.3743
  116MOL   O38746617   3.557   5.189   7.740  0.3378  0.4336  0.0630
  116MOL   C38846618   3.656   5.285   7.690  0.0754  0.5225  0.6233
  116MOL   C38946619   3.410   5.253   7.553  0.3610 -0.2478  0.1990
  116MOL   C39046620   3.291   5.228   7.484 -0.7102  0.1827  0.5791
  116MOL   C39146621   3.088   5.127   7.294  0.9953  0.5166 -0.6555
  116MOL   H39246622   3.105   4.958   7.422 -0.8178  0.1834 -2.0144
  116MOL   H39346623   3.207   4.937   7.636  0.6844 -0.7092 -0.6091
  116MOL   H39446624   3.392   5.003   7.783 -1.7510 -0.9292  0.2962
  116MOL   H39546625   3.757   5.271   7.727  0.3609  1.8063  0.3586
  116MOL   H39646626   3.635   5.392   7.700 -1.4670  0.4555 -1.4271
  116MOL   H39746627   3.664   5.267   7.583 -1.0134 -1.3233  0.8334
  116MOL   H39846628   3.455   5.348   7.532  0.5861 -0.3526  0.2088
  116MOL   H39946629   3.268   5.297   7.404  1.7678 -0.6334 -0.9130
  116MOL   H40046630   3.077   5.235   7.293 -2.9022  0.1662 -1.3225
  116MOL   H40146631   2.998   5.085   7.248 -0.1186  1.5566  0.5569
  116MOL   H40246632   3.176   5.109   7.231  1.4223  0.5087 -0.0646
  117MOL     C146633   1.296   7.391   6.948  0.2370  0.0443 -0.3448
  117MOL     C246634   1.418   7.478   6.916 -0.5615 -0.2118 -0.7161
  117MOL     C346635   1.397   7.613   6.892  0.6442  0.3851 -0.2517
  117MOL     C446636   1.511   7.694   6.862 -0.8695  0.2867  0.3115
  117MOL     C546637   1.643   7.641   6.861  0.0968 -0.1806 -0.3807
  117MOL     O646638   1.750   7.720   6.831 -0.5601 -0.1342 -0.0320
  117MOL     C746639   1.880   7.676   6.862  0.4755 -0.4834  0.6136
  117MOL     C846640   1.664   7.504   6.888  0.9158 -0.2342 -0.1376
  117MOL     C946641   1.548   7.421   6.901  0.2920 -0.4646 -0.3255
  117MOL    C1046642   1.253   7.284   6.837 -0.0142 -0.2810  0.7120
  117MOL    H1146643   1.210   7.447   6.982 -0.6525 -1.3602 -0.2331
  117MOL    H1246644   1.296   7.651   6.898  0.5919  0.0594  1.1559
  117MOL    H1346645   1.511   7.802   6.855  1.5283  0.2552 -0.4347
  117MOL    H1446646   1.951   7.757   6.879 -0.5234  0.0838  2.1528
  117MOL    H1546647   1.888   7.608   6.947  1.6555  0.3707  1.2079
  117MOL    H1646648   1.918   7.633   6.769 -0.4758  0.6260 -0.2872
  117MOL    H1746649   1.756   7.449   6.886  0.0405 -1.7259  0.0604
  117MOL    H1846650   1.569   7.316   6.914  1.0990 -0.4314 -1.3131
  117MOL    H1946651   1.225   7.344   6.750  0.9573  2.7521  2.4195
  117MOL    H2046652   1.345   7.234   6.806  0.4062  1.4983 -0.9699
  117MOL    H2146653   1.313   7.347   7.046 -0.2775  0.7915  0.0798
  117MOL    C2246654   1.155   7.171   6.878  0.1315 -0.2624  0.0575
  117MOL    C2346655   1.028   7.215   6.949 -0.2480  0.1439  0.0817
  117MOL    C2446656   0.945   7.310   6.882 -0.4763 -0.1759 -0.3764
  117MOL    C2546657   0.822   7.346   6.942  0.1511 -0.1665  0.5077
  117MOL    C2646658   0.784   7.282   7.067 -0.6104 -0.3255 -0.4382
  117MOL    O2746659   0.675   7.312   7.142  0.3116 -0.7041 -0.0409
  117MOL    C2846660   0.569   7.379   7.083  0.4570  0.3238 -0.2007
  117MOL    C2946661   0.868   7.191   7.123 -0.5469 -0.1072  0.9075
  117MOL    C3046662   0.987   7.156   7.069 -0.2812  0.0769  0.5224
  117MOL    C3146663   1.117   7.076   6.762  0.3153  0.2213 -0.2338
  117MOL    H3246664   1.210   7.115   6.953  2.7892 -1.6072 -2.8011
  117MOL    H3346665   0.970   7.353   6.787  1.9479 -1.3392 -0.2955
  117MOL    H3446666   0.752   7.415   6.896 -0.0990  0.1155  1.2963
  117MOL    H3546667   0.527   7.342   6.989  0.1187  1.6597 -0.5852
  117MOL    H3646668   0.602   7.480   7.060 -1.4681  1.3237  1.2586
  117MOL    H3746669   0.486   7.389   7.153  1.0707 -1.2843  0.7741
  117MOL    H3846670   0.836   7.152   7.218 -3.0257 -1.1699 -0.3328
  117MOL    H3946671   1.043   7.076   7.115 -1.1391 -0.4679  0.6347
  117MOL    H4046672   1.031   7.123   6.713 -0.2834  0.2536  0.8229
  117MOL    H4146673   1.202   7.084   6.694  0.4588  1.1628  0.0498
  117MOL    C4246674   1.080   6.936   6.801  0.7184  0.1256 -0.2472
  117MOL    C4346675   1.202   6.841   6.837 -0.7046 -0.0628 -0.7602
  117MOL    C4446676   1.321   6.850   6.757 -0.2565 -0.0553  0.0662
  117MOL    C4546677   1.427   6.758   6.785  0.5778 -0.1336  0.4876
  117MOL    C4646678   1.423   6.675   6.893  0.4692 -0.0570 -1.0769
  117MOL    O4746679   1.522   6.581   6.898 -0.1142 -0.1539 -0.2075
  117MOL    C4846680   1.519   6.475   6.990  0.1882 -0.4256  0.2431
  117MOL    C4946681   1.314   6.685   6.986  0.5017 -0.1803 -0.5064
  117MOL    C5046682   1.203   6.764   6.953  0.6692  0.2052 -0.4674
  117MOL    C5146683   0.993   6.864   6.695 -0.2262 -0.5147 -0.6514
  117MOL    H5246684   1.016   6.943   6.889 -0.7415  2.4989 -1.4303
  117MOL    H5346685   1.325   6.913   6.670  0.6006  0.2302  0.2991
  117MOL    H5446686   1.505   6.750   6.710 -0.8028 -1.0631 -0.8592
  117MOL    H5546687   1.432   6.413   6.969  0.2236 -0.0964 -0.9457
  117MOL    H5646688   1.614   6.423   6.980  0.0144 -0.7395  0.2164
  117MOL    H5746689   1.515   6.515   7.091  2.0536  0.2583  0.0670
  117MOL    H5846690   1.315   6.628   7.078 -2.6031 -0.1378 -0.3753
  117MOL    H5946691   1.121   6.769   7.023  0.5703 -0.5351 -0.5304
  117MOL    H6046692   1.007   6.757   6.707 -0.8334 -0.5239 -0.0085
  117MOL    H6146693   1.039   6.887   6.599 -0.2814 -0.4793 -0.6694
  117MOL    C6246694   0.848   6.920   6.707  0.2259  0.6470  0.2727
  117MOL    C6346695   0.776   6.867   6.830  0.7947  0.1806 -0.7708
  117MOL    C6446696   0.718   6.962   6.918  0.2729  0.0853  0.2076
  117MOL    C6546697   0.644   6.913   7.021  0.0492  0.5470  0.3227
  117MOL    C6646698   0.653   6.777   7.061  0.1576 -0.2184  0.2305
  117MOL    O6746699   0.584   6.739   7.173 -0.1753 -0.1388  0.2506
  117MOL    C6846700   0.516   6.618   7.175  0.3265 -0.6148  0.4226
  117MOL    C6946701   0.715   6.681   6.974  0.7761 -0.2964 -0.1102
  117MOL    C7046702   0.781   6.726   6.861 -0.2082 -0.1077  0.0432
  117MOL    C7146703   0.774   6.885   6.579  0.5612  0.1314  0.0389
  117MOL    H7246704   0.849   7.029   6.707  1.0660  0.6789 -1.7085
  117MOL    H7346705   0.716   7.069   6.905  3.2644  0.1276 -0.3886
  117MOL    H7446706   0.598   6.968   7.102  0.5086  0.3248  0.7386
  117MOL    H7546707   0.451   6.603   7.089  0.1103 -0.9575  0.6450
  117MOL    H7646708   0.457   6.632   7.266  2.3578  2.4986  1.3211
  117MOL    H7746709   0.575   6.534   7.213 -0.0993 -1.4370 -0.7277
  117MOL    H7846710   0.707   6.576   6.995 -0.2374 -0.5933 -1.9017
  117MOL    H7946711   0.829   6.657   6.793 -1.1988 -1.1566  0.4120
  117MOL    H8046712   0.833   6.928   6.498 -1.4218  2.0142 -0.4583
  117MOL    H8146713   0.776   6.776   6.568 -1.8875 -0.0722  1.3610
  117MOL    C8246714   0.629   6.940   6.564 -0.3047 -0.0306 -0.6352
  117MOL    C8346715   0.608   7.089   6.599 -0.3154  0.4537 -0.0664
  117MOL    C8446716   0.694   7.180   6.544  0.2255 -0.0635  0.2438
  117MOL    C8546717   0.658   7.313   6.539 -0.2470 -0.3410  0.7366
  117MOL    C8646718   0.540   7.355   6.606 -0.6095  0.4291 -0.4299
  117MOL    O8746719   0.519   7.495   6.586  1.1300  0.6092 -0.0222
  117MOL    C8846720   0.386   7.540   6.609  0.1368 -0.3130 -0.8596
  117MOL    C8946721   0.452   7.262   6.666  0.4738  0.3891 -0.0056
  117MOL    C9046722   0.489   7.127   6.664  0.9095  0.6809  0.1696
  117MOL    C9146723   0.572   6.896   6.431 -0.5329 -0.5305  0.7345
  117MOL    H9246724   0.574   6.893   6.646 -0.2783  2.5103  0.8959
  117MOL    H9346725   0.785   7.139   6.502 -0.5824 -0.3548 -1.2662
  117MOL    H9446726   0.724   7.391   6.502 -1.8980  0.1204 -1.3575
  117MOL    H9546727   0.385   7.640   6.566  2.3043  0.3895  0.6345
  117MOL    H9646728   0.366   7.554   6.715  2.2150 -1.6262 -0.2675
  117MOL    H9746729   0.303   7.480   6.572  1.6174 -2.7879 -0.2236
  117MOL    H9846730   0.367   7.297   6.722 -0.0499 -1.2422  0.2495
  117MOL    H9946731   0.424   7.057   6.716 -1.1955  1.6382 -1.0854
  117MOL   H10046732   0.476   6.947   6.425  0.8361  2.0878  0.3491
  117MOL   H10146733   0.629   6.937   6.348  1.7223 -1.6572  1.6913
  117MOL   C10246734   0.537   6.743   6.418 -0.1771  0.0037  0.5135
  117MOL   C10346735   0.407   6.714   6.488 -0.5038 -0.9929  0.5271
  117MOL   C10446736   0.402   6.645   6.607  0.2148 -0.2271  0.0795
  117MOL   C10546737   0.275   6.621   6.669 -0.2255 -0.0282  0.6230
  117MOL   C10646738   0.158   6.667   6.610  0.1462  0.2000 -0.0977
  117MOL   O10746739   0.050   6.628   6.680 -0.1435  0.6223  0.4090
  117MOL   C10846740   7.968   6.670   6.618  0.0348  0.4649 -0.3765
  117MOL   C10946741   0.158   6.733   6.486 -0.0119 -0.0480  0.0809
  117MOL   C11046742   0.284   6.766   6.434  0.0175  0.0367 -0.4837
  117MOL   C11146743   0.537   6.695   6.267  0.1887 -0.2597 -0.4849
  117MOL   H11246744   0.619   6.690   6.466  0.7331  2.4947  1.8080
  117MOL   H11346745   0.497   6.612   6.646  1.6854  0.8319 -2.5236
  117MOL   H11446746   0.275   6.561   6.758  3.7087 -0.9329  0.1258
  117MOL   H11546747   7.967   6.611   6.526 -0.7306 -1.5841  0.9084
  117MOL   H11646748   7.875   6.649   6.670  0.3199 -0.4300 -0.2091
  117MOL   H11746749   7.966   6.777   6.601  1.2892  0.5257 -0.1895
  117MOL   H11846750   0.070   6.779   6.443 -0.6040 -0.2255  1.0884
  117MOL   H11946751   0.282   6.825   6.344  0.7321 -0.8080 -1.0546
  117MOL   H12046752   0.439   6.687   6.220  0.1266  0.8591 -0.5710
  117MOL   H12146753   0.576   6.785   6.219 -1.3729  2.1191  2.5978
  117MOL   C12246754   0.617   6.571   6.229 -0.5476  0.7921 -1.1558
  117MOL   C12346755   0.752   6.552   6.301 -0.1311  0.2978  0.2079
  117MOL   C12446756   0.839   6.663   6.313  0.1057  0.1322  0.3778
  117MOL   C12546757   0.966   6.652   6.364 -0.1319  0.5324 -0.1825
  117MOL   C12646758   1.007   6.530   6.424  0.4077  0.3692  0.5390
  117MOL   O12746759   1.135   6.510   6.476 -0.0679  0.4036 -0.1252
  117MOL   C12846760   1.238   6.608   6.464 -0.0871  0.5972 -0.6098
  117MOL   C12946761   0.914   6.420   6.431 -0.1396 -0.0241 -0.0092
  117MOL   C13046762   0.784   6.433   6.376 -0.1186  0.5631  0.7001
  117MOL   C13146763   0.633   6.536   6.072  0.2903 -0.5379 -0.6093
  117MOL   H13246764   0.570   6.484   6.275  2.7856 -1.1610 -1.2946
  117MOL   H13346765   0.799   6.756   6.275 -1.6875 -0.5800  0.5085
  117MOL   H13446766   1.029   6.739   6.361  0.4118  0.1390 -0.3589
  117MOL   H13546767   1.277   6.623   6.363  1.4262 -1.1846 -0.3149
  117MOL   H13646768   1.210   6.702   6.513  0.4909  0.6554 -0.3861
  117MOL   H13746769   1.321   6.573   6.526  0.3600 -0.8505 -2.0012
  117MOL   H13846770   0.946   6.331   6.483 -0.6020  0.1302  0.5380
  117MOL   H13946771   0.717   6.349   6.390  0.9974 -0.5939 -0.7360
  117MOL   H14046772   0.729   6.493   6.042 -0.4376 -1.4151 -1.6920
  117MOL   H14146773   0.644   6.631   6.020 -1.3906 -0.4415 -0.8150
  117MOL   C14246774   0.526   6.464   6.016 -0.5444 -0.2825 -0.1625
  117MOL   C14346775   0.538   6.473   5.861  0.4217  0.0328 -0.1389
  117MOL   C14446776   0.422   6.509   5.787  0.0198  0.0165 -0.0320
  117MOL   C14546777   0.416   6.512   5.646 -0.0636 -0.4315  0.0698
  117MOL   C14646778   0.525   6.459   5.578 -0.4901 -0.4696 -0.2981
  117MOL   O14746779   0.540   6.441   5.440  0.2627  0.1149  0.1876
  117MOL   C14846780   0.417   6.456   5.365 -0.0875  0.0476 -0.1124
  117MOL   C14946781   0.635   6.410   5.652 -0.1731  0.4723 -0.5108
  117MOL   C15046782   0.647   6.420   5.790  0.2234  0.5435  0.3413
  117MOL   C15146783   0.525   6.315   6.054  0.6608  0.5120  0.2691
  117MOL   H15246784   0.439   6.518   6.054 -2.1331 -1.5294 -1.9241
  117MOL   H15346785   0.338   6.540   5.848  1.8742  0.6423  2.2651
  117MOL   H15446786   0.326   6.537   5.591  0.4475 -1.8282 -1.4615
  117MOL   H15546787   0.432   6.424   5.262 -3.5314  0.4928 -0.8226
  117MOL   H15646788   0.330   6.403   5.404 -0.4187 -1.4267 -2.7772
  117MOL   H15746789   0.394   6.563   5.366  0.9868  0.2879 -0.1575
  117MOL   H15846790   0.715   6.369   5.593 -1.0226  0.2572 -1.5380
  117MOL   H15946791   0.730   6.385   5.850  0.6125  1.0005  0.0671
  117MOL   H16046792   0.528   6.291   6.160 -0.3363  0.6240  0.3252
  117MOL   H16146793   0.621   6.274   6.022 -0.2541 -0.2225 -1.6091
  117MOL   C16246794   0.410   6.237   6.001 -0.0358  0.2075  0.3485
  117MOL   C16346795   0.276   6.288   6.061 -0.7794 -0.4618  0.2926
  117MOL   C16446796   0.241   6.272   6.199 -0.1105  0.2669 -0.1588
  117MOL   C16546797   0.123   6.326   6.246  0.8102 -0.1935 -0.1418
  117MOL   C16646798   0.033   6.399   6.164 -0.8569  0.1379  0.3013
  117MOL   O16746799   7.955   6.448   6.219 -0.2201  0.0177  0.1060
  117MOL   C16846800   7.881   6.552   6.151 -0.2407  0.4016  0.6628
  117MOL   C16946801   0.068   6.413   6.034  0.2328  0.4217  0.8822
  117MOL   C17046802   0.184   6.356   5.981  0.3581 -0.2198 -0.5724
  117MOL   C17146803   0.431   6.083   6.020 -0.9460  0.4616  0.2407
  117MOL   H17246804   0.398   6.255   5.894 -0.0818  0.6578  0.4313
  117MOL   H17346805   0.308   6.229   6.273  0.2255 -1.3310 -1.3627
  117MOL   H17446806   0.103   6.320   6.352 -0.3818  1.2907 -0.2661
  117MOL   H17546807   7.799   6.594   6.210 -0.9260 -1.2996  0.9389
  117MOL   H17646808   7.821   6.505   6.073 -2.5267  1.0182  1.9821
  117MOL   H17746809   7.947   6.628   6.109  0.0559  1.0267  2.2221
  117MOL   H17846810   8.034   6.450   5.965 -0.1844 -1.8052  0.0885
  117MOL   H17946811   0.208   6.354   5.876 -0.1955 -0.1552 -0.7008
  117MOL   H18046812   0.429   6.060   6.127  1.0709  0.6056  0.3295
  117MOL   H18146813   0.532   6.058   5.987 -1.0640  0.8929 -0.4559
  117MOL   C18246814   0.330   5.989   5.936  0.3089  0.4343 -0.7050
  117MOL   C18346815   0.347   5.850   5.998 -0.3344  0.1195 -0.0566
  117MOL   C18446816   0.255   5.798   6.083  0.0674  0.1074  0.0158
  117MOL   C18546817   0.269   5.665   6.113  0.4759  0.2792 -0.0570
  117MOL   C18646818   0.380   5.582   6.073  0.3328  0.3642 -0.3333
  117MOL   O18746819   0.387   5.450   6.102  0.6105 -0.5583 -0.2470
  117MOL   C18846820   0.320   5.394   6.213 -0.1068  0.5970  0.0234
  117MOL   C18946821   0.481   5.644   5.999 -0.0874  0.7793  0.2190
  117MOL   C19046822   0.467   5.780   5.974 -0.7180 -0.1639  0.6376
  117MOL   C19146823   0.331   5.987   5.780  0.2299 -0.1998 -0.5841
  117MOL   H19246824   0.225   6.007   5.958 -0.4193 -0.8089 -2.9762
  117MOL   H19346825   0.163   5.851   6.104  0.3646  1.7389 -2.6202
  117MOL   H19446826   0.191   5.627   6.177  2.0042  0.8639  2.2214
  117MOL   H19546827   0.351   5.437   6.308 -1.2718  1.2102  0.1263
  117MOL   H19646828   0.338   5.286   6.215 -2.5065  0.1228 -1.7406
  117MOL   H19746829   0.215   5.418   6.204 -0.2454  0.1951  0.5212
  117MOL   H19846830   0.576   5.595   5.982  0.8670  2.5642  0.2999
  117MOL   H19946831   0.543   5.835   5.921 -0.3741 -0.0743  1.2245
  117MOL   H20046832   0.418   6.039   5.740  0.5419  1.1390  1.7785
  117MOL   H20146833   0.359   5.884   5.759  0.3507 -0.2356 -0.2525
  117MOL   C20246834   0.206   6.023   5.705 -0.1514  0.0849  0.5661
  117MOL   C20346835   0.226   6.011   5.554 -0.0012 -0.0077 -0.0476
  117MOL   C20446836   0.146   5.922   5.479  0.1289  0.2111 -0.5384
  117MOL   C20546837   0.167   5.911   5.345  0.1559 -0.0265  0.0735
  117MOL   C20646838   0.257   5.994   5.279  0.2235  0.3027 -0.4171
  117MOL   O20746839   0.279   5.988   5.146  0.1143  0.3294  0.4351
  117MOL   C20846840   0.322   5.869   5.087 -1.0532 -0.0076 -0.7425
  117MOL   C20946841   0.318   6.102   5.341 -0.5283  0.2491  0.4482
  117MOL   C21046842   0.303   6.100   5.482 -0.3007  0.0277  0.3518
  117MOL   C21146843   0.130   6.156   5.732  0.2344  0.0242 -0.8023
  117MOL   H21246844   0.131   5.953   5.743  0.1485 -0.8118 -0.4962
  117MOL   H21346845   0.080   5.857   5.535 -1.1081  1.5261 -0.4423
  117MOL   H21446846   0.105   5.851   5.280  0.1614  0.6455 -0.5582
  117MOL   H21546847   0.309   5.778   5.146  0.2801  0.8991  0.9954
  117MOL   H21646848   0.267   5.863   4.994 -2.4431  0.8749  0.0152
  117MOL   H21746849   0.428   5.891   5.071 -1.0673  1.7058  1.2853
  117MOL   H21846850   0.386   6.166   5.286  0.8271 -2.3086 -0.9661
  117MOL   H21946851   0.351   6.182   5.534 -1.0465  0.9700 -0.4211
  117MOL   H22046852   0.205   6.232   5.708  1.9245 -1.2293  0.3874
  117MOL   H22146853   0.100   6.162   5.836 -1.0117 -0.1179 -1.1463
  117MOL   C22246854   0.003   6.181   5.646 -0.2068  0.5361  0.2143
  117MOL   C22346855   7.930   6.082   5.672  0.0991 -1.0672 -0.1120
  117MOL   C22446856   7.881   6.066   5.805  0.0667 -0.6701  0.0690
  117MOL   C22546857   7.765   5.989   5.838 -0.2095 -0.3983  0.4689
  117MOL   C22646858   7.701   5.922   5.733 -0.1301  0.3177  0.2094
  117MOL   O22746859   7.600   5.831   5.744  0.1075 -0.4673 -0.3203
  117MOL   C22846860   7.555   5.794   5.873 -0.0802  0.0936 -0.2665
  117MOL   C22946861   7.750   5.940   5.607  0.0492  0.4328 -0.1725
  117MOL   C23046862   7.858   6.019   5.573  0.3853 -0.0066  0.0061
  117MOL   C23146863   7.991   6.320   5.693  0.6144 -0.1849 -0.6831
  117MOL   H23246864   0.036   6.180   5.543  1.0032 -0.4704  0.5987
  117MOL   H23346865   7.940   6.108   5.884  2.8247  1.1627 -2.8341
  117MOL   H23446866   7.728   5.992   5.940  0.7687  0.7650  0.7937
  117MOL   H23546867   7.471   5.729   5.849  0.2766 -0.0552 -1.1441
  117MOL   H23646868   7.626   5.742   5.938 -1.0001  0.8548  1.3408
  117MOL   H23746869   7.533   5.881   5.933  0.8354 -0.1670  0.4614
  117MOL   H23846870   7.707   5.882   5.526 -3.1945 -1.0551  2.4720
  117MOL   H23946871   7.873   6.042   5.468 -1.1227  0.7407 -0.0613
  117MOL   H24046872   7.951   6.314   5.794  0.9428 -0.3722 -0.5590
  117MOL   H24146873   0.038   6.384   5.710  0.0777 -0.2530  2.7961
  117MOL   C24246874   7.894   6.396   5.589  0.1184  0.8744  0.3255
  117MOL   C24346875   7.784   6.472   5.665  0.1604  0.5663 -0.0186
  117MOL   C24446876   7.817   6.579   5.753  0.0809  0.2019 -0.8077
  117MOL   C24546877   7.715   6.640   5.832 -0.2887  0.7761 -0.0897
  117MOL   C24646878   7.584   6.595   5.823  0.1738 -0.3389  1.0670
  117MOL   O24746879   7.495   6.640   5.917  0.4777  0.9034  0.2475
  117MOL   C24846880   7.388   6.548   5.953 -0.6998 -0.0688  0.7546
  117MOL   C24946881   7.553   6.489   5.735 -0.3429 -0.3299 -0.2884
  117MOL   C25046882   7.647   6.432   5.653  0.9052 -0.0805  0.7046
  117MOL   C25146883   7.982   6.483   5.502 -0.3521 -0.1500 -0.9420
  117MOL   H25246884   7.840   6.327   5.524 -0.3559  1.1463  0.4361
  117MOL   H25346885   7.920   6.610   5.765  0.8802 -2.4023 -0.5578
  117MOL   H25446886   7.729   6.719   5.905  0.0561  1.0671 -0.4691
  117MOL   H25546887   7.314   6.536   5.873  0.2714  0.3032 -0.2202
  117MOL   H25646888   7.434   6.453   5.981 -2.3799 -1.1589 -0.0566
  117MOL   H25746889   7.340   6.595   6.039  0.1824 -0.1284  1.2848
  117MOL   H25846890   7.454   6.446   5.733  0.1922 -1.7702  2.4408
  117MOL   H25946891   7.615   6.346   5.597  1.4360  0.3084 -0.2036
  117MOL   H26046892   0.019   6.426   5.449  1.2065  2.2462 -1.3446
  117MOL   H26146893   8.029   6.546   5.578 -1.8150  0.4482 -0.5252
  117MOL   C26246894   7.927   6.590   5.402  0.1977 -0.4137  0.1311
  117MOL   C26346895   7.893   6.533   5.263 -0.6262  0.2838 -0.1151
  117MOL   C26446896   7.999   6.510   5.169  0.2071 -0.1295 -0.0255
  117MOL   C26546897   7.966   6.484   5.030  0.2432  0.4208 -0.4651
  117MOL   C26646898   7.830   6.446   4.998  0.0276  0.7096  0.6878
  117MOL   O26746899   7.790   6.409   4.872  0.1374  0.4456  0.0091
  117MOL   C26846900   7.876   6.428   4.755 -0.3049  0.6061 -0.2341
  117MOL   C26946901   7.732   6.457   5.097  0.0138 -0.0175  0.4029
  117MOL   C27046902   7.761   6.498   5.225 -0.9525  0.0676 -0.2726
  117MOL   C27146903   8.023   6.715   5.393 -0.4683 -0.3724  0.2051
  117MOL   H27246904   7.840   6.638   5.448 -0.9596 -1.6187 -0.7681
  117MOL   H27346905   0.060   6.543   5.188  0.1361 -0.7392  1.4534
  117MOL   H27446906   0.009   6.481   4.960 -0.4305 -0.9846 -1.2134
  117MOL   H27546907   7.940   6.515   4.771  0.5654 -0.1544  0.5080
  117MOL   H27646908   7.802   6.464   4.684 -2.4475 -0.8076  1.2401
  117MOL   H27746909   7.937   6.343   4.724 -2.4774 -0.8810 -0.5278
  117MOL   H27846910   7.631   6.430   5.069 -1.3741  4.0054  1.2538
  117MOL   H27946911   7.681   6.500   5.298  0.3070 -0.3278  1.1423
  117MOL   H28046912   8.037   6.770   5.486 -1.5427 -1.7045  1.1797
  117MOL   H28146913   0.084   6.678   5.377  0.0889 -0.5236  3.6678
  117MOL   C28246914   7.976   6.821   5.286 -0.0786 -0.5602  0.3374
  117MOL   C28346915   0.032   6.944   5.284  0.3558  0.2443 -1.2946
  117MOL   C28446916   0.031   7.041   5.394  0.0141 -0.2943 -0.6688
  117MOL   C28546917   0.120   7.152   5.385  0.8007 -0.4216  0.1623
  117MOL   C28646918   0.196   7.180   5.268 -0.5348  0.2611 -0.5978
  117MOL   O28746919   0.282   7.291   5.253  0.0057  0.4687  0.2035
  117MOL   C28846920   0.267   7.399   5.347 -0.3388 -0.3190 -0.1238
  117MOL   C28946921   0.193   7.092   5.160 -1.0841 -0.2851 -1.1902
  117MOL   C29046922   0.112   6.975   5.173 -0.2858 -0.1705 -0.3783
  117MOL   C29146923   7.829   6.867   5.311  0.3059 -0.8474 -0.3098
  117MOL   H29246924   7.977   6.778   5.187 -1.3316 -0.2786  0.1936
  117MOL   H29346925   8.009   7.015   5.479  0.0864  1.1279 -0.1692
  117MOL   H29446926   0.121   7.216   5.472  0.6820 -1.6122  1.0464
  117MOL   H29546927   0.270   7.363   5.450 -0.1538 -2.0262 -0.7254
  117MOL   H29646928   0.344   7.476   5.343  0.0067 -0.7067 -0.9189
  117MOL   H29746929   0.168   7.445   5.351  1.0398  2.9397 -1.4324
  117MOL   H29846930   0.268   7.111   5.085  2.4945 -1.1305  2.0129
  117MOL   H29946931   0.102   6.902   5.093  0.6499 -0.4314 -0.2649
  117MOL   H30046932   7.762   6.783   5.294 -1.4126 -0.0783  2.4914
  117MOL   H30146933   7.829   6.879   5.419 -0.8460  0.5742 -0.4551
  117MOL   C30246934   7.779   6.983   5.222 -0.7731 -0.7339  0.2500
  117MOL   C30346935   7.815   6.955   5.079 -0.6801  0.2957  0.0301
  117MOL   C30446936   7.783   6.829   5.022 -0.1782 -0.2631 -0.7023
  117MOL   C30546937   7.827   6.796   4.893  0.0135  0.1506  0.4123
  117MOL   C30646938   7.912   6.883   4.826 -0.8066 -0.0340  0.1270
  117MOL   O30746939   7.975   6.839   4.712 -0.5056 -0.0772  0.8614
  117MOL   C30846940   0.001   6.923   4.618  0.2411  0.0040  0.6087
  117MOL   C30946941   7.937   7.018   4.873 -0.1125  0.1674  0.0819
  117MOL   C31046942   7.885   7.051   5.003 -0.5564 -0.3145  0.3096
  117MOL   C31146943   7.627   7.012   5.222 -0.3522 -0.0201 -0.5672
  117MOL   H31246944   7.826   7.075   5.255 -0.4736 -0.2539 -1.4782
  117MOL   H31346945   7.728   6.752   5.074 -1.3691  0.3059 -1.1047
  117MOL   H31446946   7.810   6.697   4.851  0.1272 -0.8240  2.5915
  117MOL   H31546947   0.012   6.857   4.532 -1.8542  1.6767 -0.9990
  117MOL   H31646948   0.104   6.945   4.646  0.8463 -0.5626 -1.1674
  117MOL   H31746949   7.984   7.013   4.595 -1.2617 -0.9545  0.5050
  117MOL   H31846950   8.002   7.084   4.817 -0.2222 -1.2131 -1.6975
  117MOL   H31946951   7.903   7.153   5.032 -2.4326 -0.0707  0.6834
  117MOL   H32046952   7.577   6.921   5.255 -0.0730 -0.6251 -1.7639
  117MOL   H32146953   7.603   7.036   5.118  1.0940 -3.3908 -1.7665
  117MOL   C32246954   7.568   7.127   5.314  0.1439 -0.3267  0.2304
  117MOL   C32346955   7.552   7.259   5.234 -0.1270 -0.1617  0.0351
  117MOL   C32446956   7.666   7.329   5.182 -0.1163  0.1799 -0.5671
  117MOL   C32546957   7.645   7.454   5.124  0.1475  0.0734  0.4567
  117MOL   C32646958   7.518   7.506   5.111  0.5474 -0.8181  0.4052
  117MOL   O32746959   7.510   7.639   5.085 -0.3757  0.2480  0.5504
  117MOL   C32846960   7.397   7.690   5.021 -0.0961 -0.7301 -0.1089
  117MOL   C32946961   7.410   7.429   5.150 -0.5983  0.4070  0.3145
  117MOL   C33046962   7.423   7.309   5.216  0.1809  0.0001  0.1024
  117MOL   C33146963   7.638   7.145   5.454  0.2300 -0.5641 -0.3210
  117MOL   H33246964   7.467   7.089   5.331 -0.6528  1.5730 -0.0988
  117MOL   H33346965   7.767   7.293   5.184 -0.1977 -0.0772 -0.9727
  117MOL   H33446966   7.732   7.510   5.093  0.4544 -1.5243 -1.6818
  117MOL   H33546967   7.419   7.797   5.009 -1.0866 -0.1853  2.6040
  117MOL   H33646968   7.299   7.676   5.064 -0.2482 -0.6195 -0.4133
  117MOL   H33746969   7.385   7.648   4.921 -0.0997  1.2709 -0.9803
  117MOL   H33846970   7.310   7.469   5.142 -0.8493  0.0380  1.6127
  117MOL   H33946971   7.341   7.249   5.250 -0.8315  0.7420 -0.9889
  117MOL   H34046972   7.638   7.052   5.512  0.1578  1.6516  3.3835
  117MOL   H34146973   7.737   7.165   5.414  0.3915 -0.6094  0.0504
  117MOL   C34246974   7.587   7.267   5.550  0.4303  0.0620  1.0842
  117MOL   C34346975   7.702   7.330   5.625  0.2162 -0.3313  0.0587
  117MOL   C34446976   7.795   7.400   5.550  0.4022  0.2165 -0.7847
  117MOL   C34546977   7.910   7.456   5.606  0.0105  0.2484 -0.7198
  117MOL   C34646978   7.931   7.437   5.748  1.3033 -0.1851  0.1636
  117MOL   O34746979   8.029   7.502   5.810 -0.3214 -0.1294 -0.2456
  117MOL   C34846980   0.084   7.579   5.742 -0.2222 -0.1939  0.0502
  117MOL   C34946981   7.837   7.369   5.822 -0.1223  0.4556  0.5825
  117MOL   C35046982   7.725   7.312   5.761 -0.4519  0.1650 -0.0709
  117MOL   C35146983   7.459   7.227   5.629 -0.0051  0.2880  0.6426
  117MOL   H35246984   7.561   7.349   5.483 -0.0320  0.7057  2.0386
  117MOL   H35346985   7.787   7.402   5.443  2.3826 -1.2678 -0.9978
  117MOL   H35446986   7.977   7.513   5.544  1.6561  0.0150  0.8283
  117MOL   H35546987   0.143   7.520   5.672  1.6285  0.7559  0.8023
  117MOL   H35646988   0.034   7.657   5.684  2.5317  2.0788  0.6410
  117MOL   H35746989   0.139   7.624   5.824 -0.2959 -2.4529  1.3569
  117MOL   H35846990   7.848   7.350   5.928 -2.5398 -1.0532  0.5954
  117MOL   H35946991   7.664   7.258   5.831  1.1911 -1.6055  0.0259
  117MOL   H36046992   7.392   7.175   5.560  2.0973 -1.5694 -0.0640
  117MOL   H36146993   7.488   7.158   5.709  1.5261  0.2497  0.0754
  117MOL   C36246994   7.393   7.355   5.688 -0.5201  0.1458 -0.5742
  117MOL   C36346995   7.347   7.318   5.826 -0.0780  0.1763  0.2220
  117MOL   C36446996   7.231   7.239   5.841 -0.5773  0.7337  0.2466
  117MOL   C36546997   7.179   7.206   5.964  0.1140  0.2035 -0.0526
  117MOL   C36646998   7.243   7.254   6.082  0.1347  0.1724  0.0544
  117MOL   O36746999   7.202   7.215   6.208  0.0805  0.1011 -0.2188
  117MOL   C36847000   7.074   7.158   6.216  0.2459 -0.9491 -0.2540
  117MOL   C36947001   7.361   7.330   6.070  0.1594 -0.5197  0.3336
  117MOL   C37047002   7.410   7.366   5.943  0.1171 -0.6396 -0.5024
  117MOL   C37147003   7.281   7.414   5.603 -0.0424 -0.0808 -0.1130
  117MOL   H37247004   7.468   7.431   5.706 -0.6860  0.2575 -0.3496
  117MOL   H37347005   7.172   7.204   5.758  0.1187  0.3784 -0.1002
  117MOL   H37447006   7.088   7.149   5.967 -0.7396  1.6142  2.8956
  117MOL   H37547007   7.000   7.210   6.156  0.8442  2.1166  1.5003
  117MOL   H37647008   7.063   7.055   6.185 -0.6717 -1.3441  1.3257
  117MOL   H37747009   7.047   7.167   6.322  0.3652 -0.3469 -0.2690
  117MOL   H37847010   7.427   7.361   6.150  0.0859 -1.5676  0.8085
  117MOL   H37947011   7.496   7.430   5.945 -0.2098 -0.1730 -1.3956
  117MOL   H38047012   7.217   7.334   5.565 -1.2330  0.1658  1.3066
  117MOL   H38147013   7.219   7.464   5.678 -2.1153 -1.3076 -0.9769
  117MOL   C38247014   7.311   7.520   5.495 -0.3988  0.9225 -0.5065
  117MOL   C38347015   7.387   7.637   5.549  0.2624 -0.7956 -0.7230
  117MOL   C38447016   7.520   7.653   5.512  0.2961  0.6250  0.2083
  117MOL   C38547017   7.601   7.750   5.585 -0.2524  0.4347  0.3248
  117MOL   C38647018   7.547   7.830   5.686 -1.0674  0.0372  0.0886
  117MOL   O38747019   7.638   7.919   5.743  0.2637  0.6766 -0.3723
  117MOL   C38847020   7.595   7.977   5.870 -0.2758 -0.0103 -0.4242
  117MOL   C38947021   7.406   7.823   5.715 -0.2879  0.1641  0.1264
  117MOL   C39047022   7.329   7.725   5.647 -0.3734 -0.3022  0.4592
  117MOL   C39147023   7.187   7.566   5.412  0.9658 -0.2307  0.3921
  117MOL   H39247024   7.375   7.476   5.418  1.6538 -1.6840  2.5555
  117MOL   H39347025   7.572   7.605   5.431 -0.6455 -0.5508  0.2874
  117MOL   H39447026   7.703   7.760   5.550 -0.2011 -0.4648  0.2147
  117MOL   H39547027   7.556   7.896   5.932 -0.5158 -0.5935 -1.3229
  117MOL   H39647028   7.530   0.024   5.862  0.1317  0.5846  2.2334
  117MOL   H39747029   7.685   8.006   5.923 -0.3302 -0.2620 -0.1926
  117MOL   H39847030   7.364   7.891   5.788 -0.7903 -0.8461  0.7838
  117MOL   H39947031   7.225   7.717   5.675  0.6976 -0.4088  4.7293
  117MOL   H40047032   7.107   7.611   5.469  0.1407 -0.6746 -0.4055
  117MOL   H40147033   7.150   7.482   5.353  0.5663  0.4239 -0.2970
  117MOL   H40247034   7.218   7.641   5.339 -4.8399  1.8183 -0.1938
  118MOL     C147035   1.019   1.526   0.614 -0.3677  0.1408  0.2147
  118MOL     C247036   0.975   1.585   0.742  0.2636  0.3448 -0.1275
  118MOL     C347037   0.845   1.567   0.793 -0.1850  0.0204 -0.4871
  118MOL     C447038   0.815   1.614   0.921  0.2909  0.3185  0.3916
  118MOL     C547039   0.912   1.677   1.001  0.0753 -0.2628  0.5913
  118MOL     O647040   0.880   1.715   1.128 -0.4227 -0.1653 -0.1455
  118MOL     C747041   0.900   1.851   1.158  0.7833  0.1025  0.1356
  118MOL     C847042   1.040   1.694   0.953  0.7733  0.3752 -0.9684
  118MOL     C947043   1.067   1.650   0.820 -0.8697 -0.1397  0.2059
  118MOL    C1047044   1.094   1.391   0.627  0.5917 -0.0437 -0.0611
  118MOL    H1147045   1.092   1.603   0.589 -0.1423  0.0909  0.7072
  118MOL    H1247046   0.777   1.512   0.730  0.1752 -2.0303  0.8537
  118MOL    H1347047   0.714   1.607   0.959  0.2269 -0.3076  0.1061
  118MOL    H1447048   0.972   1.906   1.097  1.9815 -3.2167 -1.5606
  118MOL    H1547049   0.806   1.906   1.154  1.2188  0.7707 -1.6074
  118MOL    H1647050   0.945   1.854   1.257  0.7202 -0.6499  0.1876
  118MOL    H1747051   1.115   1.750   1.007 -0.0877  1.4460 -0.8642
  118MOL    H1847052   1.168   1.666   0.785 -0.5486 -0.4973  0.9447
  118MOL    H1947053   1.175   1.400   0.699 -0.0725  0.3008  0.6487
  118MOL    H2047054   1.021   1.319   0.665  0.4817  1.0592  1.8698
  118MOL    H2147055   0.933   1.517   0.547 -0.3049  0.1640  0.1312
  118MOL    C2247056   1.150   1.333   0.498  0.2004  0.0973  0.2998
  118MOL    C2347057   1.255   1.226   0.537  0.1029 -0.7444  0.1889
  118MOL    C2447058   1.379   1.209   0.467 -0.1955  0.1775  0.3169
  118MOL    C2547059   1.474   1.111   0.512 -0.1520 -0.3453  0.6969
  118MOL    C2647060   1.450   1.036   0.627 -0.2006 -0.3439 -0.7472
  118MOL    O2747061   1.551   0.957   0.675  0.9087  0.5168  0.1193
  118MOL    C2847062   1.543   0.918   0.807  0.0592  0.3760 -0.7460
  118MOL    C2947063   1.327   1.046   0.694 -0.2277  0.6317  0.1362
  118MOL    C3047064   1.226   1.133   0.640  0.1954  0.5839 -0.0430
  118MOL    C3147065   1.036   1.271   0.401 -0.6672 -0.0503 -0.0928
  118MOL    H3247066   1.204   1.416   0.453 -1.2894 -0.4207 -2.5518
  118MOL    H3347067   1.402   1.281   0.390  2.0481  0.3366  1.1025
  118MOL    H3447068   1.564   1.104   0.452 -1.2207 -1.5883 -0.7866
  118MOL    H3547069   1.545   1.003   0.875  1.1032 -2.0595  2.4019
  118MOL    H3647070   1.626   0.855   0.838 -1.9461 -1.3112  1.3601
  118MOL    H3747071   1.457   0.853   0.824 -0.8329  1.7822  0.2283
  118MOL    H3847072   1.299   0.978   0.774 -4.6276  0.8573 -1.1165
  118MOL    H3947073   1.136   1.135   0.700 -1.3934 -2.0238 -2.2424
  118MOL    H4047074   0.998   1.180   0.447 -1.4285  1.3257  2.0846
  118MOL    H4147075   0.949   1.336   0.406 -0.0169  0.7056  1.7952
  118MOL    C4247076   1.091   1.243   0.259  0.2222 -0.1131  0.1663
  118MOL    C4347077   1.122   1.371   0.183  0.1134  0.3153 -0.3992
  118MOL    C4447078   1.227   1.375   0.093  0.5827  0.4299 -0.0065
  118MOL    C4547079   1.262   1.479   0.007 -0.7799 -1.1450 -0.3343
  118MOL    C4647080   1.190   1.600   0.018 -0.1285  0.4663 -0.3806
  118MOL    O4747081   1.233   1.703   7.978  0.1180 -0.0569 -0.2797
  118MOL    C4847082   1.169   1.828   7.995 -0.2474  0.5233 -0.0662
  118MOL    C4947083   1.085   1.606   0.118  0.4974  0.0468 -0.7829
  118MOL    C5047084   1.050   1.494   0.199 -0.9280  0.1004  0.0354
  118MOL    C5147085   1.011   1.137   0.177  0.2909 -0.4928 -0.5864
  118MOL    H5247086   1.192   1.205   0.267  1.0368  1.8534 -0.5127
  118MOL    H5347087   1.277   1.280   0.083 -0.0425 -0.4708  4.4576
  118MOL    H5447088   1.338   1.481   7.971  0.8145  2.8834  1.2510
  118MOL    H5547089   1.185   1.864   0.057  2.6105 -0.2406 -0.2025
  118MOL    H5647090   1.200   1.895   7.915  0.5364 -0.5006 -0.6235
  118MOL    H5747091   1.062   1.823   7.976 -0.2793  0.4217  0.1317
  118MOL    H5847092   1.016   1.689   0.110  1.5526  0.9111 -0.9824
  118MOL    H5947093   0.957   1.493   0.255 -1.6136 -1.1964 -1.0783
  118MOL    H6047094   1.010   1.047   0.238  1.8379  0.8010  1.4509
  118MOL    H6147095   1.077   1.126   0.091  0.0251  0.1293 -0.8763
  118MOL    C6247096   0.877   1.185   0.114 -0.2366 -0.2317  0.2621
  118MOL    C6347097   0.774   1.178   0.226 -0.3704  0.1807  0.6629
  118MOL    C6447098   0.693   1.286   0.250  0.3179 -0.6060  0.6079
  118MOL    C6547099   0.600   1.296   0.352  0.3014  0.2997 -0.0180
  118MOL    C6647100   0.579   1.193   0.437  0.5984 -0.2588 -0.0948
  118MOL    O6747101   0.484   1.211   0.533  0.1879  0.1425 -0.0077
  118MOL    C6847102   0.469   1.109   0.628 -0.1134  0.8247  0.3255
  118MOL    C6947103   0.655   1.079   0.415  0.0889 -0.2677  0.4627
  118MOL    C7047104   0.758   1.071   0.316 -0.0021 -0.8110  0.7346
  118MOL    C7147105   0.839   1.077   0.017 -0.4111  0.1961 -1.0792
  118MOL    H7247106   0.878   1.280   0.061 -0.3432 -1.0432 -1.1952
  118MOL    H7347107   0.695   1.373   0.187  0.2085 -0.5336  0.7035
  118MOL    H7447108   0.539   1.384   0.356  1.7964  1.3445 -0.0030
  118MOL    H7547109   0.563   1.070   0.666  0.3026  0.8833 -0.6352
  118MOL    H7647110   0.394   1.033   0.606  0.9420 -0.6173  1.6146
  118MOL    H7747111   0.419   1.146   0.718 -1.0509 -1.6397  0.8640
  118MOL    H7847112   0.635   0.990   0.472 -0.4849 -0.9418 -0.7576
  118MOL    H7947113   0.826   0.988   0.307  2.4127  0.9201  2.4720
  118MOL    H8047114   0.910   1.094   7.975  0.2667  0.7529 -0.3866
  118MOL    H8147115   0.854   0.977   0.058  0.8028  0.2372 -1.4119
  118MOL    C8247116   0.708   1.083   7.985 -0.4048  0.2196  0.0168
  118MOL    C8347117   0.724   1.093   7.831  0.1505 -0.3476  0.2723
  118MOL    C8447118   0.671   1.195   7.751 -0.0669 -0.4880  0.1425
  118MOL    C8547119   0.691   1.189   7.613 -1.1264 -1.2941 -0.3137
  118MOL    C8647120   0.772   1.088   7.547 -0.1101 -0.6720  0.3166
  118MOL    O8747121   0.805   1.083   7.415  0.1099 -0.4945  0.5185
  118MOL    C8847122   0.722   1.163   7.339 -0.4385  0.0344  0.4069
  118MOL    C8947123   0.812   0.984   7.634 -0.6075  0.0243 -0.3030
  118MOL    C9047124   0.790   0.987   7.775 -0.0976  0.6254  0.0567
  118MOL    C9147125   0.619   0.967   8.031 -0.7482  0.0932  0.3504
  118MOL    H9247126   0.666   1.180   8.011  0.1969  0.7267 -0.8624
  118MOL    H9347127   0.610   1.274   7.792  1.4373 -1.2476  4.0624
  118MOL    H9447128   0.658   1.273   7.554  0.4804 -1.3820 -1.3936
  118MOL    H9547129   0.615   1.148   7.355 -0.6969 -1.7481 -2.6127
  118MOL    H9647130   0.745   1.150   7.233  3.5000 -0.8716  1.3159
  118MOL    H9747131   0.742   1.267   7.363  0.8225 -0.6841  2.5755
  118MOL    H9847132   0.870   0.899   7.599 -0.3754  0.1167 -0.1407
  118MOL    H9947133   0.835   0.911   7.838  3.9346 -0.0967 -3.4754
  118MOL   H10047134   0.648   0.881   7.970  2.4128  2.2297 -1.3001
  118MOL   H10147135   0.634   0.935   0.094 -0.1524  1.0927  0.5752
  118MOL   C10247136   0.476   1.000   8.013 -0.1894 -0.2675  0.4391
  118MOL   C10347137   0.395   0.868   7.987 -0.3055  0.7468  0.4856
  118MOL   C10447138   0.419   0.748   0.019 -0.5541  0.5404 -0.3576
  118MOL   C10547139   0.340   0.635   8.032 -0.6085 -0.6130  0.5458
  118MOL   C10647140   0.238   0.639   7.936 -0.2031  0.1368  0.4439
  118MOL   O10747141   0.160   0.535   7.889 -0.0092 -0.5452 -0.0701
  118MOL   C10847142   0.193   0.407   7.945  0.4769  0.9880  0.0930
  118MOL   C10947143   0.206   0.762   7.877 -0.3520 -0.3953  0.0337
  118MOL   C11047144   0.292   0.872   7.895 -0.0508  0.2926 -0.9309
  118MOL   C11147145   0.408   1.088   0.084 -0.2858  0.5934  1.0919
  118MOL   H11247146   0.465   1.046   7.915  2.2939  0.4020  0.4387
  118MOL   H11347147   0.495   0.738   0.095 -0.6385 -2.0045 -0.5773
  118MOL   H11447148   0.370   0.543   0.040 -0.2897  0.4783  2.4832
  118MOL   H11547149   0.189   0.390   0.012  1.9486 -1.4864 -0.1945
  118MOL   H11647150   0.147   0.321   7.895  0.4621  1.1125 -0.1066
  118MOL   H11747151   0.296   0.380   7.924 -0.7951 -0.5501 -4.8973
  118MOL   H11847152   0.124   0.771   7.806  1.0255 -2.0891 -1.8422
  118MOL   H11947153   0.271   0.965   7.844  1.5618  0.3125 -1.6164
  118MOL   H12047154   0.368   1.017   0.157 -1.1596 -0.3918 -0.3246
  118MOL   H12147155   0.481   1.137   0.149 -0.2338  0.7726  0.8976
  118MOL   C12247156   0.304   1.185   0.032 -1.0028  0.6974 -0.2279
  118MOL   C12347157   0.357   1.300   7.991  0.5485 -0.3192  0.9856
  118MOL   C12447158   0.430   1.408   0.007 -0.1216  0.4200  0.0428
  118MOL   C12547159   0.468   1.516   7.964 -0.3549  0.0108 -0.0771
  118MOL   C12647160   0.432   1.523   7.829  0.7674  0.4151 -0.3369
  118MOL   O12747161   0.465   1.628   7.754 -0.3650  0.0025  0.4391
  118MOL   C12847162   0.520   1.594   7.623 -0.3024  0.2339 -0.0758
  118MOL   C12947163   0.349   1.420   7.776 -0.3780 -0.6244 -0.8996
  118MOL   C13047164   0.315   1.310   7.858 -0.0066 -0.3720 -0.2147
  118MOL   C13147165   0.221   1.239   0.152  0.0998 -1.0374 -0.8677
  118MOL   H13247166   0.240   1.121   8.011 -0.2776 -1.5441  1.3017
  118MOL   H13347167   0.471   1.404   0.107  0.5115 -1.3160 -0.2691
  118MOL   H13447168   0.538   1.588   8.001 -2.5184  1.1980  1.8416
  118MOL   H13547169   0.441   1.555   7.559  1.4350 -1.7125 -1.0876
  118MOL   H13647170   0.557   1.687   7.580 -0.9805 -0.2519 -1.7433
  118MOL   H13747171   0.607   1.529   7.633 -0.0048  0.7480  0.7071
  118MOL   H13847172   0.310   1.430   7.676 -0.3309 -1.0152 -0.9591
  118MOL   H13947173   0.253   1.239   7.805  0.3612 -1.5416  0.8894
  118MOL   H14047174   0.277   1.330   0.174  1.5644 -2.0850 -0.1850
  118MOL   H14147175   0.242   1.182   0.243 -0.4567 -1.6759 -1.1386
  118MOL   C14247176   0.067   1.267   0.134  0.1199 -0.1225 -0.4637
  118MOL   C14347177   0.000   1.163   0.046 -0.5957  0.1289 -0.0887
  118MOL   C14447178   8.018   1.032   0.091 -0.2925 -0.2304  0.8230
  118MOL   C14547179   7.935   0.937   0.018 -0.2455  0.3016  0.0222
  118MOL   C14647180   7.885   0.977   7.933 -0.4291  0.1815  0.5866
  118MOL   O14747181   7.796   0.890   7.876  0.1339 -0.4130  0.1179
  118MOL   C14847182   7.746   0.915   7.742 -0.2322 -0.0183  0.4207
  118MOL   C14947183   7.908   1.108   7.885 -0.5848 -0.0977  1.1311
  118MOL   C15047184   7.987   1.200   7.959 -0.3640  0.1244 -0.4122
  118MOL   C15147185   8.027   1.284   0.270 -0.4781 -0.4916 -0.2648
  118MOL   H15247186   0.057   1.367   0.094 -1.7058 -0.1103 -0.0152
  118MOL   H15347187   0.006   1.009   0.192  2.2733  1.2359  0.4729
  118MOL   H15447188   7.893   0.843   0.053  1.0471 -0.7598 -1.2013
  118MOL   H15547189   7.691   1.008   7.728 -1.1694 -1.0197 -3.2489
  118MOL   H15647190   7.827   0.909   7.670 -1.3074  0.3662 -0.8380
  118MOL   H15747191   7.670   0.841   7.717 -0.7763  0.7341 -0.2045
  118MOL   H15847192   7.866   1.147   7.793 -1.3135 -2.6450  0.3373
  118MOL   H15947193   7.980   1.304   7.931 -1.5118 -0.4808 -2.4514
  118MOL   H16047194   0.035   1.363   0.328  1.5620 -0.5082 -1.8676
  118MOL   H16147195   8.028   1.201   0.340 -1.8655  0.4370  0.8750
  118MOL   C16247196   7.877   1.321   0.246  0.4186 -0.0068  0.7820
  118MOL   C16347197   7.850   1.469   0.205 -0.2263  0.6836  0.2956
  118MOL   C16447198   7.846   1.572   0.297  0.4214 -0.1064  0.8802
  118MOL   C16547199   7.818   1.702   0.254  0.4464 -0.1393  0.2065
  118MOL   C16647200   7.803   1.740   0.117 -0.0955  0.4115 -0.2431
  118MOL   O16747201   7.764   1.869   0.091  0.0715 -0.1749  0.0904
  118MOL   C16847202   7.714   1.894   8.003  0.3400  0.2687  0.0194
  118MOL   C16947203   7.811   1.630   0.034 -0.5669  0.4980  0.3746
  118MOL   C17047204   7.834   1.498   0.070 -0.5494  1.0328 -0.6546
  118MOL   C17147205   7.791   1.275   0.366 -0.2654 -0.0657 -0.5461
  118MOL   H17247206   7.838   1.270   0.157  0.6514  2.7871 -0.9615
  118MOL   H17347207   7.859   1.546   0.401 -0.8146 -2.9485  0.3802
  118MOL   H17447208   7.814   1.785   0.323 -1.3060  1.9056 -2.2926
  118MOL   H17547209   7.667   1.991   8.015 -1.0308  0.0213 -2.8777
  118MOL   H17647210   7.632   1.831   7.969  0.5668 -0.6725  1.1671
  118MOL   H17747211   7.790   1.904   7.925  0.9064  1.1513  0.6863
  118MOL   H17847212   7.798   1.651   7.969 -0.8893  1.6958  0.6459
  118MOL   H17947213   7.829   1.428   8.028  1.8001  0.9513 -0.7802
  118MOL   H18047214   7.834   1.316   0.457 -0.1021 -0.4098 -0.4689
  118MOL   H18147215   7.810   1.168   0.370  0.4230  0.0829  0.1433
  118MOL   C18247216   7.638   1.292   0.363  0.0364 -0.3277 -0.0712
  118MOL   C18347217   7.567   1.199   0.467  0.4396 -0.4432  0.3864
  118MOL   C18447218   7.470   1.252   0.560 -0.1569 -0.1053  1.1053
  118MOL   C18547219   7.397   1.164   0.637  0.6679  0.3855  0.9233
  118MOL   C18647220   7.412   1.025   0.621 -0.0188 -0.3438 -0.7164
  118MOL   O18747221   7.327   0.949   0.699  0.8750  0.6452  0.4196
  118MOL   C18847222   7.370   0.824   0.738 -0.4530  0.1209  0.1695
  118MOL   C18947223   7.511   0.973   0.532  0.1532  0.2307  0.3921
  118MOL   C19047224   7.591   1.061   0.458 -0.5914 -0.4750 -0.2086
  118MOL   C19147225   7.585   1.257   0.219  0.3455  0.1731  0.0146
  118MOL   H19247226   7.618   1.398   0.374  1.0913  0.3455 -3.7518
  118MOL   H19347227   7.447   1.357   0.554  1.8187  0.2151 -1.7550
  118MOL   H19447228   7.324   1.207   0.705 -0.2680 -0.3588  0.4097
  118MOL   H19547229   7.328   0.789   0.832 -2.1340  0.2645 -0.5058
  118MOL   H19647230   7.478   0.818   0.750 -0.4141  0.5558  0.0476
  118MOL   H19747231   7.356   0.745   0.664 -1.6657  0.5949 -0.1162
  118MOL   H19847232   7.524   0.867   0.522  1.0051  0.1801  1.9179
  118MOL   H19947233   7.659   1.019   0.386  1.4397 -0.6185  1.7276
  118MOL   H20047234   7.623   1.325   0.142  0.8733 -0.6742 -0.4893
  118MOL   H20147235   7.630   1.166   0.180 -1.8398  0.2342 -2.8651
  118MOL   C20247236   7.429   1.250   0.198 -0.1707 -0.2689  0.0903
  118MOL   C20347237   7.398   1.197   0.053  0.3796 -0.3500 -0.3465
  118MOL   C20447238   7.379   1.290   7.985 -0.6978  0.7853 -0.0672
  118MOL   C20547239   7.337   1.240   7.857 -0.1296 -0.0994 -0.5815
  118MOL   C20647240   7.337   1.098   7.832 -0.8959  0.1425 -0.0971
  118MOL   O20747241   7.302   1.061   7.701 -0.2916  0.6711  0.2274
  118MOL   C20847242   7.319   0.925   7.674 -0.4176  0.4859  0.4963
  118MOL   C20947243   7.368   1.009   7.940 -0.0805  0.4089 -0.0103
  118MOL   C21047244   7.392   1.063   0.029 -0.2803  0.5299  0.9979
  118MOL   C21147245   7.347   1.366   0.240 -0.2944 -0.2853  0.2985
  118MOL   H21247246   7.398   1.174   0.270  3.2588 -1.2757  0.5632
  118MOL   H21347247   7.397   1.395   8.002  1.0328  0.7407 -1.4401
  118MOL   H21447248   7.320   1.295   7.765 -2.2789 -1.8596 -1.2880
  118MOL   H21547249   7.268   0.866   7.749  0.9650 -0.4551  0.7293
  118MOL   H21647250   7.266   0.886   7.587 -0.4437  0.0662  0.6996
  118MOL   H21747251   7.420   0.889   7.654 -0.7661  0.0490 -0.5418
  118MOL   H21847252   7.375   0.902   7.931  2.1364  0.5812 -0.7452
  118MOL   H21947253   7.426   0.987   0.098 -0.2464 -2.0357 -1.7474
  118MOL   H22047254   7.320   1.437   0.161 -1.5071 -2.2877 -1.1399
  118MOL   H22147255   7.403   1.423   0.314  0.3601  0.7117 -0.9388
  118MOL   C22247256   7.215   1.335   0.310  0.0659  0.7963  0.4949
  118MOL   C22347257   7.167   1.449   0.406 -0.3442 -0.2902 -0.0937
  118MOL   C22447258   7.147   1.582   0.353  0.3370  0.1202 -0.0590
  118MOL   C22547259   7.104   1.683   0.438  0.6462 -0.6461 -0.7993
  118MOL   C22647260   7.070   1.651   0.570 -0.5545  0.0545  0.2671
  118MOL   O22747261   7.032   1.757   0.642 -0.5167  0.4100 -0.5368
  118MOL   C22847262   6.993   1.734   0.780 -0.1163  0.0369 -0.1739
  118MOL   C22947263   7.093   1.522   0.621  0.1911  0.3376 -0.5211
  118MOL   C23047264   7.142   1.418   0.542 -0.6585  0.4282  0.4768
  118MOL   C23147265   7.106   1.293   0.208 -0.4521 -0.8571 -0.0896
  118MOL   H23247266   7.236   1.247   0.370  1.5464  1.0962  0.4279
  118MOL   H23347267   7.163   1.599   0.247 -2.7289 -0.1964 -0.6142
  118MOL   H23447268   7.078   1.781   0.402  2.5024 -0.5785 -2.0540
  118MOL   H23547269   7.081   1.706   0.836 -0.5660  0.0970  0.5644
  118MOL   H23647270   6.964   1.825   0.832 -0.8525  0.2788 -0.9877
  118MOL   H23747271   6.916   1.658   0.793 -0.0022 -0.1959 -0.8536
  118MOL   H23847272   7.080   1.513   0.728 -0.7555 -0.3408 -0.6872
  118MOL   H23947273   7.168   1.320   0.578  0.4658  0.3427 -0.5179
  118MOL   H24047274   7.044   1.382   0.189  0.3633  0.1521  1.8589
  118MOL   H24147275   7.155   1.279   0.111 -1.1991  0.4665 -0.6790
  118MOL   C24247276   7.028   1.162   0.251 -0.2635 -0.4724  0.6717
  118MOL   C24347277   6.901   1.136   0.162 -0.1711 -0.4952 -0.1260
  118MOL   C24447278   6.905   1.162   0.020  0.3163 -0.3452 -0.2358
  118MOL   C24547279   6.798   1.135   7.979  0.7307  0.3050  0.0551
  118MOL   C24647280   6.673   1.097   8.032  0.0558 -0.1392  0.1261
  118MOL   O24747281   6.568   1.086   7.944 -0.2037  0.2712 -0.0760
  118MOL   C24847282   6.444   1.035   7.995 -0.2343  0.0102  0.4864
  118MOL   C24947283   6.670   1.065   0.132  0.4191 -0.2196 -0.9289
  118MOL   C25047284   6.782   1.083   0.215  0.0619 -0.0591  0.1912
  118MOL   C25147285   7.120   1.034   0.236 -0.1455 -0.1558 -0.2956
  118MOL   H25247286   7.009   1.186   0.356  2.2896  2.4943  0.5146
  118MOL   H25347287   6.995   1.200   8.013  0.5761  0.7377  1.0768
  118MOL   H25447288   6.796   1.159   7.873 -0.9185 -2.4105 -0.5714
  118MOL   H25547289   6.382   1.018   7.907  0.4931  0.7940 -0.1852
  118MOL   H25647290   6.448   0.939   0.006  0.4827 -0.4099 -0.3368
  118MOL   H25747291   6.394   1.107   0.020  0.6914  1.4102 -0.3416
  118MOL   H25847292   6.574   1.037   0.174  0.3170 -0.9695 -1.6411
  118MOL   H25947293   6.779   1.059   0.321 -3.0282  2.9546  0.8699
  118MOL   H26047294   7.220   1.050   0.277  0.2120 -1.1067 -0.7823
  118MOL   H26147295   7.142   1.023   0.130  0.7994  3.0335 -0.4825
  118MOL   C26247296   7.063   0.903   0.283 -0.3360  0.2353  0.2905
  118MOL   C26347297   7.003   0.905   0.429 -0.1874  0.2753  0.1599
  118MOL   C26447298   7.076   0.968   0.535 -0.0481 -0.9025  0.2707
  118MOL   C26547299   7.037   0.963   0.666 -0.1389  0.3485 -0.3554
  118MOL   C26647300   6.919   0.890   0.698  0.2792  0.4255 -0.0617
  118MOL   O26747301   6.882   0.882   0.832  0.1416  0.3903  0.0698
  118MOL   C26847302   6.835   0.757   0.877  0.1298 -0.4159  0.3275
  118MOL   C26947303   6.838   0.835   0.591  0.2619 -0.1794  0.3588
  118MOL   C27047304   6.878   0.851   0.463  0.0430  0.0761  0.6046
  118MOL   C27147305   7.173   0.792   0.256  0.1021  0.2821 -0.0977
  118MOL   H27247306   6.977   0.885   0.218 -1.0181  0.7999  1.0287
  118MOL   H27347307   7.172   1.017   0.524 -0.0370 -0.5296  1.8113
  118MOL   H27447308   7.100   1.012   0.738 -0.0921  0.4606 -0.4736
  118MOL   H27547309   6.803   0.692   0.795  0.0802 -1.8098  1.4136
  118MOL   H27647310   6.739   0.767   0.928  0.2524  2.4059  0.0369
  118MOL   H27747311   6.907   0.702   0.939 -1.3357 -1.4798  1.1132
  118MOL   H27847312   6.746   0.781   0.607 -1.2279  2.3418  0.4472
  118MOL   H27947313   6.816   0.821   0.380  1.1385 -1.4454  0.3041
  118MOL   H28047314   7.263   0.816   0.313 -0.3459  0.5136  0.5185
  118MOL   H28147315   7.122   0.703   0.292 -1.1904  0.8901 -0.3776
  118MOL   C28247316   7.199   0.753   0.114  0.1996 -0.2246  0.0446
  118MOL   C28347317   7.069   0.727   0.041 -0.3666  0.0122  0.6755
  118MOL   C28447318   7.031   0.806   7.977 -0.0313 -0.0125  0.3067
  118MOL   C28547319   6.907   0.794   7.913 -0.3345 -0.1026  0.4358
  118MOL   C28647320   6.824   0.688   7.953 -0.5792 -0.4816  0.5995
  118MOL   O28747321   6.701   0.665   7.892 -0.6415  0.2077 -0.4702
  118MOL   C28847322   6.664   0.743   7.779  0.2426  0.2196  0.0403
  118MOL   C28947323   6.862   0.602   0.020 -0.0036 -0.0303 -0.0327
  118MOL   C29047324   6.988   0.622   0.083 -0.1259 -0.3106  0.5612
  118MOL   C29147325   7.301   0.637   0.126  0.2388 -0.5006 -0.3141
  118MOL   H29247326   7.254   0.837   0.071  0.0746  0.6174  1.4982
  118MOL   H29347327   7.090   0.891   7.948 -1.3307  0.1233 -2.0331
  118MOL   H29447328   6.880   0.860   7.832 -2.2216  0.8132  1.7619
  118MOL   H29547329   6.637   0.842   7.816  1.0947 -0.2672  1.9974
  118MOL   H29647330   6.746   0.758   7.708 -0.8664  1.9173 -0.9124
  118MOL   H29747331   6.581   0.695   7.728 -0.9519  1.4310  0.8223
  118MOL   H29847332   6.794   0.526   0.056 -1.7565  1.2629 -0.5032
  118MOL   H29947333   7.011   0.563   0.171 -2.9790 -1.6717  0.4444
  118MOL   H30047334   7.384   0.687   0.176 -0.4154  1.1141 -0.8156
  118MOL   H30147335   7.260   0.551   0.181  1.4953 -0.0599  1.3448
  118MOL   C30247336   7.358   0.591   8.032 -0.5807  0.7811  0.5373
  118MOL   C30347337   7.502   0.543   8.039 -0.0573 -0.1439 -0.2148
  118MOL   C30447338   7.603   0.590   7.954 -0.2156  0.7958 -0.2648
  118MOL   C30547339   7.737   0.551   7.977  0.8605  0.8650  0.1251
  118MOL   C30647340   7.779   0.469   0.044  0.4048  0.4877 -0.3665
  118MOL   O30747341   7.913   0.434   0.051  0.2324  0.1745  0.4234
  118MOL   C30847342   7.957   0.352   0.166  0.2835  0.3332  0.5802
  118MOL   C30947343   7.672   0.408   0.122  0.6036 -0.1245 -0.0670
  118MOL   C31047344   7.538   0.445   0.093  0.0943  0.5494 -0.4644
  118MOL   C31147345   7.271   0.480   7.971  0.3488 -0.6792 -0.3060
  118MOL   H31247346   7.347   0.674   7.963  1.2381  0.6424  0.0663
  118MOL   H31347347   7.580   0.656   7.871 -0.0196 -0.8537 -1.6721
  118MOL   H31447348   7.808   0.595   7.908  2.0711  0.5492  1.1513
  118MOL   H31547349   7.988   0.420   0.245 -0.1533  1.4849 -0.2067
  118MOL   H31647350   0.002   0.287   0.146 -0.0456 -0.4678  1.7717
  118MOL   H31747351   7.887   0.277   0.202 -1.3606  0.1535 -2.7212
  118MOL   H31847352   7.694   0.332   0.196  1.7443  0.3816  0.1293
  118MOL   H31947353   7.463   0.404   0.158  0.0950  1.9642  0.4576
  118MOL   H32047354   7.170   0.517   7.986 -0.4655 -2.9669  0.0635
  118MOL   H32147355   7.284   0.384   8.021  2.2288  0.8107  2.1672
  118MOL   C32247356   7.293   0.461   7.815 -0.6816 -0.8035 -0.9616
  118MOL   C32347357   7.158   0.463   7.742  0.5254  0.1199 -0.4176
  118MOL   C32447358   7.055   0.371   7.768  0.8717  0.3329  0.3292
  118MOL   C32547359   6.924   0.378   7.715  0.4060  0.3076  0.1266
  118MOL   C32647360   6.900   0.477   7.617  0.4123  0.7085 -0.1525
  118MOL   O32747361   6.777   0.503   7.560  0.7305 -0.0970 -0.2212
  118MOL   C32847362   6.657   0.413   7.576 -0.2340 -0.0002 -0.3707
  118MOL   C32947363   7.002   0.563   7.579 -0.5031 -0.7727  0.3151
  118MOL   C33047364   7.135   0.558   7.638 -0.0908 -0.7417  1.2649
  118MOL   C33147365   7.365   0.327   7.788  0.2801  0.3080  0.5452
  118MOL   H33247366   7.352   0.547   7.784 -0.1337 -0.1892  1.6136
  118MOL   H33347367   7.076   0.293   7.840 -0.4302 -0.1158  0.2366
  118MOL   H33447368   6.856   0.306   7.758  2.1403  0.1497  2.7347
  118MOL   H33547369   6.693   0.310   7.577 -0.7229 -0.1671  0.8684
  118MOL   H33647370   6.589   0.426   7.493 -1.0255  1.7945  0.5472
  118MOL   H33747371   6.607   0.439   7.669  1.8615  1.1966  0.4678
  118MOL   H33847372   6.969   0.645   7.516  1.2825  0.9424  1.5565
  118MOL   H33947373   7.210   0.627   7.602 -2.5526  0.8615 -0.9283
  118MOL   H34047374   7.457   0.328   7.846  0.2504  1.4134  0.5858
  118MOL   H34147375   7.313   0.241   7.830  3.0557 -0.5372  2.3724
  118MOL   C34247376   7.426   0.293   7.650  0.2268  0.4426  0.4679
  118MOL   C34347377   7.544   0.384   7.618  0.2324 -0.2645 -0.0631
  118MOL   C34447378   7.535   0.508   7.557  0.2077  0.4544  0.2795
  118MOL   C34547379   7.651   0.587   7.530 -0.0888 -0.1940 -0.5552
  118MOL   C34647380   7.776   0.536   7.559  0.7367  1.2304  0.1131
  118MOL   O34747381   7.885   0.612   7.526  0.1044 -0.6570 -0.1552
  118MOL   C34847382   7.990   0.625   7.625  0.1528 -0.0259 -0.3301
  118MOL   C34947383   7.785   0.420   7.631 -0.3280 -0.8072  0.4956
  118MOL   C35047384   7.675   0.340   7.658  0.5541 -0.3035  0.5516
  118MOL   C35147385   7.334   0.276   7.528 -0.1634 -0.0660  0.0614
  118MOL   H35247386   7.467   0.194   7.670  0.4952  0.1100 -1.6163
  118MOL   H35347387   7.437   0.546   7.530 -0.5429 -0.8232  1.1459
  118MOL   H35447388   7.640   0.675   7.469 -0.3422 -0.9333 -1.5964
  118MOL   H35547389   7.985   0.721   7.676  0.7751  0.0129 -0.3467
  118MOL   H35647390   7.992   0.557   7.710 -2.2349  0.9832  0.5741
  118MOL   H35747391   0.046   0.619   7.574 -0.0616 -2.4829 -0.5003
  118MOL   H35847392   7.879   0.379   7.664  0.5576  0.1980 -0.7141
  118MOL   H35947393   7.679   0.245   7.710  2.1927 -1.4101 -1.5386
  118MOL   H36047394   7.281   0.368   7.506 -2.5322 -1.9576 -2.4751
  118MOL   H36147395   7.399   0.263   7.441 -0.2330  1.5894 -0.2538
  118MOL   C36247396   7.235   0.160   7.546 -0.1811  0.2776 -0.4548
  118MOL   C36347397   7.300   0.021   7.537 -0.0286  0.7199  0.2176
  118MOL   C36447398   7.288   7.968   7.643 -0.5729  0.5515 -0.1160
  118MOL   C36547399   7.344   7.838   7.629  0.0075 -0.1762 -0.4158
  118MOL   C36647400   7.377   7.787   7.505 -0.7385  0.3923  0.3251
  118MOL   O36747401   7.415   7.655   7.491 -0.5817 -0.4600  0.5441
  118MOL   C36847402   7.462   7.601   7.371 -0.2692 -0.5899  0.2637
  118MOL   C36947403   7.391   7.880   7.405 -0.1806 -0.1899 -0.5093
  118MOL   C37047404   7.362   8.020   7.416  0.5901 -0.1434 -0.7118
  118MOL   C37147405   7.123   0.174   7.441  0.2761  0.0145  0.3398
  118MOL   H37247406   7.194   0.171   7.647 -0.6741  0.2407 -0.6510
  118MOL   H37347407   7.241   7.989   7.738  0.6717  0.1237  0.6007
  118MOL   H37447408   7.331   7.769   7.711  0.0652  0.0233 -0.2346
  118MOL   H37547409   7.502   7.501   7.388 -0.2665 -0.2132  2.5986
  118MOL   H37647410   7.379   7.598   7.301  1.5684  0.2224 -2.0211
  118MOL   H37747411   7.540   7.669   7.338 -0.4522  1.0710  3.1319
  118MOL   H37847412   7.420   7.846   7.307  1.8142  2.4170 -0.8585
  118MOL   H37947413   7.372   0.048   7.333  0.7205 -1.1093 -1.4857
  118MOL   H38047414   7.079   0.274   7.446  0.0392 -0.0055 -1.2536
  118MOL   H38147415   7.162   0.171   7.339  0.6377  2.0125  0.4046
  118MOL   C38247416   7.012   0.062   7.446 -0.0592 -0.0933  0.6823
  118MOL   C38347417   6.915   0.052   7.327  0.1805 -0.1046 -0.6541
  118MOL   C38447418   6.897   7.964   7.264 -0.0054 -0.6911  0.3441
  118MOL   C38547419   6.787   7.942   7.181 -0.4540  0.0613 -0.4570
  118MOL   C38647420   6.719   0.017   7.135 -0.3213  0.4079  0.0583
  118MOL   O38747421   6.616   0.005   7.046 -0.0919  0.1365 -0.2904
  118MOL   C38847422   6.597   7.926   6.973 -0.0258  0.7286 -0.0986
  118MOL   C38947423   6.752   0.147   7.185  0.5039 -0.7680  0.7559
  118MOL   C39047424   6.838   0.162   7.290 -0.4960 -0.6038 -0.4166
  118MOL   C39147425   6.928   0.069   7.581  0.0969 -0.3545  0.0615
  118MOL   H39247426   7.069   8.009   7.440 -1.3447 -0.8436 -0.1028
  118MOL   H39347427   6.959   7.880   7.291  0.5057 -0.4775 -0.1700
  118MOL   H39447428   6.778   7.839   7.150 -0.8654 -0.2625  0.6954
  118MOL   H39547429   6.570   7.847   7.043 -1.0447  0.0480 -1.2544
  118MOL   H39647430   6.687   7.887   6.926 -0.7423 -2.4651  1.0965
  118MOL   H39747431   6.511   7.936   6.907 -1.6390 -3.5727  1.2006
  118MOL   H39847432   6.689   0.229   7.150  1.8470 -0.5006 -1.1348
  118MOL   H39947433   6.848   0.250   7.352 -3.1932 -1.1618  0.8674
  118MOL   H40047434   6.988   0.084   7.671 -0.9652 -0.5204  0.8120
  118MOL   H40147435   6.866   8.020   7.591 -2.4364  1.4961  1.4276
  118MOL   H40247436   6.875   0.162   7.561 -0.0055 -0.2949  0.6083
  119MOL     C147437   2.442   5.378   3.246 -0.0579  0.0550 -0.0225
  119MOL     C247438   2.439   5.233   3.192  0.3325  0.2314  0.3139
  119MOL     C347439   2.314   5.178   3.145 -0.8813 -0.0677 -0.4871
  119MOL     C447440   2.306   5.041   3.122 -0.7305  0.1144 -0.3370
  119MOL     C547441   2.419   4.955   3.129  0.5182 -1.6735 -0.6193
  119MOL     O647442   2.423   4.821   3.094 -0.4381 -0.0219  0.0414
  119MOL     C747443   2.304   4.770   3.025  0.4861  0.3700  0.0909
  119MOL     C847444   2.545   5.014   3.150 -0.1070 -0.2060  0.3520
  119MOL     C947445   2.549   5.152   3.194  0.3797 -0.5498  1.0154
  119MOL    C1047446   2.456   5.474   3.128  0.1259 -0.8635  0.2695
  119MOL    H1147447   2.519   5.390   3.322  0.5162 -1.6388 -0.3180
  119MOL    H1247448   2.230   5.246   3.135 -0.0685  1.2031  1.1135
  119MOL    H1347449   2.208   5.002   3.100 -0.4795 -0.0882 -1.1321
  119MOL    H1447450   2.261   4.834   2.948  1.5998 -0.0278 -0.8804
  119MOL    H1547451   2.322   4.674   2.978 -2.0932 -0.1515  0.1210
  119MOL    H1647452   2.220   4.753   3.091  1.9385  1.9716  2.4181
  119MOL    H1747453   2.638   4.958   3.149  0.4975  0.7350  1.8309
  119MOL    H1847454   2.641   5.192   3.233  2.1455 -2.8157 -0.6413
  119MOL    H1947455   2.464   5.427   3.030 -1.9379  2.2962 -1.5441
  119MOL    H2047456   2.365   5.533   3.117  1.1050  0.8981  1.3277
  119MOL    H2147457   2.346   5.396   3.294  0.1881 -2.9332  1.7391
  119MOL    C2247458   2.574   5.567   3.145 -0.3549 -0.1257 -0.1145
  119MOL    C2347459   2.705   5.483   3.154  0.1645  0.0880 -0.4065
  119MOL    C2447460   2.752   5.414   3.037 -0.8496  0.4780 -0.5377
  119MOL    C2547461   2.869   5.338   3.037  0.4772 -0.1293  0.1391
  119MOL    C2647462   2.960   5.335   3.144  0.7788  0.9859  0.2405
  119MOL    O2747463   3.066   5.251   3.133 -0.4708 -0.3429  0.7289
  119MOL    C2847464   3.176   5.266   3.214 -0.0046  0.8720  1.0491
  119MOL    C2947465   2.919   5.402   3.264 -0.3872 -0.2266 -0.3188
  119MOL    C3047466   2.797   5.476   3.269 -0.1855  0.0140  0.2245
  119MOL    C3147467   2.583   5.671   3.034  0.0061  0.0932 -0.2961
  119MOL    H3247468   2.564   5.609   3.245  0.5740  0.0437 -0.0909
  119MOL    H3347469   2.685   5.407   2.952 -0.3233 -1.7822 -0.7775
  119MOL    H3447470   2.885   5.275   2.952  4.7790  1.0186  0.0088
  119MOL    H3547471   3.191   5.176   3.273 -2.6039  0.0040  0.4458
  119MOL    H3647472   3.168   5.356   3.275 -1.0296  0.8354  0.9732
  119MOL    H3747473   3.264   5.290   3.153 -0.5454 -0.0123 -0.0987
  119MOL    H3847474   2.973   5.385   3.356  0.2078  1.8937 -0.2326
  119MOL    H3947475   2.770   5.523   3.363 -1.0806 -0.0149 -0.0153
  119MOL    H4047476   2.594   5.632   2.933 -0.4760  2.0305 -1.1333
  119MOL    H4147477   2.488   5.722   3.017  0.9017  1.8200 -0.2422
  119MOL    C4247478   2.694   5.772   3.047  0.5036 -0.2916  0.3104
  119MOL    C4347479   2.640   5.890   3.122  0.5917 -0.1306  0.0905
  119MOL    C4447480   2.697   5.911   3.248  0.4528  0.3074 -0.4441
  119MOL    C4547481   2.674   6.032   3.322 -0.3561 -0.0644 -0.1736
  119MOL    C4647482   2.582   6.131   3.267  0.4949  0.0132 -0.6170
  119MOL    O4747483   2.553   6.251   3.317 -0.2327 -0.0522 -0.1938
  119MOL    C4847484   2.614   6.290   3.432  0.2677  0.0914  0.2102
  119MOL    C4947485   2.519   6.103   3.143 -0.8838  0.7841 -0.1918
  119MOL    C5047486   2.539   5.980   3.074  0.4131 -0.7987  0.1164
  119MOL    C5147487   2.746   5.815   2.911  0.0565  0.0110  0.1840
  119MOL    H5247488   2.781   5.737   3.103  1.8908  1.1069 -0.8982
  119MOL    H5347489   2.770   5.840   3.283 -0.3991 -1.0375 -1.3295
  119MOL    H5447490   2.729   6.048   3.413  0.3154 -3.1692  0.0317
  119MOL    H5547491   2.574   6.388   3.461  0.5382  0.6748 -1.3319
  119MOL    H5647492   2.600   6.212   3.507  1.3668 -0.2502  0.0690
  119MOL    H5747493   2.721   6.298   3.414 -0.1646 -0.0340 -2.5009
  119MOL    H5847494   2.467   6.184   3.093 -1.8428 -0.7008 -1.6707
  119MOL    H5947495   2.498   5.962   2.976 -1.0787 -0.1101  0.5949
  119MOL    H6047496   2.765   5.922   2.913 -0.6175  0.1439 -0.2508
  119MOL    H6147497   2.668   5.799   2.836 -1.0271  2.5056  0.7145
  119MOL    C6247498   2.869   5.736   2.873  0.3318  0.5403  0.0260
  119MOL    C6347499   2.989   5.762   2.966  0.3947  0.5108 -0.2202
  119MOL    C6447500   3.049   5.650   3.028 -0.2199 -0.2508 -0.5772
  119MOL    C6547501   3.174   5.667   3.092 -0.1531  0.0967  0.3275
  119MOL    C6647502   3.230   5.799   3.119 -0.1380  0.3608 -0.4487
  119MOL    O6747503   3.355   5.796   3.177 -0.5107 -0.7109 -0.3787
  119MOL    C6847504   3.411   5.915   3.214 -0.6874  0.5291 -0.1344
  119MOL    C6947505   3.161   5.911   3.069 -0.0816  0.3211  0.5303
  119MOL    C7047506   3.040   5.893   2.997 -0.0173  0.0956 -0.1075
  119MOL    C7147507   2.908   5.725   2.731 -0.1024 -0.3559 -0.2023
  119MOL    H7247508   2.840   5.633   2.897  1.2425  0.4666  0.8568
  119MOL    H7347509   3.010   5.554   2.997 -1.3837 -0.1256  0.4805
  119MOL    H7447510   3.227   5.578   3.122 -2.8262 -1.6258  0.1482
  119MOL    H7547511   3.364   5.951   3.306 -0.1757 -2.2217  1.2702
  119MOL    H7647512   3.395   5.996   3.143 -2.2911 -0.3182 -0.7754
  119MOL    H7747513   3.518   5.906   3.233 -0.4882  3.1045  0.0958
  119MOL    H7847514   3.195   6.013   3.080  2.4172 -0.5911  1.4149
  119MOL    H7947515   2.995   5.982   2.955  1.5136  1.1513  0.4255
  119MOL    H8047516   2.914   5.826   2.689  0.3579  0.5615  1.9798
  119MOL    H8147517   3.006   5.682   2.714  0.9169  1.2234  1.4636
  119MOL    C8247518   2.808   5.645   2.651 -0.1465 -0.0901  0.9095
  119MOL    C8347519   2.804   5.697   2.508 -0.5742 -0.1703 -0.0625
  119MOL    C8447520   2.681   5.736   2.451 -0.1823 -0.9805  0.4353
  119MOL    C8547521   2.676   5.770   2.313  0.1083  0.2913 -0.6622
  119MOL    C8647522   2.785   5.737   2.225 -0.5597  0.1873  0.5836
  119MOL    O8747523   2.774   5.772   2.093 -0.4487  0.2151 -0.0670
  119MOL    C8847524   2.864   5.704   2.007 -0.1117 -0.2135 -0.1068
  119MOL    C8947525   2.908   5.696   2.287 -0.5110 -0.0263  0.0428
  119MOL    C9047526   2.911   5.678   2.429 -0.5636 -0.3948  0.3008
  119MOL    C9147527   2.846   5.490   2.662  0.2146 -0.6157 -0.4189
  119MOL    H9247528   2.706   5.643   2.688  0.3123  0.4513  2.2078
  119MOL    H9347529   2.596   5.752   2.515 -0.3842 -1.6789  0.3427
  119MOL    H9447530   2.581   5.811   2.282 -0.2702  0.7189  1.0095
  119MOL    H9547531   2.838   5.709   1.901  1.8968  0.2620 -0.6117
  119MOL    H9647532   2.871   5.598   2.029  0.0382 -0.1607  0.0964
  119MOL    H9747533   2.968   5.736   1.995 -0.0566 -0.3919 -0.1180
  119MOL    H9847534   3.002   5.670   2.240 -0.4669  0.8247 -0.3482
  119MOL    H9947535   3.004   5.647   2.475 -0.7442 -1.0724  0.2138
  119MOL   H10047536   2.952   5.470   2.644  0.4925 -0.1737  0.6812
  119MOL   H10147537   2.838   5.463   2.767 -1.6377 -0.3867 -0.4836
  119MOL   C10247538   2.747   5.392   2.584  0.3055  0.4740 -1.0066
  119MOL   C10347539   2.802   5.363   2.444 -0.0413  0.4480  0.2959
  119MOL   C10447540   2.715   5.375   2.333  0.4113 -0.0091 -0.3278
  119MOL   C10547541   2.767   5.374   2.202  0.3023 -0.5140 -0.3116
  119MOL   C10647542   2.900   5.345   2.173 -0.4482  0.3993  0.2700
  119MOL   O10747543   2.931   5.341   2.041  0.8167  0.0997  0.4704
  119MOL   C10847544   3.068   5.306   2.005  0.2841  0.1259  0.2187
  119MOL   C10947545   2.989   5.326   2.278 -0.4421 -0.3614 -0.7912
  119MOL   C11047546   2.938   5.328   2.413 -0.3315  0.0121 -0.0644
  119MOL   C11147547   2.744   5.262   2.671  0.1367  0.1210  0.6406
  119MOL   H11247548   2.647   5.435   2.580  0.2798  0.3963 -1.1828
  119MOL   H11347549   2.610   5.390   2.349  0.4350 -0.3660  0.1783
  119MOL   H11447550   2.694   5.404   2.128 -2.0430 -0.1713  2.0746
  119MOL   H11547551   3.087   5.315   1.898 -1.3133 -0.6491 -0.1363
  119MOL   H11647552   3.142   5.368   2.056 -1.7334 -0.0706  3.4972
  119MOL   H11747553   3.078   5.198   2.018  0.7292  0.0939 -0.3979
  119MOL   H11847554   3.095   5.308   2.268 -0.3191  0.4063 -0.8744
  119MOL   H11947555   3.010   5.318   2.493  1.8258 -2.5074 -2.2109
  119MOL   H12047556   2.844   5.220   2.668  0.3714  0.7825 -1.8169
  119MOL   H12147557   2.709   5.286   2.772  0.3441 -0.2854  0.8107
  119MOL   C12247558   2.638   5.160   2.617 -0.5226 -0.1046 -0.2001
  119MOL   C12347559   2.497   5.214   2.632 -0.0422  0.4145  0.3354
  119MOL   C12447560   2.438   5.252   2.754 -0.3773  0.4170 -0.3997
  119MOL   C12547561   2.309   5.309   2.760  0.0816  0.8441  0.0965
  119MOL   C12647562   2.231   5.320   2.641 -0.5857  0.3655 -0.0036
  119MOL   O12747563   2.099   5.365   2.654  0.0325  0.2445 -0.2349
  119MOL   C12847564   2.002   5.306   2.568  0.2391 -0.2976 -0.3648
  119MOL   C12947565   2.292   5.289   2.519 -0.1113 -0.0608 -0.4999
  119MOL   C13047566   2.425   5.239   2.514  0.5428 -0.5873  0.0898
  119MOL   C13147567   2.660   5.026   2.691 -0.4861  0.4518  0.3958
  119MOL   H13247568   2.658   5.145   2.511 -1.1380  0.5628 -0.4114
  119MOL   H13347569   2.487   5.243   2.849  0.1945 -0.7919 -0.7966
  119MOL   H13447570   2.261   5.321   2.856 -0.4473 -2.3386  0.2990
  119MOL   H13547571   2.036   5.243   2.486 -0.9974 -1.0954 -0.2752
  119MOL   H13647572   1.929   5.260   2.635 -0.5511 -0.3918 -1.2860
  119MOL   H13747573   1.954   5.381   2.505 -0.3297 -2.4019 -2.4994
  119MOL   H13847574   2.241   5.319   2.429 -0.8659 -0.0278 -0.0655
  119MOL   H13947575   2.482   5.228   2.423 -2.3549  1.2803 -2.0671
  119MOL   H14047576   2.566   4.974   2.675 -0.1110 -0.7168  1.8423
  119MOL   H14147577   2.667   5.032   2.800 -0.7095  0.5299  0.4060
  119MOL   C14247578   2.779   4.934   2.643 -0.0377  0.1892  0.1006
  119MOL   C14347579   2.917   4.986   2.664 -0.5694  0.0398  0.5275
  119MOL   C14447580   3.006   5.023   2.556 -0.2147 -0.1358  0.1386
  119MOL   C14547581   3.129   5.078   2.580 -0.8157 -0.2061 -0.0560
  119MOL   C14647582   3.171   5.102   2.715 -0.2857 -0.1825  0.5635
  119MOL   O14747583   3.291   5.164   2.739 -0.2842  0.2390 -0.2893
  119MOL   C14847584   3.359   5.130   2.853 -0.1906  0.1705 -0.3407
  119MOL   C14947585   3.089   5.059   2.820  0.1049  0.5780  0.3409
  119MOL   C15047586   2.967   4.997   2.791  0.0997  0.8989  0.5235
  119MOL   C15147587   2.764   4.796   2.710 -0.4380 -0.4112  0.2638
  119MOL   H15247588   2.767   4.928   2.535 -1.3986  0.5374  0.2244
  119MOL   H15347589   2.982   5.004   2.452 -0.8117  2.0346 -0.1502
  119MOL   H15447590   3.187   5.114   2.496 -0.8078  0.5578  0.2758
  119MOL   H15547591   3.384   5.024   2.853 -2.0150 -0.2891  1.3426
  119MOL   H15647592   3.458   5.175   2.862 -1.0169  2.0638 -0.4883
  119MOL   H15747593   3.315   5.167   2.945  0.2395  2.1228 -0.8991
  119MOL   H15847594   3.111   5.060   2.926 -0.5995 -0.7957  0.5233
  119MOL   H15947595   2.906   4.958   2.872  0.7300  1.1957  1.1519
  119MOL   H16047596   2.671   4.755   2.672  0.6245 -2.3440 -0.3476
  119MOL   H16147597   2.754   4.800   2.819  0.8923 -1.7682  0.4461
  119MOL   C16247598   2.863   4.684   2.670  0.2765 -0.2756  0.3568
  119MOL   C16347599   2.864   4.657   2.519  0.0769  0.7584 -0.0868
  119MOL   C16447600   2.741   4.626   2.451  0.5336  0.0572 -0.2019
  119MOL   C16547601   2.737   4.619   2.313 -0.1269  0.0761  0.0132
  119MOL   C16647602   2.855   4.622   2.239  0.3529 -0.3187 -0.0555
  119MOL   O16747603   2.860   4.617   2.103  0.6058 -0.3523 -0.3338
  119MOL   C16847604   2.736   4.597   2.034 -0.9602 -1.0552  0.5586
  119MOL   C16947605   2.981   4.640   2.305  0.6617 -0.4061 -0.3257
  119MOL   C17047606   2.983   4.658   2.447  0.3115 -0.1932  0.0107
  119MOL   C17147607   2.842   4.557   2.758  0.5349 -0.2595 -0.3972
  119MOL   H17247608   2.960   4.730   2.687  1.1069 -1.5188 -0.9190
  119MOL   H17347609   2.656   4.613   2.516  1.3979 -0.2995  0.8905
  119MOL   H17447610   2.641   4.595   2.269 -0.6599 -0.4488  1.4081
  119MOL   H17547611   2.684   4.509   2.072 -0.2275 -1.1400  1.3732
  119MOL   H17647612   2.755   4.588   1.927  0.5612  0.5330  0.6780
  119MOL   H17747613   2.662   4.675   2.048 -1.4297 -1.1092 -1.4835
  119MOL   H17847614   3.071   4.652   2.246 -0.1136  1.9600 -1.0529
  119MOL   H17947615   3.073   4.688   2.499  0.3090 -0.3852  0.1278
  119MOL   H18047616   2.783   4.481   2.706  0.0331 -1.6982  2.2240
  119MOL   H18147617   2.763   4.587   2.826  1.0537  0.8439 -0.2775
  119MOL   C18247618   2.971   4.503   2.825  0.1817 -0.0591 -0.3708
  119MOL   C18347619   3.054   4.415   2.740 -0.1500 -0.1883 -0.6486
  119MOL   C18447620   3.196   4.428   2.747 -0.2521 -0.0967  0.0719
  119MOL   C18547621   3.275   4.344   2.675  0.6712 -0.1488  0.1949
  119MOL   C18647622   3.222   4.248   2.593  0.2248 -0.0763 -0.7080
  119MOL   O18747623   3.314   4.176   2.528  0.1795 -0.2235 -0.4275
  119MOL   C18847624   3.267   4.081   2.437 -0.3664 -0.4362  0.4014
  119MOL   C18947625   3.085   4.230   2.583 -0.4431  0.3509 -0.0983
  119MOL   C19047626   3.000   4.312   2.663 -0.4816  0.4510 -0.1436
  119MOL   C19147627   2.929   4.419   2.952  0.0133 -0.4006  0.1993
  119MOL   H19247628   3.033   4.586   2.860 -0.3769 -0.1082  0.7676
  119MOL   H19347629   3.242   4.516   2.789  1.0135  0.3594 -2.2177
  119MOL   H19447630   3.382   4.356   2.674  0.6941 -0.3896 -2.2944
  119MOL   H19547631   3.212   4.127   2.355 -0.5479 -0.3374  0.5788
  119MOL   H19647632   3.209   4.000   2.482  0.1455 -1.8894 -1.4888
  119MOL   H19747633   3.356   4.037   2.392 -1.9840  0.6600 -4.1023
  119MOL   H19847634   3.036   4.158   2.518  0.6357 -0.7495  0.2844
  119MOL   H19947635   2.895   4.291   2.650 -1.0335  2.6710  0.4797
  119MOL   H20047636   2.870   4.330   2.928 -1.4985  0.5967  0.1192
  119MOL   H20147637   3.016   4.366   2.992 -0.7045 -1.8239 -0.0768
  119MOL   C20247638   2.881   4.503   3.078  0.4503 -0.1850  0.7249
  119MOL   C20347639   2.987   4.610   3.112 -0.1868  0.0403 -0.1764
  119MOL   C20447640   2.940   4.743   3.129  0.0275  0.5688  0.1272
  119MOL   C20547641   3.033   4.851   3.124 -0.4266 -0.2666  0.1797
  119MOL   C20647642   3.170   4.827   3.117  0.8290  0.4905  0.1785
  119MOL   O20747643   3.258   4.933   3.116 -0.1589  0.4813 -0.6344
  119MOL   C20847644   3.399   4.911   3.122  0.8132  0.6269  0.2755
  119MOL   C20947645   3.218   4.690   3.111  0.2719  0.3096 -0.1622
  119MOL   C21047646   3.129   4.583   3.103 -0.1255  0.2083 -0.2096
  119MOL   C21147647   2.851   4.409   3.196 -0.4058  0.4740 -0.4055
  119MOL   H21247648   2.793   4.557   3.045  0.9479  0.8386  1.0323
  119MOL   H21347649   2.833   4.757   3.139 -0.1384 -0.8238  0.4674
  119MOL   H21447650   2.987   4.948   3.118  0.5438  0.1539 -0.5629
  119MOL   H21547651   3.432   4.850   3.037  2.0590 -0.2187  1.3534
  119MOL   H21647652   3.444   5.009   3.116  1.9232  0.0489 -1.3552
  119MOL   H21747653   3.422   4.855   3.213  0.9657 -1.1675 -0.8277
  119MOL   H21847654   3.326   4.679   3.109  0.4079  1.4543  0.3647
  119MOL   H21947655   3.161   4.481   3.094 -0.6426 -0.0123  0.3763
  119MOL   H22047656   2.945   4.372   3.237 -2.6735 -3.9014  1.0985
  119MOL   H22147657   2.788   4.327   3.162 -0.6577  1.0327 -1.3206
  119MOL   C22247658   2.770   4.467   3.317 -0.8281  0.0321 -0.0629
  119MOL   C22347659   2.619   4.452   3.301 -0.2127  0.3773  0.0764
  119MOL   C22447660   2.537   4.566   3.293  0.4701  0.0196  0.0491
  119MOL   C22547661   2.398   4.547   3.276 -0.2964 -0.7015 -0.3415
  119MOL   C22647662   2.344   4.420   3.263  0.0831  0.6956 -0.4559
  119MOL   O22747663   2.215   4.413   3.236 -0.1456 -0.3960  0.0168
  119MOL   C22847664   2.162   4.285   3.192 -0.3684 -0.2412  0.4003
  119MOL   C22947665   2.426   4.304   3.274 -0.2240 -0.1364  0.3774
  119MOL   C23047666   2.564   4.322   3.298  0.3853 -0.0990 -0.1892
  119MOL   C23147667   2.821   4.403   3.455  0.2340  0.5842  0.6974
  119MOL   H23247668   2.803   4.571   3.325  0.7062 -0.2937 -1.8918
  119MOL   H23347669   2.582   4.664   3.303 -0.1404  0.3389 -0.2892
  119MOL   H23447670   2.341   4.639   3.278  1.6865  0.5723 -1.0485
  119MOL   H23547671   2.228   4.231   3.124 -0.5786  1.4458 -1.1761
  119MOL   H23647672   2.162   4.231   3.287 -1.0395  0.4636  0.8064
  119MOL   H23747673   2.061   4.287   3.152 -0.2212 -2.5525 -0.1414
  119MOL   H23847674   2.385   4.205   3.257  1.1002 -1.0378  2.2473
  119MOL   H23947675   2.633   4.240   3.290  0.2729 -0.0703 -1.5435
  119MOL   H24047676   2.745   4.423   3.531 -0.3730  0.7154  0.0608
  119MOL   H24147677   2.826   4.295   3.445  1.6671  0.8936 -2.3860
  119MOL   C24247678   2.959   4.459   3.504 -0.0987  0.0092 -0.4835
  119MOL   C24347679   2.957   4.613   3.553 -0.8389  0.0055  0.3807
  119MOL   C24447680   3.036   4.717   3.494  0.1228  0.4302  0.7518
  119MOL   C24547681   3.028   4.845   3.545  0.4591  0.0089  0.4731
  119MOL   C24647682   2.935   4.874   3.649  0.2854  0.0772  0.4828
  119MOL   O24747683   2.920   5.008   3.679  0.3350 -1.3136 -0.1274
  119MOL   C24847684   2.851   5.046   3.794  0.9040 -0.4973 -0.2512
  119MOL   C24947685   2.851   4.773   3.696 -0.5045 -0.8949  0.5093
  119MOL   C25047686   2.871   4.640   3.652 -0.0644  0.1046 -0.1194
  119MOL   C25147687   3.026   4.360   3.603  0.2855  0.3161 -0.1988
  119MOL   H25247688   3.026   4.469   3.418  1.3326 -0.6351  0.5421
  119MOL   H25347689   3.110   4.702   3.417 -1.9078  1.7536 -1.5274
  119MOL   H25447690   3.093   4.916   3.495  0.9284 -0.7919 -0.0470
  119MOL   H25547691   2.867   5.153   3.808  0.4931 -0.5632  0.8008
  119MOL   H25647692   2.744   5.028   3.785  0.7193  0.3524  0.1463
  119MOL   H25747693   2.887   4.999   3.886  0.6401 -1.5488 -0.6817
  119MOL   H25847694   2.762   4.794   3.754 -0.2655 -0.5616  0.7588
  119MOL   H25947695   2.817   4.564   3.706  0.1768  0.6387  0.8915
  119MOL   H26047696   3.005   4.256   3.576  1.0910 -0.1387  0.8882
  119MOL   H26147697   2.975   4.375   3.698 -1.9781 -1.6131 -1.0465
  119MOL   C26247698   3.182   4.378   3.621  0.1057  0.4174  0.1912
  119MOL   C26347699   3.255   4.369   3.488 -0.3507  0.1985  0.2775
  119MOL   C26447700   3.324   4.476   3.425 -0.3260 -0.5566 -0.2866
  119MOL   C26547701   3.372   4.460   3.297  0.0445 -0.3620  0.2085
  119MOL   C26647702   3.356   4.335   3.229 -0.6622  0.2792  0.2567
  119MOL   O26747703   3.417   4.314   3.107  0.7557 -0.5104  0.8257
  119MOL   C26847704   3.386   4.195   3.029 -0.0697  0.0340  0.5837
  119MOL   C26947705   3.292   4.227   3.292  0.3727  0.2897 -0.5847
  119MOL   C27047706   3.244   4.247   3.421 -0.6714 -0.0308 -0.3865
  119MOL   C27147707   3.240   4.280   3.728 -0.1571  0.3006  0.1782
  119MOL   H27247708   3.189   4.482   3.655 -1.9434  0.2485  1.1996
  119MOL   H27347709   3.341   4.571   3.474 -1.3008  0.5690 -2.0841
  119MOL   H27447710   3.421   4.545   3.251 -1.0095  0.6126  0.8629
  119MOL   H27547711   3.435   4.201   2.931  0.8101 -0.8990  0.9653
  119MOL   H27647712   3.279   4.180   3.019  0.2407 -1.4070 -0.8798
  119MOL   H27747713   3.434   4.108   3.073  2.2527  0.4437 -1.0191
  119MOL   H27847714   3.273   4.133   3.242  0.0890  0.7655 -1.3864
  119MOL   H27947715   3.182   4.172   3.467 -0.5810 -0.4369 -0.9245
  119MOL   H28047716   3.154   4.241   3.782 -0.7008  1.9557  0.5177
  119MOL   H28147717   3.291   4.198   3.677  0.8351  1.4333 -0.6902
  119MOL   C28247718   3.330   4.338   3.839  0.0069  0.0689  0.2009
  119MOL   C28347719   3.247   4.418   3.937 -0.3194 -0.4559  0.9563
  119MOL   C28447720   3.229   4.561   3.941  0.5890  0.5225  0.3338
  119MOL   C28547721   3.154   4.614   4.046  0.2254  0.5605  0.1248
  119MOL   C28647722   3.084   4.525   4.138  0.0265 -0.7058 -0.2947
  119MOL   O28747723   2.993   4.568   4.229 -0.3177 -0.6715 -0.3221
  119MOL   C28847724   2.918   4.687   4.227  0.1923 -0.7621  0.7101
  119MOL   C28947725   3.113   4.383   4.134  0.2351 -0.0566  0.4454
  119MOL   C29047726   3.194   4.335   4.034  0.4851  0.3725  0.4030
  119MOL   C29147727   3.452   4.410   3.777 -0.3768  0.8111 -0.4441
  119MOL   H29247728   3.367   4.250   3.892  0.2368  0.4365  0.6528
  119MOL   H29347729   3.267   4.625   3.862  0.1994 -1.8378 -1.8157
  119MOL   H29447730   3.133   4.720   4.049 -0.5516  0.3889  1.2275
  119MOL   H29547731   2.839   4.675   4.300 -0.4984 -1.8498 -0.1808
  119MOL   H29647732   2.976   4.774   4.258 -0.1970 -0.5572  0.8590
  119MOL   H29747733   2.885   4.704   4.124  1.4848  1.1082  0.5848
  119MOL   H29847734   3.083   4.309   4.207  1.0902 -1.6087 -0.7484
  119MOL   H29947735   3.220   4.230   4.038  1.4755  0.6427  1.3072
  119MOL   H30047736   3.427   4.494   3.713 -1.8879  2.3386  2.0336
  119MOL   H30147737   3.503   4.453   3.863  0.4317 -0.2445 -0.3932
  119MOL   C30247738   3.555   4.318   3.701  0.0757  0.3969  0.1534
  119MOL   C30347739   3.686   4.396   3.692 -0.5553  0.8979  0.1147
  119MOL   C30447740   3.731   4.447   3.568 -0.1770  0.1414 -0.2414
  119MOL   C30547741   3.854   4.512   3.562 -0.0191  0.1293 -0.9775
  119MOL   C30647742   3.937   4.531   3.678 -0.2088  0.0779  0.2376
  119MOL   O30747743   4.053   4.605   3.661  0.1657 -0.0789 -0.1210
  119MOL   C30847744   4.149   4.612   3.763  0.6207 -0.5702  0.3972
  119MOL   C30947745   3.892   4.487   3.804 -0.3524 -0.5225 -0.2506
  119MOL   C31047746   3.767   4.423   3.808 -0.2011  0.1381  0.4494
  119MOL   C31147747   3.575   4.172   3.762 -0.2830 -0.1797  0.2106
  119MOL   H31247748   3.513   4.297   3.602  0.6448  0.2412 -0.0563
  119MOL   H31347749   3.683   4.427   3.473 -0.5344  2.6095 -0.6329
  119MOL   H31447750   3.875   4.549   3.463 -2.7101  0.2745 -1.5565
  119MOL   H31547751   4.156   4.520   3.821 -1.3608 -1.1279 -0.2109
  119MOL   H31647752   4.117   4.690   3.831  0.8674  0.5617 -0.7598
  119MOL   H31747753   4.241   4.656   3.724  1.0224  1.1503  3.1595
  119MOL   H31847754   3.935   4.516   3.899  1.3670  1.9300 -1.7016
  119MOL   H31947755   3.733   4.395   3.906 -0.9856 -1.7841 -0.3542
  119MOL   H32047756   3.487   4.110   3.774  0.2987 -1.5158 -2.2976
  119MOL   H32147757   3.608   4.192   3.865  2.4448 -0.4371 -0.5826
  119MOL   C32247758   3.673   4.084   3.683  0.2386  0.0971 -0.5335
  119MOL   C32347759   3.605   4.040   3.549  0.3393 -0.4939 -0.2828
  119MOL   C32447760   3.502   3.947   3.558 -0.0356  0.2539 -0.2926
  119MOL   C32547761   3.442   3.899   3.437  0.2157 -0.5205  0.2376
  119MOL   C32647762   3.491   3.939   3.306 -0.1844  0.6447  0.3254
  119MOL   O32747763   3.440   3.886   3.189  0.8314  0.6883  0.7963
  119MOL   C32847764   3.329   3.801   3.192  0.3515  0.0060 -0.5697
  119MOL   C32947765   3.594   4.037   3.302 -0.1654  0.3517 -0.0454
  119MOL   C33047766   3.645   4.088   3.420 -0.0821  0.0837 -0.7509
  119MOL   C33147767   3.743   3.981   3.767  0.3133 -0.6387 -0.4385
  119MOL   H33247768   3.754   4.152   3.654 -0.1051  0.7294 -0.0293
  119MOL   H33347769   3.464   3.912   3.653  0.0679  0.6173 -0.1182
  119MOL   H33447770   3.369   3.820   3.442 -1.2901  0.6736 -1.9690
  119MOL   H33547771   3.243   3.855   3.231 -0.2385 -0.1179 -1.6668
  119MOL   H33647772   3.338   3.707   3.246 -1.1976 -0.1088 -0.4834
  119MOL   H33747773   3.291   3.769   3.095  1.4259 -0.3041 -0.8922
  119MOL   H33847774   3.622   4.082   3.208  1.3201  0.7534  0.5815
  119MOL   H33947775   3.724   4.161   3.407 -0.1398 -0.0122 -1.6478
  119MOL   H34047776   3.670   3.929   3.829 -0.1005  0.4615  0.0037
  119MOL   H34147777   3.789   3.901   3.709  0.1762 -0.0322 -1.3933
  119MOL   C34247778   3.864   4.039   3.852  0.5815  0.1562 -0.0832
  119MOL   C34347779   3.984   4.085   3.763  0.8669  0.6549 -0.3008
  119MOL   C34447780   4.003   4.040   3.631  1.1898 -0.5302 -0.3179
  119MOL   C34547781   4.103   4.097   3.548  0.2700 -0.3976  0.3256
  119MOL   C34647782   4.188   4.194   3.593  0.2514  0.2478  0.0749
  119MOL   O34747783   4.271   4.248   3.504  0.0699 -0.3871  0.0150
  119MOL   C34847784   4.344   4.373   3.528  0.0028  0.7704  0.1229
  119MOL   C34947785   4.176   4.235   3.729  0.1115 -0.3686  0.2445
  119MOL   C35047786   4.080   4.181   3.813 -0.6554 -0.1686 -0.0395
  119MOL   C35147787   3.922   3.949   3.964 -0.2587 -0.3178  0.5550
  119MOL   H35247788   3.825   4.131   3.895  1.4914  0.3246  0.4070
  119MOL   H35347789   3.944   3.959   3.592  0.3607 -1.0153  1.8739
  119MOL   H35447790   4.112   4.054   3.449 -0.5092 -1.7232  0.8212
  119MOL   H35547791   4.273   4.452   3.508 -0.9564  0.3893  1.8715
  119MOL   H35647792   4.388   4.389   3.627 -1.5725 -1.2600  1.1857
  119MOL   H35747793   4.429   4.377   3.459  0.1215  1.2002  0.2914
  119MOL   H35847794   4.251   4.305   3.763 -0.5637 -0.0430  1.0729
  119MOL   H35947795   4.077   4.217   3.915  1.4899 -0.1313  0.0267
  119MOL   H36047796   3.938   3.843   3.944 -0.0488 -0.4594  1.4554
  119MOL   H36147797   4.019   3.987   3.995  1.6060 -4.1391 -0.2915
  119MOL   C36247798   3.854   3.952   4.097 -0.1224  0.0540 -0.0724
  119MOL   C36347799   3.803   4.089   4.137  0.3724  0.6017 -0.4922
  119MOL   C36447800   3.671   4.120   4.101 -0.0829 -0.0951  0.3553
  119MOL   C36547801   3.612   4.239   4.142  0.0869 -0.2636  0.0777
  119MOL   C36647802   3.693   4.341   4.193 -0.0122 -0.9042  0.0562
  119MOL   O36747803   3.634   4.464   4.206 -0.1028  0.1930  0.1697
  119MOL   C36847804   3.719   4.573   4.208  0.3132  0.2311  0.5081
  119MOL   C36947805   3.829   4.314   4.221 -0.3997  0.7234  0.2732
  119MOL   C37047806   3.880   4.183   4.201 -0.0700  0.1974 -0.0241
  119MOL   C37147807   3.936   3.882   4.211 -0.0831 -0.2337  0.0504
  119MOL   H37247808   3.765   3.891   4.079 -0.7610  1.0003 -0.1698
  119MOL   H37347809   3.617   4.045   4.045 -0.3192  1.2828 -1.3209
  119MOL   H37447810   3.508   4.258   4.121 -0.2697 -2.6878 -0.4742
  119MOL   H37547811   3.774   4.572   4.302 -0.0178 -2.8409  0.7382
  119MOL   H37647812   3.779   4.573   4.118 -0.2041  0.6618  0.1629
  119MOL   H37747813   3.665   4.667   4.216 -0.0116  0.2728 -1.9302
  119MOL   H37847814   3.894   4.381   4.275  2.2408 -0.9983 -0.6657
  119MOL   H37947815   3.975   4.149   4.242  0.4875  2.0498  0.3023
  119MOL   H38047816   4.034   3.869   4.166  0.0470 -0.9955  0.5339
  119MOL   H38147817   3.952   3.949   4.295 -0.6101  0.6428 -0.5484
  119MOL   C38247818   3.881   3.749   4.250 -0.2717  0.4191 -0.1979
  119MOL   C38347819   3.743   3.758   4.326  0.3299  0.1397  0.7095
  119MOL   C38447820   3.713   3.864   4.416  0.1199 -0.2646 -0.6901
  119MOL   C38547821   3.606   3.856   4.509  0.0186  0.0991 -0.5647
  119MOL   C38647822   3.521   3.741   4.510 -1.0304  0.4825 -0.7337
  119MOL   O38747823   3.413   3.722   4.597  0.5915 -0.1992 -0.1546
  119MOL   C38847824   3.394   3.812   4.698  0.2030  0.1067  0.1176
  119MOL   C38947825   3.540   3.645   4.407 -0.3580  0.0723  0.3862
  119MOL   C39047826   3.649   3.647   4.316  0.4288 -0.1220 -0.0725
  119MOL   C39147827   3.986   3.679   4.342  0.0734 -0.1839 -0.3248
  119MOL   H39247828   3.869   3.691   4.159 -3.1737  2.7798 -1.4256
  119MOL   H39347829   3.781   3.948   4.419  0.0416 -0.2223  0.1956
  119MOL   H39447830   3.600   3.941   4.575 -1.7091 -1.2798  1.0986
  119MOL   H39547831   3.472   3.800   4.774  0.7649 -1.8888 -0.7346
  119MOL   H39647832   3.300   3.791   4.748  0.5805 -1.5402  0.1673
  119MOL   H39747833   3.397   3.917   4.670 -1.3290  0.5554  1.5959
  119MOL   H39847834   3.468   3.565   4.403 -0.3171  0.0872 -1.0459
  119MOL   H39947835   3.659   3.568   4.243  1.2311  1.3200 -1.5497
  119MOL   H40047836   3.947   3.579   4.361  0.3659 -0.4470 -1.0994
  119MOL   H40147837   3.997   3.725   4.439 -1.9746  0.2107 -0.2480
  119MOL   H40247838   4.081   3.667   4.289  0.4493 -1.1447  0.5618
  120MOL     C147839   5.818   7.148   0.091  0.0067  0.3187 -0.1889
  120MOL     C247840   5.900   7.149   0.220  0.4616  0.0779 -0.6368
  120MOL     C347841   5.936   7.278   0.271  0.2106 -0.4976  0.2208
  120MOL     C447842   6.025   7.290   0.383 -0.5124  0.4947 -0.0162
  120MOL     C547843   6.086   7.171   0.439  0.6074 -0.1413  0.0075
  120MOL     O647844   6.164   7.183   0.551 -0.4605 -0.4652  0.8198
  120MOL     C747845   6.281   7.106   0.536  0.0760 -0.2154 -0.2401
  120MOL     C847846   6.059   7.045   0.374  0.5579 -0.3391  0.6317
  120MOL     C947847   5.965   7.037   0.274  0.1950 -0.3971 -0.2163
  120MOL    C1047848   5.673   7.203   0.110  0.3334  0.0565 -0.4082
  120MOL    H1147849   5.817   7.046   0.052  0.0810  0.5626 -0.8269
  120MOL    H1247850   5.904   7.369   0.222 -0.1458 -1.2265 -0.9205
  120MOL    H1347851   6.058   7.389   0.410  1.1215 -0.1337  0.3469
  120MOL    H1447852   6.360   7.155   0.594  0.2335  0.6137 -1.1370
  120MOL    H1547853   6.265   7.002   0.563  2.1636 -0.6149 -0.4358
  120MOL    H1647854   6.321   7.115   0.435  0.8353 -1.7137 -0.0924
  120MOL    H1747855   6.108   6.959   0.417  0.7340  0.3513  1.8220
  120MOL    H1847856   5.929   6.941   0.238  1.8866 -1.0836 -0.1242
  120MOL    H1947857   5.675   7.299   0.162 -1.7313  0.3294 -0.7799
  120MOL    H2047858   5.634   7.236   0.013  1.4938  2.3184 -0.1506
  120MOL    H2147859   5.870   7.204   0.014 -0.8146  1.9768  0.4440
  120MOL    C2247860   5.563   7.107   0.172  0.2023  0.1833 -0.2620
  120MOL    C2347861   5.570   7.118   0.321 -0.2858  0.1280  0.1197
  120MOL    C2447862   5.651   7.026   0.396 -0.7338 -0.6777  0.3185
  120MOL    C2547863   5.677   7.041   0.536 -0.3954 -0.2881 -0.7573
  120MOL    C2647864   5.619   7.155   0.603 -0.1984  0.7274  0.2384
  120MOL    O2747865   5.646   7.176   0.740  0.1332 -0.0420 -0.1279
  120MOL    C2847866   5.743   7.109   0.818  0.0004 -0.4892 -0.0330
  120MOL    C2947867   5.526   7.238   0.531 -0.2081  0.1319 -0.0728
  120MOL    C3047868   5.504   7.220   0.395 -0.3867 -0.9100  0.8754
  120MOL    C3147869   5.425   7.152   0.112  0.0346 -0.3435  0.1507
  120MOL    H3247870   5.576   7.001   0.149  0.6426  0.0750  0.5098
  120MOL    H3347871   5.695   6.941   0.345 -1.5077 -2.6510  2.8505
  120MOL    H3447872   5.741   6.969   0.585 -1.1431 -0.4328  0.0186
  120MOL    H3547873   5.817   7.055   0.760  0.1935  0.2577 -0.4895
  120MOL    H3647874   5.697   7.023   0.867 -1.2432 -1.3822 -2.6541
  120MOL    H3747875   5.795   7.172   0.890  0.5375 -1.1330  0.1482
  120MOL    H3847876   5.474   7.314   0.587  2.1887  0.8933  1.1898
  120MOL    H3947877   5.437   7.282   0.338  0.4090  0.2974  1.2357
  120MOL    H4047878   5.408   7.257   0.136 -0.6056 -0.0160 -1.5957
  120MOL    H4147879   5.425   7.150   0.003 -2.0889 -1.8596  0.1323
  120MOL    C4247880   5.307   7.061   0.158  0.1441 -0.1774  0.2136
  120MOL    C4347881   5.322   6.917   0.118  0.7298  0.2945 -0.4240
  120MOL    C4447882   5.346   6.818   0.212 -0.0232  0.1897  0.2731
  120MOL    C4547883   5.353   6.681   0.168  1.1294  0.6829  0.1059
  120MOL    C4647884   5.338   6.648   0.031  0.8389  0.2611  0.4163
  120MOL    O4747885   5.352   6.512   8.038 -0.1366  0.2401 -0.0769
  120MOL    C4847886   5.280   6.463   7.929 -0.6795  0.1031  0.0009
  120MOL    C4947887   5.316   6.748   7.978 -0.2351 -0.8491  0.3864
  120MOL    C5047888   5.315   6.879   8.023 -0.4030  0.0646  0.1670
  120MOL    C5147889   5.179   7.132   0.120  0.4738  0.0894  0.3343
  120MOL    H5247890   5.308   7.054   0.267 -1.3559  1.2844  0.3353
  120MOL    H5347891   5.355   6.840   0.318 -0.3611  0.9825  0.1387
  120MOL    H5447892   5.384   6.594   0.225  2.9059  0.8279 -0.5870
  120MOL    H5547893   5.188   6.519   7.916 -0.8194  0.2123  1.3159
  120MOL    H5647894   5.336   6.469   7.836  4.2121 -0.7851  2.7116
  120MOL    H5747895   5.241   6.362   7.942 -0.7750 -0.0503 -1.4337
  120MOL    H5847896   5.319   6.719   7.875 -1.0167  1.2883 -0.2619
  120MOL    H5947897   5.307   6.953   7.945  2.1004 -1.0311 -1.1634
  120MOL    H6047898   5.101   7.056   0.119 -0.1474  0.7424 -1.5762
  120MOL    H6147899   5.192   7.162   0.016  2.1326 -3.3776 -0.5299
  120MOL    C6247900   5.134   7.240   0.215  0.6659  0.1662 -0.1001
  120MOL    C6347901   5.081   7.182   0.344  0.3891  0.3807 -0.0595
  120MOL    C6447902   4.956   7.117   0.342  0.1322 -0.2478 -0.1696
  120MOL    C6547903   4.903   7.051   0.458 -0.5215  0.1660 -0.1274
  120MOL    C6647904   4.981   7.057   0.578 -0.9921  0.2156  0.2366
  120MOL    O6747905   4.938   7.006   0.702 -0.4524  0.5949 -0.4110
  120MOL    C6847906   4.808   6.936   0.710 -0.3523  0.0104  0.5914
  120MOL    C6947907   5.106   7.126   0.570 -0.4034 -0.3016  0.2100
  120MOL    C7047908   5.153   7.200   0.460  0.1951 -0.8108  0.3743
  120MOL    C7147909   5.039   7.348   0.154  0.6866  0.1438 -0.1088
  120MOL    H7247910   5.223   7.295   0.248 -0.4633 -0.2162  3.8361
  120MOL    H7347911   4.905   7.098   0.249 -1.6066 -0.6970  0.8491
  120MOL    H7447912   4.813   6.993   0.448 -2.1679  1.7770  4.3678
  120MOL    H7547913   4.793   6.898   0.811  0.2493 -3.2748 -0.4950
  120MOL    H7647914   4.818   6.847   0.649  0.6179  0.4962  0.0312
  120MOL    H7747915   4.725   6.999   0.677  0.6345  1.4890  0.8862
  120MOL    H7847916   5.168   7.131   0.658  1.0956  2.1939 -0.9274
  120MOL    H7947917   5.245   7.256   0.451  0.3762 -1.4778 -2.4295
  120MOL    H8047918   4.971   7.299   0.085  1.5524 -2.1621  0.6433
  120MOL    H8147919   4.970   7.379   0.232  0.8533 -1.2844  0.6210
  120MOL    C8247920   5.106   7.480   0.108  0.5678  0.7405 -0.5196
  120MOL    C8347921   5.201   7.462   8.035 -0.0352 -1.0061  0.4988
  120MOL    C8447922   5.339   7.490   0.027  0.6453 -0.4033  0.0362
  120MOL    C8547923   5.438   7.470   7.972 -0.0394  0.9472 -1.0324
  120MOL    C8647924   5.399   7.430   7.836  0.0641 -0.9245 -0.1679
  120MOL    O8747925   5.493   7.414   7.737 -0.0707  0.1874  0.0603
  120MOL    C8847926   5.625   7.452   7.761  1.0761 -0.3604 -0.7255
  120MOL    C8947927   5.262   7.406   7.808 -0.3466  0.2385 -0.5863
  120MOL    C9047928   5.163   7.424   7.906 -0.3699 -0.1464  0.4558
  120MOL    C9147929   5.011   7.601   0.081  0.8341 -0.5291  0.4690
  120MOL    H9247930   5.158   7.499   0.202  0.0099 -0.2812  0.0111
  120MOL    H9347931   5.372   7.511   0.128 -1.4136 -1.1501  0.8891
  120MOL    H9447932   5.539   7.496   8.001  0.0619 -0.8578  0.3350
  120MOL    H9547933   5.678   7.375   7.816  0.4505 -0.8503 -0.8066
  120MOL    H9647934   5.631   7.544   7.821 -1.6678 -0.5554 -0.0635
  120MOL    H9747935   5.672   7.462   7.664  1.0131 -0.2684 -0.7464
  120MOL    H9847936   5.232   7.381   7.708 -1.1381  1.1957 -0.6030
  120MOL    H9947937   5.059   7.416   7.875  0.2361  0.6209 -1.8713
  120MOL   H10047938   5.066   7.669   0.015 -0.1600  1.0347  1.2281
  120MOL   H10147939   4.919   7.570   0.032  0.2178 -1.2313  2.0403
  120MOL   C10247940   4.957   7.679   0.208  0.0887  0.3090  0.5893
  120MOL   C10347941   5.075   7.729   0.295  0.3390  0.7657 -0.2930
  120MOL   C10447942   5.123   7.664   0.411  0.2403  0.2221  0.0418
  120MOL   C10547943   5.244   7.708   0.472 -0.1478 -0.2387  0.4945
  120MOL   C10647944   5.307   7.820   0.424  0.0311  0.6219  0.0199
  120MOL   O10747945   5.422   7.883   0.476 -0.1889  0.2935 -0.1758
  120MOL   C10847946   5.479   7.823   0.588  0.3741  0.5114 -0.0205
  120MOL   C10947947   5.260   7.879   0.308 -0.7377  0.3608 -0.7305
  120MOL   C11047948   5.148   7.830   0.242  0.1285  0.3491 -0.7818
  120MOL   C11147949   4.861   7.798   0.164  0.1854 -0.5321  0.2264
  120MOL   H11247950   4.891   7.604   0.251 -0.8441 -0.5436 -2.2653
  120MOL   H11347951   5.074   7.574   0.445  2.1168 -0.7818  0.1226
  120MOL   H11447952   5.281   7.656   0.560 -0.1279 -0.8044  0.1552
  120MOL   H11547953   5.563   7.885   0.620  1.9406 -1.0773 -0.9525
  120MOL   H11647954   5.410   7.811   0.672  0.5768 -0.4539  0.0234
  120MOL   H11747955   5.516   7.723   0.562 -0.0577  0.2644  0.3041
  120MOL   H11847956   5.314   7.966   0.272  1.2476 -0.6433 -0.2174
  120MOL   H11947957   5.120   7.871   0.147  0.9029 -0.5591 -1.4168
  120MOL   H12047958   4.909   7.877   0.106  1.6770 -2.6044 -1.4189
  120MOL   H12147959   4.802   7.755   0.083 -1.0133  0.1814  0.7059
  120MOL   C12247960   4.775   7.851   0.280  0.1551 -0.4232 -0.1009
  120MOL   C12347961   4.628   7.856   0.235 -0.1532  0.3205 -0.5461
  120MOL   C12447962   4.553   7.738   0.236 -0.1117  0.4015  0.2974
  120MOL   C12547963   4.415   7.746   0.198  0.2754 -0.7707 -0.1899
  120MOL   C12647964   4.344   7.866   0.177  0.5733 -0.9695 -0.4177
  120MOL   O12747965   4.210   7.876   0.162 -0.1311 -0.0986 -0.3141
  120MOL   C12847966   4.133   7.759   0.153 -0.6719 -0.1643  0.4776
  120MOL   C12947967   4.426   7.985   0.180 -0.0414 -0.6582  0.0756
  120MOL   C13047968   4.564   7.975   0.198 -0.4079  0.2516  0.0602
  120MOL   C13147969   4.837   7.984   0.331 -0.5275 -0.6313 -0.3830
  120MOL   H13247970   4.780   7.786   0.367 -0.5266 -0.4953 -0.1098
  120MOL   H13347971   4.591   7.639   0.257  0.7902  0.8715  0.9054
  120MOL   H13447972   4.351   7.660   0.189 -0.9536  0.0033  0.9485
  120MOL   H13547973   4.171   7.676   0.094 -0.8869  1.4097 -1.9625
  120MOL   H13647974   4.123   7.714   0.252 -0.5951 -3.8369 -1.1319
  120MOL   H13747975   4.034   7.768   0.108 -1.2202 -0.1778  1.6646
  120MOL   H13847976   4.384   0.037   0.143 -1.4745 -1.3211  0.0092
  120MOL   H13947977   4.612   0.031   0.183  2.5479 -0.8228  1.9679
  120MOL   H14047978   4.826   0.012   0.247 -0.4993  2.8376  2.3068
  120MOL   H14147979   4.943   7.964   0.345 -0.9288 -1.9733  0.8976
  120MOL   C14247980   4.772   0.009   0.455  0.8796  0.4992 -0.0474
  120MOL   C14347981   4.773   7.961   0.576 -0.7083 -0.1799  0.1031
  120MOL   C14447982   4.657   7.931   0.646 -0.8784 -0.0280  0.1255
  120MOL   C14547983   4.663   7.845   0.756 -0.4313  0.1563 -0.1230
  120MOL   C14647984   4.785   7.794   0.802  0.0818 -0.7230  0.0931
  120MOL   O14747985   4.782   7.704   0.909  0.2577  0.6919  0.3397
  120MOL   C14847986   4.898   7.668   0.979  0.1984  0.0155  0.4555
  120MOL   C14947987   4.905   7.826   0.732 -0.2514 -0.7651  0.5040
  120MOL   C15047988   4.898   7.906   0.617 -0.1503 -0.0934  0.7907
  120MOL   C15147989   4.823   0.150   0.483 -0.2351 -0.0284  0.5007
  120MOL   H15247990   4.673   0.019   0.410  0.5108 -0.2220  0.5924
  120MOL   H15347991   4.559   7.966   0.618 -1.0281 -0.9056 -0.4491
  120MOL   H15447992   4.568   7.826   0.804  0.7786  1.6680  2.9640
  120MOL   H15547993   4.937   7.574   0.940 -1.6121  0.5589 -2.7785
  120MOL   H15647994   4.978   7.739   0.997  0.5643 -0.0753 -0.8152
  120MOL   H15747995   4.870   7.638   1.080 -1.7281  0.0767 -0.0304
  120MOL   H15847996   4.999   7.772   0.740 -0.0107 -0.2317  1.3734
  120MOL   H15947997   4.981   7.918   0.549 -0.2648  1.0800  0.8481
  120MOL   H16047998   4.847   0.209   0.395 -0.5833 -0.9336 -0.2146
  120MOL   H16147999   4.913   0.155   0.544  1.8597  0.8962 -2.5342
  120MOL   C16248000   4.713   0.232   0.565 -0.3060  0.1977 -0.3558
  120MOL   C16348001   4.621   0.303   0.470  0.3279 -0.6404 -0.0386
  120MOL   C16448002   4.506   0.235   0.417 -0.3639 -0.1022 -0.3325
  120MOL   C16548003   4.432   0.300   0.322 -0.1816 -0.1738 -0.4336
  120MOL   C16648004   4.454   0.433   0.278 -0.0954  0.5618  0.0672
  120MOL   O16748005   4.364   0.492   0.196 -0.0012 -0.1471 -0.0827
  120MOL   C16848006   4.390   0.618   0.146  0.4238  0.3455  0.0453
  120MOL   C16948007   4.569   0.498   0.333  0.0589 -0.2955  0.6763
  120MOL   C17048008   4.649   0.433   0.426  0.4802  0.4871  0.5747
  120MOL   C17148009   4.784   0.318   0.669 -0.6539 -0.4755 -0.2349
  120MOL   H17248010   4.650   0.161   0.620  1.3718 -0.9437  0.1146
  120MOL   H17348011   4.481   0.133   0.441 -0.5512 -0.0227 -0.1905
  120MOL   H17448012   4.348   0.247   0.279 -0.2364 -0.3031 -0.1688
  120MOL   H17548013   4.387   0.695   0.223  2.1261  1.0155 -0.5381
  120MOL   H17648014   4.326   0.646   0.061  1.9746 -2.1972 -2.0413
  120MOL   H17748015   4.485   0.625   0.094 -0.1419 -0.2271 -1.0834
  120MOL   H17848016   4.597   0.598   0.304 -0.3023 -0.4303 -0.1680
  120MOL   H17948017   4.745   0.477   0.448  1.0275  0.9192 -2.3641
  120MOL   H18048018   4.719   0.400   0.699 -0.7066 -0.2635 -0.9076
  120MOL   H18148019   4.872   0.363   0.624 -0.2974 -0.2106  0.7209
  120MOL   C18248020   4.828   0.239   0.800 -0.2835 -0.1880 -0.2256
  120MOL   C18348021   4.716   0.209   0.900 -1.1426 -0.4395 -0.4259
  120MOL   C18448022   4.622   0.306   0.941 -0.6148  0.6078 -0.3488
  120MOL   C18548023   4.532   0.277   1.045 -0.1633  0.0659  0.7249
  120MOL   C18648024   4.540   0.155   1.107 -0.7519  0.6957 -1.1027
  120MOL   O18748025   4.474   0.135   1.225 -0.4504  0.8179  0.7334
  120MOL   C18848026   4.469   0.005   1.283 -0.0262  0.2057  0.1333
  120MOL   C18948027   4.631   0.055   1.058 -0.3845 -0.3888 -0.8861
  120MOL   C19048028   4.715   0.074   0.948  0.5081 -0.1663  0.3017
  120MOL   C19148029   4.938   0.330   0.870  0.3633  0.7209  0.0380
  120MOL   H19248030   4.875   0.145   0.771 -1.1630 -0.7118  0.0288
  120MOL   H19348031   4.632   0.408   0.908  1.3025 -0.6085 -3.8562
  120MOL   H19448032   4.463   0.350   1.085 -2.7819 -0.9228 -1.8570
  120MOL   H19548033   4.405   0.016   1.371 -0.3840  0.2446 -0.1306
  120MOL   H19648034   4.565   8.008   1.319  0.1716 -0.7951 -1.4305
  120MOL   H19748035   4.422   7.969   1.221 -0.4110  1.6669 -1.4059
  120MOL   H19848036   4.643   7.999   1.106  3.3220 -1.4714 -3.7178
  120MOL   H19948037   4.788   0.006   0.908  1.1623  1.7463 -1.8812
  120MOL   H20048038   4.901   0.431   0.852 -0.0268  0.4218 -0.8756
  120MOL   H20148039   4.950   0.310   0.976  1.5125 -0.3389 -0.2824
  120MOL   C20248040   5.070   0.308   0.797 -0.9302  0.2080  0.0831
  120MOL   C20348041   5.124   0.172   0.828 -0.0434 -0.3169 -0.0404
  120MOL   C20448042   5.151   0.133   0.965  0.4440  0.1939  0.1139
  120MOL   C20548043   5.195   0.002   0.996  0.3947  1.0094  0.3962
  120MOL   C20648044   5.219   7.949   0.899  0.1806 -0.0111 -0.2585
  120MOL   O20748045   5.256   7.819   0.930  0.1170 -0.1690  0.2643
  120MOL   C20848046   5.311   7.796   1.062  0.4126  0.1619  0.3098
  120MOL   C20948047   5.191   7.985   0.765 -1.1978  0.2289 -0.6885
  120MOL   C21048048   5.146   0.073   0.736  0.3786 -0.4253 -0.3727
  120MOL   C21148049   5.173   0.416   0.817 -0.3933 -0.6573 -0.4340
  120MOL   H21248050   5.058   0.297   0.690 -2.9698 -0.8491  0.3908
  120MOL   H21348051   5.138   0.204   1.046 -0.8888  1.1697 -0.9180
  120MOL   H21448052   5.209   8.028   1.102  1.7453  0.1565  0.1128
  120MOL   H21548053   5.239   7.816   1.140  0.3103 -1.8735  0.7675
  120MOL   H21648054   5.338   7.690   1.063  0.7750  0.2533  0.3397
  120MOL   H21748055   5.399   7.857   1.082 -1.6225  2.7674  1.5812
  120MOL   H21848056   5.201   7.918   0.681  0.2942 -0.2852 -0.1108
  120MOL   H21948057   5.132   0.090   0.630  0.2700 -1.3214 -0.5105
  120MOL   H22048058   5.265   0.358   0.807 -0.7188 -0.9387 -1.9198
  120MOL   H22148059   5.164   0.440   0.922  1.3817  2.1051 -0.8455
  120MOL   C22248060   5.162   0.535   0.718  1.0560 -0.0558  0.0171
  120MOL   C22348061   5.044   0.622   0.751  0.5622 -0.2922  0.2144
  120MOL   C22448062   5.035   0.679   0.881  0.7446 -0.1357 -0.5007
  120MOL   C22548063   4.928   0.765   0.912  0.0442 -0.2811 -0.5514
  120MOL   C22648064   4.829   0.797   0.818 -0.0577  0.0675  0.2535
  120MOL   O22748065   4.726   0.883   0.847 -0.0433 -0.2806  0.0784
  120MOL   C22848066   4.723   0.961   0.966  0.0898  0.3842  0.2569
  120MOL   C22948067   4.841   0.738   0.688  0.3977 -0.1054 -0.7082
  120MOL   C23048068   4.941   0.647   0.654 -0.4762  0.3336 -0.7154
  120MOL   C23148069   5.297   0.613   0.729 -0.2950  0.5569  0.1793
  120MOL   H23248070   5.147   0.493   0.618 -1.7933  1.2888 -0.1834
  120MOL   H23348071   5.121   0.672   0.945 -0.4818  0.7527  1.2758
  120MOL   H23448072   4.929   0.809   1.010  1.9058 -5.5578  1.9932
  120MOL   H23548073   4.655   1.046   0.962  0.4842  0.6533 -1.1932
  120MOL   H23648074   4.691   0.909   1.056 -1.5829  1.7252  0.4492
  120MOL   H23748075   4.826   0.994   0.981  0.7172 -1.5979  0.3463
  120MOL   H23848076   4.759   0.756   0.621  0.2375 -1.9063 -1.0131
  120MOL   H23948077   4.952   0.596   0.560 -0.3526 -2.6233  0.8149
  120MOL   H24048078   5.322   0.635   0.833 -0.4726  3.2442 -0.3201
  120MOL   H24148079   5.376   0.541   0.710  2.1755  2.0783  4.0883
  120MOL   C24248080   5.323   0.738   0.651  0.2441 -0.1096 -0.8674
  120MOL   C24348081   5.458   0.799   0.687  0.5099  0.2777 -0.1709
  120MOL   C24448082   5.577   0.717   0.681  0.2954 -0.1773 -0.0061
  120MOL   C24548083   5.702   0.769   0.714 -0.0962  1.0083 -0.0154
  120MOL   C24648084   5.712   0.892   0.778 -0.5634 -0.0352 -0.7700
  120MOL   O24748085   5.833   0.940   0.834 -1.1567 -0.2247 -0.1400
  120MOL   C24848086   5.934   0.852   0.866  0.2656 -0.5348 -0.7780
  120MOL   C24948087   5.599   0.973   0.786  0.8112  0.0458  0.7696
  120MOL   C25048088   5.476   0.928   0.735  0.0560  0.2101  0.0396
  120MOL   C25148089   5.324   0.715   0.499 -0.1622 -0.3422 -0.5090
  120MOL   H25248090   5.246   0.809   0.682  0.7996  0.1775 -0.1326
  120MOL   H25348091   5.562   0.621   0.632 -2.4013  0.7801 -1.1974
  120MOL   H25448092   5.792   0.712   0.699 -1.8689 -2.1764  0.8584
  120MOL   H25548093   5.953   0.797   0.774 -0.4535 -0.6570 -0.8566
  120MOL   H25648094   6.017   0.918   0.893 -1.2664  0.6092  1.3013
  120MOL   H25748095   5.897   0.782   0.941 -2.6204  1.7213 -0.0019
  120MOL   H25848096   5.601   1.071   0.830  2.1894  0.2032  0.3854
  120MOL   H25948097   5.392   0.996   0.737  0.9884  1.3765 -0.1838
  120MOL   H26048098   5.223   0.677   0.486 -0.6371  1.3524 -1.9221
  120MOL   H26148099   5.389   0.632   0.470 -0.2875 -0.4910 -0.3693
  120MOL   C26248100   5.377   0.829   0.403 -0.1640  0.5162 -0.4871
  120MOL   C26348101   5.297   0.957   0.420  0.0225  0.0948 -0.3414
  120MOL   C26448102   5.364   1.078   0.420 -0.2323 -0.7598  0.4489
  120MOL   C26548103   5.289   1.195   0.436  0.3442 -0.3477 -0.0788
  120MOL   C26648104   5.149   1.193   0.457  0.5161  0.1990  0.3773
  120MOL   O26748105   5.075   1.307   0.497  0.4215  0.2186 -0.5612
  120MOL   C26848106   5.142   1.427   0.500  0.1571 -0.5642 -0.6001
  120MOL   C26948107   5.082   1.071   0.440 -0.0375 -0.1047  0.4701
  120MOL   C27048108   5.154   0.953   0.414  0.3442 -0.2743  0.0036
  120MOL   C27148109   5.380   0.775   0.262  0.3994 -0.0642  0.2403
  120MOL   H27248110   5.479   0.851   0.435 -1.3863  3.0443  1.8149
  120MOL   H27348111   5.472   1.083   0.411 -0.2794  1.8864  0.8213
  120MOL   H27448112   5.352   1.282   0.437 -0.1529  0.0158  1.5943
  120MOL   H27548113   5.088   1.503   0.557 -1.3827 -1.0760 -1.3508
  120MOL   H27648114   5.172   1.470   0.405 -2.2577  1.0274 -0.6648
  120MOL   H27748115   5.227   1.403   0.565 -1.2116 -1.9738  0.7162
  120MOL   H27848116   4.976   1.065   0.461  0.3963  0.2026  2.9044
  120MOL   H27948117   5.114   0.852   0.408  0.2494 -0.2366 -0.0012
  120MOL   H28048118   5.408   0.670   0.265  1.2708  0.1237 -0.9400
  120MOL   H28148119   5.275   0.767   0.233  0.5946 -1.6886 -0.0260
  120MOL   C28248120   5.477   0.850   0.154 -0.0370  0.2124  0.3357
  120MOL   C28348121   5.435   0.988   0.125 -0.7348 -0.7894  0.7181
  120MOL   C28448122   5.311   1.015   0.062 -0.5066  0.0221 -0.0270
  120MOL   C28548123   5.272   1.148   0.023 -0.4946 -0.3734 -0.7723
  120MOL   C28648124   5.373   1.249   0.038 -0.4479 -0.5044 -0.3122
  120MOL   O28748125   5.352   1.371   8.013 -0.5532 -0.0274 -0.0820
  120MOL   C28848126   5.458   1.451   7.984 -0.4237  0.6810 -0.6438
  120MOL   C28948127   5.494   1.219   0.103 -0.0022  0.0210  0.2094
  120MOL   C29048128   5.529   1.094   0.154  0.0500  0.6050 -0.1434
  120MOL   C29148129   5.501   0.768   0.029  0.1702 -0.1433 -0.2650
  120MOL   H29248130   5.576   0.849   0.199 -0.4103 -0.2323  1.1597
  120MOL   H29348131   5.246   0.931   0.042  0.1185 -0.2311 -1.0359
  120MOL   H29448132   5.173   1.172   8.029 -0.2370 -1.1246 -2.1276
  120MOL   H29548133   5.525   1.393   7.921 -0.2771 -0.1501  0.2588
  120MOL   H29648134   5.431   1.535   7.920 -1.2896  1.0556  0.1972
  120MOL   H29748135   5.505   1.491   0.034  0.9731 -1.7611 -0.2377
  120MOL   H29848136   5.567   1.298   0.110 -1.2621  1.2944 -0.5060
  120MOL   H29948137   5.629   1.086   0.193  0.1837 -0.0071 -0.6098
  120MOL   H30048138   5.522   0.667   0.065  0.8792  0.2369  0.3903
  120MOL   H30148139   5.406   0.752   8.017  0.4423  1.0711 -1.1543
  120MOL   C30248140   5.611   0.809   7.962  0.2124  0.4998 -1.1612
  120MOL   C30348141   5.678   0.676   7.911  1.0102 -0.6510 -0.6920
  120MOL   C30448142   5.602   0.583   7.843 -0.1234  0.3773  0.5151
  120MOL   C30548143   5.664   0.459   7.802 -0.9417 -0.3557  0.3904
  120MOL   C30648144   5.801   0.438   7.803  0.2749  0.1506 -0.4503
  120MOL   O30748145   5.854   0.321   7.758  0.0485 -0.0718 -0.1151
  120MOL   C30848146   5.989   0.320   7.731  0.6874 -0.0052 -0.3830
  120MOL   C30948147   5.871   0.538   7.867 -0.4908  0.7374 -0.4311
  120MOL   C31048148   5.815   0.656   7.923 -0.0630 -0.3072  0.5545
  120MOL   C31148149   5.560   0.890   7.841  0.1400 -0.2474  0.4758
  120MOL   H31248150   5.685   0.870   8.014  0.7442  0.7435 -2.1856
  120MOL   H31348151   5.495   0.592   7.834 -0.3746 -1.8582  0.9823
  120MOL   H31448152   5.604   0.379   7.761 -0.6082 -0.8915  0.9491
  120MOL   H31548153   6.012   0.362   7.633  2.9147  1.5549  0.7561
  120MOL   H31648154   5.998   0.213   7.711 -2.2197 -0.4972  0.7331
  120MOL   H31748155   6.057   0.342   7.813 -1.2102 -3.2963  2.2381
  120MOL   H31848156   5.978   0.530   7.880 -0.5782  0.4383  0.1180
  120MOL   H31948157   5.878   0.732   7.968  1.4491  0.5408 -2.7952
  120MOL   H32048158   5.505   0.975   7.878 -2.1441 -2.4784  2.3855
  120MOL   H32148159   5.491   0.826   7.786 -0.2831  0.6635 -0.0504
  120MOL   C32248160   5.676   0.955   7.753  0.2046 -0.4170  0.7589
  120MOL   C32348161   5.769   1.048   7.825 -0.0271  0.0454  0.0158
  120MOL   C32448162   5.907   1.024   7.822  0.1872 -0.0638  0.1962
  120MOL   C32548163   5.996   1.118   7.876  0.2944 -0.7307 -0.2430
  120MOL   C32648164   5.950   1.234   7.941 -0.4664 -0.0323 -0.3716
  120MOL   O32748165   6.030   1.331   7.998 -0.1107 -0.3506 -0.2231
  120MOL   C32848166   6.167   1.303   8.028 -0.2505  0.0707  0.1116
  120MOL   C32948167   5.805   1.249   7.953  0.4302  0.8218 -0.5507
  120MOL   C33048168   5.716   1.157   7.892  0.8113  0.0608  0.6683
  120MOL   C33148169   5.605   1.026   7.630  0.8079 -0.9653  0.1373
  120MOL   H33248170   5.754   0.888   7.717  0.6904  1.3506 -1.5798
  120MOL   H33348171   5.950   0.937   7.773  2.4978  0.2137  1.6571
  120MOL   H33448172   6.103   1.102   7.872  0.5469  0.4721  1.1994
  120MOL   H33548173   6.191   1.234   0.069  2.7868  0.1267 -0.6789
  120MOL   H33648174   6.211   1.399   0.016  0.0375 -0.3703  1.1922
  120MOL   H33748175   6.222   1.269   7.940 -0.0639  0.0376  0.2387
  120MOL   H33848176   5.769   1.330   8.015  1.4407  1.4343 -0.7399
  120MOL   H33948177   5.611   1.180   7.888  0.9049  0.3919 -0.0943
  120MOL   H34048178   5.570   0.939   7.575  1.8103 -0.2994 -1.5919
  120MOL   H34148179   5.507   1.071   7.647  0.1245 -1.5948 -2.0138
  120MOL   C34248180   5.683   1.125   7.538  0.0016  0.5724 -0.1296
  120MOL   C34348181   5.658   1.277   7.565  0.0140  0.1928  0.1872
  120MOL   C34448182   5.522   1.325   7.560  0.2378 -0.1305 -0.3925
  120MOL   C34548183   5.492   1.459   7.596 -0.6758  0.4187  0.7141
  120MOL   C34648184   5.607   1.547   7.604 -0.2263 -0.0140 -0.3517
  120MOL   O34748185   5.593   1.681   7.628  0.0782 -0.0046  0.0971
  120MOL   C34848186   5.463   1.725   7.647 -0.4492  0.1511  0.6249
  120MOL   C34948187   5.742   1.500   7.590  0.5185  0.0961 -0.3236
  120MOL   C35048188   5.766   1.367   7.577  0.4430 -0.0378 -1.0243
  120MOL   C35148189   5.664   1.097   7.385 -0.0564  0.1549  0.0548
  120MOL   H35248190   5.788   1.102   7.557 -0.0879  0.8486  0.7107
  120MOL   H35348191   5.442   1.254   7.549 -0.6131  0.7729 -0.1602
  120MOL   H35448192   5.387   1.480   7.608 -0.8471 -0.2753  0.4635
  120MOL   H35548193   5.431   1.686   7.744  0.6528  0.4766  1.1422
  120MOL   H35648194   5.460   1.834   7.660  1.8643  0.1175  1.7211
  120MOL   H35748195   5.396   1.704   7.565  1.2774 -0.3586 -0.6872
  120MOL   H35848196   5.818   1.574   7.610 -0.0257  0.2977  1.1011
  120MOL   H35948197   5.868   1.330   7.580  0.6179  0.4917  3.1612
  120MOL   H36048198   5.561   1.096   7.349 -0.1493 -1.3188  0.3746
  120MOL   H36148199   5.705   1.183   7.331  0.3604 -0.3819 -0.5035
  120MOL   C36248200   5.736   0.976   7.326  0.6108 -0.0983 -0.4152
  120MOL   C36348201   5.870   0.939   7.395  0.2824 -0.4654  0.6239
  120MOL   C36448202   5.976   1.030   7.395  0.2167  0.8017 -0.2695
  120MOL   C36548203   6.095   0.996   7.464  0.7218  0.6924  0.5201
  120MOL   C36648204   6.116   0.869   7.524  0.7949 -0.1763 -0.1189
  120MOL   O36748205   6.233   0.823   7.585  0.1106  0.1727 -0.0810
  120MOL   C36848206   6.346   0.908   7.603  0.0785  0.2701 -0.0242
  120MOL   C36948207   6.003   0.778   7.518  0.2428 -0.0979  0.7455
  120MOL   C37048208   5.879   0.818   7.462 -0.1692  0.0192 -0.2122
  120MOL   C37148209   5.761   0.982   7.180 -0.1411 -0.0763  0.0945
  120MOL   H37248210   5.664   0.895   7.340  1.2531 -0.7213 -0.6938
  120MOL   H37348211   5.965   1.120   7.336 -0.9572  0.3228 -0.7821
  120MOL   H37448212   6.176   1.068   7.463  0.9022  0.5756  3.1215
  120MOL   H37548213   6.409   0.874   7.686  1.0989  2.5849  0.1947
  120MOL   H37648214   6.395   0.892   7.507  0.2749 -0.4534  0.1897
  120MOL   H37748215   6.321   1.013   7.615 -1.4283 -0.3045  2.0979
  120MOL   H37848216   6.016   0.681   7.564  0.7044  0.0884  1.0177
  120MOL   H37948217   5.791   0.756   7.467 -1.4980  1.9399  0.9261
  120MOL   H38048218   5.670   1.020   7.133 -0.5999 -1.4238 -0.1176
  120MOL   H38148219   5.836   1.056   7.150 -0.6678  0.1333 -0.7356
  120MOL   C38248220   5.814   0.847   7.127 -0.2201  0.2535  0.1285
  120MOL   C38348221   5.960   0.857   7.071  0.3116 -0.0875  1.2603
  120MOL   C38448222   5.978   0.897   6.935 -0.0286 -0.1255 -0.0652
  120MOL   C38548223   6.108   0.929   6.890  0.1747 -0.5880  0.1095
  120MOL   C38648224   6.225   0.906   6.972 -0.0511  0.6844  0.8225
  120MOL   O38748225   6.355   0.930   6.928  0.3826 -0.3361  0.5526
  120MOL   C38848226   6.382   0.881   6.801  0.8197  0.3255  0.0331
  120MOL   C38948227   6.203   0.859   7.103  0.7530 -0.8267  0.2134
  120MOL   C39048228   6.073   0.837   7.153 -0.5454  0.9037 -0.5922
  120MOL   C39148229   5.719   0.804   7.019  0.1428 -0.8963 -0.0422
  120MOL   H39248230   5.804   0.765   7.198  0.2693 -0.3521 -0.5033
  120MOL   H39348231   5.895   0.911   6.867 -1.0456  0.4160  1.2778
  120MOL   H39448232   6.125   0.965   6.790  0.1787 -0.5710  0.1163
  120MOL   H39548233   6.359   0.774   6.801 -1.0309  0.6994  0.6405
  120MOL   H39648234   6.489   0.895   6.785  1.3596 -2.5087  0.9571
  120MOL   H39748235   6.328   0.929   6.720 -0.4757 -0.7037  0.2624
  120MOL   H39848236   6.290   0.850   7.167  0.7533 -0.9068  0.2016
  120MOL   H39948237   6.050   0.817   7.256  1.8254  0.9217 -0.0472
  120MOL   H40048238   5.747   0.712   6.968  0.2896 -3.6158  4.6854
  120MOL   H40148239   5.706   0.881   6.943  2.6198  0.4533  0.8437
  120MOL   H40248240   5.617   0.788   7.053 -1.0233  1.9498 -1.9696
  121MOL     C148241   4.263   7.890   0.561  0.6360 -0.2284  0.3707
  121MOL     C248242   4.258   8.034   0.589 -0.1707  0.0578  0.1668
  121MOL     C348243   4.180   0.089   0.523 -0.3382 -0.3533 -0.2722
  121MOL     C448244   4.165   0.220   0.573  0.2768 -0.0107 -0.2852
  121MOL     C548245   4.242   0.262   0.683  1.0643 -0.3439 -0.7415
  121MOL     O648246   4.232   0.394   0.716 -0.3935 -0.3889 -0.0831
  121MOL     C748247   4.345   0.440   0.786 -0.1198  0.3789 -0.5105
  121MOL     C848248   4.313   0.163   0.756 -1.0067  0.1158 -0.0638
  121MOL     C948249   4.319   0.030   0.709 -0.1142  0.3000  0.1026
  121MOL    C1048250   4.170   7.803   0.645 -0.0236 -0.1487 -0.0396
  121MOL    H1148251   4.364   7.852   0.576  1.1808  1.1069  0.1700
  121MOL    H1248252   4.127   0.056   0.435  0.6262  0.5751 -1.2103
  121MOL    H1348253   4.109   0.291   0.513 -0.5820 -1.3360 -1.0850
  121MOL    H1448254   4.327   0.546   0.806 -0.5536 -0.0498  1.4731
  121MOL    H1548255   4.354   0.399   0.886 -2.5224 -0.4740 -0.6115
  121MOL    H1648256   4.434   0.453   0.725 -0.1957  1.6599 -0.3576
  121MOL    H1748257   4.370   0.177   0.847  0.2938 -1.9520 -0.5260
  121MOL    H1848258   4.372   7.992   0.762  1.9220 -0.2280 -2.5829
  121MOL    H1948259   4.193   7.804   0.751  0.9178  0.5026 -0.2498
  121MOL    H2048260   4.070   7.844   0.630  0.0259 -0.0591 -0.1322
  121MOL    H2148261   4.241   7.879   0.455  1.4465 -0.9908  0.2698
  121MOL    C2248262   4.172   7.662   0.589  0.5488  0.1302  0.8275
  121MOL    C2348263   4.308   7.599   0.604 -0.6981  0.1178  0.4038
  121MOL    C2448264   4.378   7.559   0.489  0.0232  0.0626  0.6126
  121MOL    C2548265   4.512   7.509   0.500  0.4067 -0.1587  0.3097
  121MOL    C2648266   4.572   7.499   0.632 -0.1984 -0.3254  0.3019
  121MOL    O2748267   4.696   7.444   0.652  0.1977  0.2737  0.1635
  121MOL    C2848268   4.798   7.494   0.573 -0.3837 -0.4363 -0.5061
  121MOL    C2948269   4.500   7.531   0.752 -0.4045 -0.3492  0.4779
  121MOL    C3048270   4.366   7.579   0.734  0.2553  0.6840  1.0901
  121MOL    C3148271   4.061   7.575   0.637  0.7843 -0.4252  0.0473
  121MOL    H3248272   4.167   7.662   0.480  2.2224  1.0570  0.7363
  121MOL    H3348273   4.334   7.556   0.390 -0.2768  0.3806  0.7340
  121MOL    H3448274   4.566   7.476   0.412  0.8619  0.1195  0.4797
  121MOL    H3548275   4.785   7.488   0.465 -2.5453  3.5566 -0.5408
  121MOL    H3648276   4.891   7.441   0.596  1.1680  1.1540 -2.8347
  121MOL    H3748277   4.816   7.600   0.588  1.5223 -0.9285  0.8864
  121MOL    H3848278   4.544   7.529   0.851  0.1658 -1.9886  0.2241
  121MOL    H3948279   4.297   7.612   0.811 -0.6517  1.4491 -0.0240
  121MOL    H4048280   4.075   7.566   0.745  2.4589 -0.7903 -0.1848
  121MOL    H4148281   3.968   7.632   0.627  0.2508 -0.9766  1.7371
  121MOL    C4248282   4.049   7.437   0.576  0.3345 -0.7353 -0.9003
  121MOL    C4348283   3.965   7.436   0.446  0.0654 -0.2508  0.1018
  121MOL    C4448284   3.823   7.464   0.449  0.3710  0.4563  0.2861
  121MOL    C4548285   3.750   7.477   0.327  0.7748  0.9651 -0.3551
  121MOL    C4648286   3.821   7.483   0.203  0.4055  0.7397 -0.2605
  121MOL    O4748287   3.743   7.511   0.093  0.1907 -0.0346  0.5601
  121MOL    C4848288   3.809   7.504   8.005  0.1347  0.2927  0.0742
  121MOL    C4948289   3.962   7.470   0.201  0.1544  0.1534  0.5814
  121MOL    C5048290   4.028   7.445   0.326  1.1552 -0.4064  0.5536
  121MOL    C5148291   3.992   7.332   0.678 -0.4972  0.3666  0.3380
  121MOL    H5248292   4.148   7.401   0.548  0.3843  0.3755 -2.2043
  121MOL    H5348293   3.770   7.479   0.542 -0.0038 -2.1208  0.5384
  121MOL    H5448294   3.643   7.490   0.340  0.5164  1.3253 -2.6632
  121MOL    H5548295   3.845   7.403   7.986  0.6942  0.4057  0.5327
  121MOL    H5648296   3.735   7.523   7.927  0.2783  1.0082  0.1116
  121MOL    H5748297   3.901   7.557   7.982 -0.3370  1.0359 -0.1194
  121MOL    H5848298   4.025   7.494   0.117  1.5711  0.0135  1.5750
  121MOL    H5948299   4.135   7.434   0.331  1.4830  1.9422 -0.8899
  121MOL    H6048300   3.956   7.245   0.622  1.3538 -0.1529 -0.0833
  121MOL    H6148301   3.903   7.374   0.724 -0.9323 -0.4787  0.2778
  121MOL    C6248302   4.087   7.283   0.793  0.3848  0.2703  0.3195
  121MOL    C6348303   4.177   7.166   0.751 -0.4895  0.0150 -0.6135
  121MOL    C6448304   4.314   7.193   0.742  0.3644 -0.1521 -0.1557
  121MOL    C6548305   4.415   7.090   0.743  1.3986 -0.6174 -0.1585
  121MOL    C6648306   4.370   6.958   0.715 -0.9441  0.6061 -0.2989
  121MOL    O6748307   4.475   6.867   0.696  0.6232  0.0960  0.3289
  121MOL    C6848308   4.439   6.734   0.741  0.1563 -0.5701 -0.2175
  121MOL    C6948309   4.230   6.930   0.712 -0.0867  0.7846  0.1629
  121MOL    C7048310   4.133   7.034   0.733 -0.1421 -0.4596  0.5341
  121MOL    C7148311   3.998   7.252   0.911 -0.1045  0.3345 -0.3112
  121MOL    H7248312   4.137   7.377   0.818  0.3419  1.0171 -2.2110
  121MOL    H7348313   4.346   7.295   0.757 -1.7667  0.9233 -2.6393
  121MOL    H7448314   4.517   7.125   0.747  1.2145  0.0487 -1.0777
  121MOL    H7548315   4.405   6.743   0.844 -0.3082  2.1295 -0.5759
  121MOL    H7648316   4.520   6.661   0.731  1.1678  0.6387 -1.0646
  121MOL    H7748317   4.363   6.682   0.684 -0.3861 -0.3404  0.2954
  121MOL    H7848318   4.189   6.831   0.707 -0.2544  0.6687  3.1454
  121MOL    H7948319   4.026   7.018   0.737 -0.3345  0.8738  0.9504
  121MOL    H8048320   3.938   7.340   0.932  0.3754  0.8525 -1.0568
  121MOL    H8148321   3.928   7.174   0.879  1.9737 -0.7333 -2.4895
  121MOL    C8248322   4.084   7.225   1.044  0.5255  0.1299  0.0725
  121MOL    C8348323   4.177   7.346   1.072  0.0058  0.3441  0.8095
  121MOL    C8448324   4.128   7.484   1.086  0.0660  0.4374  0.5080
  121MOL    C8548325   4.219   7.590   1.114  0.0998  0.4415  0.5131
  121MOL    C8648326   4.356   7.572   1.124 -0.0983 -0.3635 -0.3021
  121MOL    O8748327   4.433   7.679   1.166 -0.0864  0.1278  0.0617
  121MOL    C8848328   4.556   7.657   1.231  0.2779 -0.0098  0.3033
  121MOL    C8948329   4.405   7.435   1.111  0.2848  0.4268  0.2941
  121MOL    C9048330   4.318   7.327   1.079  0.1597 -0.3785 -0.0181
  121MOL    C9148331   3.987   7.193   1.163 -0.2247  0.1290  0.6865
  121MOL    H9248332   4.148   7.137   1.036 -1.5535 -1.2560 -1.5038
  121MOL    H9348333   4.024   7.512   1.092 -0.2074 -0.5998  0.7483
  121MOL    H9448334   4.177   7.690   1.124 -1.6672 -0.1218 -0.8873
  121MOL    H9548335   4.550   7.588   1.316 -1.1267  0.1859  0.3796
  121MOL    H9648336   4.576   7.754   1.276  2.4093 -0.3425  0.1512
  121MOL    H9748337   4.635   7.625   1.163  0.5838 -2.1483  1.6043
  121MOL    H9848338   4.511   7.414   1.115  0.1330 -0.7671 -1.3776
  121MOL    H9948339   4.364   7.230   1.074 -0.1556 -0.4389 -1.8985
  121MOL   H10048340   3.917   7.276   1.168 -0.5931 -0.0864 -0.7298
  121MOL   H10148341   3.929   7.105   1.135  1.7075 -0.2336 -2.4500
  121MOL   C10248342   4.056   7.138   1.291 -0.1069 -0.1652  0.0647
  121MOL   C10348343   3.975   7.137   1.418  0.1051 -0.3703  0.6209
  121MOL   C10448344   3.986   7.240   1.516  0.5730 -0.1937  0.1649
  121MOL   C10548345   3.904   7.244   1.631 -0.0926  0.0513  0.0075
  121MOL   C10648346   3.795   7.152   1.643 -0.2252 -0.3685 -0.4637
  121MOL   O10748347   3.714   7.137   1.753 -0.1965  0.0318 -0.2432
  121MOL   C10848348   3.747   7.198   1.879  0.1081 -0.3084  0.4180
  121MOL   C10948349   3.785   7.053   1.550 -0.2985 -0.1640  0.8072
  121MOL   C11048350   3.877   7.041   1.438  0.0627  1.0210  0.5271
  121MOL   C11148351   4.124   7.011   1.263  0.6195 -0.1575  0.1518
  121MOL   H11248352   4.130   7.211   1.321 -0.2771 -0.2142  0.6099
  121MOL   H11348353   4.061   7.317   1.505 -0.4097  0.6627 -0.5533
  121MOL   H11448354   3.925   7.310   1.714 -0.8225  1.6306 -1.0453
  121MOL   H11548355   3.683   7.149   1.952 -1.0831  0.5358 -0.0635
  121MOL   H11648356   3.848   7.189   1.921 -0.6060 -2.7891  1.7288
  121MOL   H11748357   3.716   7.302   1.870 -1.7708 -0.9476 -0.5733
  121MOL   H11848358   3.702   6.985   1.562 -0.1842 -0.7375 -1.4640
  121MOL   H11948359   3.859   6.964   1.365  1.4249  0.0417  1.1811
  121MOL   H12048360   4.090   6.938   1.335  0.9783 -1.2612 -0.7832
  121MOL   H12148361   4.095   6.971   1.166 -1.3779  0.5669  0.4281
  121MOL   C12248362   4.279   7.014   1.290  0.5480 -0.1892 -0.9202
  121MOL   C12348363   4.342   6.891   1.226 -0.4777 -0.1779 -0.1099
  121MOL   C12448364   4.453   6.916   1.139 -0.5156  0.5056  0.4367
  121MOL   C12548365   4.516   6.808   1.073 -0.5486  0.2464  0.6634
  121MOL   C12648366   4.454   6.676   1.095  0.6014 -0.6056  0.0249
  121MOL   O12748367   4.523   6.569   1.041  0.1834  0.2358 -0.2336
  121MOL   C12848368   4.444   6.463   0.993 -0.0044 -0.7353 -0.1550
  121MOL   C12948369   4.341   6.659   1.173  0.0224  0.1946 -0.6576
  121MOL   C13048370   4.287   6.765   1.248  0.4471  0.5159 -0.1547
  121MOL   C13148371   4.324   7.038   1.436 -0.0803 -0.4396 -0.3927
  121MOL   H13248372   4.310   7.095   1.223 -0.2535  2.6239  2.0065
  121MOL   H13348373   4.494   7.016   1.130 -0.8323  0.7674  1.7950
  121MOL   H13448374   4.609   6.807   1.018 -0.4087  1.4372  0.8801
  121MOL   H13548375   4.429   6.403   1.083  0.1380 -2.4082 -1.2306
  121MOL   H13648376   4.353   6.492   0.942  0.0540 -3.8374 -2.1231
  121MOL   H13748377   4.504   6.394   0.934 -1.5413 -1.4714 -0.8544
  121MOL   H13848378   4.309   6.558   1.196  1.4008 -0.2491 -0.6155
  121MOL   H13948379   4.204   6.747   1.315  1.8859  0.4470  1.6452
  121MOL   H14048380   4.315   6.951   1.501 -0.9187  1.1718  1.7348
  121MOL   H14148381   4.248   7.103   1.480  1.5762  0.6323  0.9544
  121MOL   C14248382   4.455   7.110   1.457 -0.0486 -0.2650 -0.1303
  121MOL   C14348383   4.442   7.213   1.574  0.6010  0.2472  0.0532
  121MOL   C14448384   4.440   7.177   1.706  0.5945 -0.1102 -0.1782
  121MOL   C14548385   4.424   7.272   1.806  0.0358  0.7669  0.3948
  121MOL   C14648386   4.430   7.408   1.783  0.2600  0.4692  0.6681
  121MOL   O14748387   4.403   7.513   1.873 -0.3082  0.2866  0.2212
  121MOL   C14848388   4.318   7.477   1.979  0.0397 -0.1535 -0.2889
  121MOL   C14948389   4.447   7.450   1.646  0.2616 -0.6782 -0.2717
  121MOL   C15048390   4.447   7.353   1.547 -0.0490  0.7159 -0.8015
  121MOL   C15148391   4.581   7.014   1.473 -0.8207 -0.0016  0.3130
  121MOL   H15248392   4.463   7.166   1.364 -0.2635  0.5187  0.3151
  121MOL   H15348393   4.428   7.072   1.725 -0.0699 -0.4240 -2.2280
  121MOL   H15448394   4.413   7.229   1.904 -2.0379  0.6774  0.1383
  121MOL   H15548395   4.230   7.420   1.951 -1.2261  1.1878  0.8715
  121MOL   H15648396   4.372   7.406   2.042 -1.1039 -0.3982  0.4326
  121MOL   H15748397   4.296   7.564   2.041  2.3574 -0.9266  1.7300
  121MOL   H15848398   4.452   7.553   1.616 -0.1489 -0.9763 -1.4213
  121MOL   H15948399   4.437   7.395   1.448 -0.1661  1.4577 -0.4846
  121MOL   H16048400   4.573   6.948   1.387 -1.3355 -0.7729  0.9505
  121MOL   H16148401   4.588   6.957   1.565  1.4396  0.5356  0.5017
  121MOL   C16248402   4.726   7.077   1.463 -0.4933  0.5343  0.1754
  121MOL   C16348403   4.744   7.153   1.331 -0.0986  0.0604  0.5641
  121MOL   C16448404   4.757   7.295   1.328 -1.0143 -0.0853  0.4673
  121MOL   C16548405   4.785   7.358   1.203  0.5455  0.1506 -0.0484
  121MOL   C16648406   4.806   7.279   1.085  0.3617 -0.3969  0.3369
  121MOL   O16748407   4.834   7.349   0.974  0.9430 -0.6711 -0.2720
  121MOL   C16848408   4.849   7.279   0.855 -0.3036 -0.1312  0.5361
  121MOL   C16948409   4.788   7.144   1.089  0.1540  0.3440  0.8259
  121MOL   C17048410   4.759   7.079   1.211 -1.1685  0.0301 -0.3867
  121MOL   C17148411   4.838   6.977   1.493 -0.2532 -0.3022 -0.2597
  121MOL   H17248412   4.733   7.156   1.539  2.2605 -0.6387  1.2195
  121MOL   H17348413   4.741   7.352   1.418 -1.0620 -0.4152  0.6716
  121MOL   H17448414   4.788   7.465   1.192 -2.3128  0.1941 -0.7718
  121MOL   H17548415   4.754   7.242   0.817  0.5865 -0.0062 -1.8718
  121MOL   H17648416   4.922   7.199   0.861 -0.4483 -0.4105 -1.1917
  121MOL   H17748417   4.886   7.341   0.773 -0.4776  0.4082  0.8592
  121MOL   H17848418   4.781   7.086   0.998  0.6116  2.4594 -0.5738
  121MOL   H17948419   4.757   6.971   1.210 -1.1124  0.0306 -0.9418
  121MOL   H18048420   4.807   6.890   1.435 -2.5091 -0.2457  0.7759
  121MOL   H18148421   4.830   6.934   1.594  0.1845  0.6344  0.1747
  121MOL   C18248422   4.983   7.020   1.457 -0.9366  0.2945  0.2237
  121MOL   C18348423   5.081   6.904   1.445  0.1222 -1.3259 -0.5039
  121MOL   C18448424   5.080   6.810   1.552  0.1451  0.0283  0.5803
  121MOL   C18548425   5.160   6.695   1.538  0.2851  0.0738 -0.4600
  121MOL   C18648426   5.246   6.681   1.427  0.3349 -0.4116  1.3205
  121MOL   O18748427   5.318   6.567   1.421  0.2026  0.4399 -0.3908
  121MOL   C18848428   5.353   6.509   1.301  0.5008  0.4460 -0.8688
  121MOL   C18948429   5.250   6.776   1.323  0.4461  0.0531 -0.3319
  121MOL   C19048430   5.159   6.880   1.330 -0.1531 -0.0576  0.3417
  121MOL   C19148431   5.021   7.120   1.560 -1.3009 -0.2239 -0.5233
  121MOL   H19248432   4.976   7.068   1.360  0.7349  2.7414  1.2442
  121MOL   H19348433   5.021   6.822   1.642  1.4414  0.7547  1.3530
  121MOL   H19448434   5.170   6.624   1.618  2.1773 -0.5233 -1.2110
  121MOL   H19548435   5.374   6.404   1.318  0.2741  0.8532  2.1632
  121MOL   H19648436   5.433   6.561   1.247  1.0116 -2.5247 -3.0803
  121MOL   H19748437   5.272   6.517   1.229 -0.4587  1.2002  0.2769
  121MOL   H19848438   5.313   6.777   1.235  0.1194 -3.0320 -0.6572
  121MOL   H19948439   5.153   6.943   1.243  0.9667 -0.5694 -0.1069
  121MOL   H20048440   4.950   7.203   1.565 -0.1312  0.7485  0.0119
  121MOL   H20148441   5.033   7.072   1.657  3.8144 -0.0987 -0.9744
  121MOL   C20248442   5.151   7.209   1.527  0.2780 -0.7880 -0.8674
  121MOL   C20348443   5.180   7.284   1.658 -0.3337  0.4459 -0.3306
  121MOL   C20448444   5.304   7.264   1.721 -0.0850 -0.1439 -0.2726
  121MOL   C20548445   5.337   7.346   1.833 -0.4396  0.3928  0.2203
  121MOL   C20648446   5.246   7.439   1.888  0.2354 -0.3013  0.1067
  121MOL   O20748447   5.271   7.533   1.989  0.0427 -0.6097  0.2127
  121MOL   C20848448   5.409   7.549   2.030  0.1787 -0.1801  0.4986
  121MOL   C20948449   5.120   7.437   1.835  0.4756 -0.8112 -0.3511
  121MOL   C21048450   5.085   7.368   1.719  0.7007 -0.4591  0.1343
  121MOL   C21148451   5.133   7.295   1.404  0.3703 -0.4104 -0.1470
  121MOL   H21248452   5.237   7.144   1.509  0.8472  0.2074 -1.8750
  121MOL   H21348453   5.367   7.183   1.687 -2.2937 -1.6965 -0.8064
  121MOL   H21448454   5.437   7.330   1.872  1.3367 -1.1263 -4.4578
  121MOL   H21548455   5.441   7.470   2.098  0.3224 -0.4600  0.1114
  121MOL   H21648456   5.482   7.548   1.949  1.8628 -0.1851  1.9912
  121MOL   H21748457   5.416   7.646   2.079  0.9594 -0.5530  1.1451
  121MOL   H21848458   5.044   7.507   1.867 -0.8212 -2.3398 -0.0713
  121MOL   H21948459   4.988   7.378   1.673  0.7807  0.6554  0.1949
  121MOL   H22048460   5.037   7.347   1.413  1.6690  2.1867 -0.6484
  121MOL   H22148461   5.118   7.231   1.317 -0.7196 -0.0566 -0.2333
  121MOL   C22248462   5.244   7.401   1.374 -0.4981 -0.1129 -1.1611
  121MOL   C22348463   5.257   7.415   1.223 -0.1664 -0.2855  0.1244
  121MOL   C22448464   5.385   7.399   1.172 -0.0825 -1.0490 -0.3929
  121MOL   C22548465   5.401   7.397   1.032  0.7032  0.5845 -0.0831
  121MOL   C22648466   5.288   7.399   0.944  0.7150  0.7452 -0.3718
  121MOL   O22748467   5.304   7.395   0.809 -0.3155  0.7654 -0.1547
  121MOL   C22848468   5.196   7.425   0.721 -0.2617 -0.4159 -0.4057
  121MOL   C22948469   5.159   7.405   1.005  0.6881 -1.1998 -0.5216
  121MOL   C23048470   5.145   7.419   1.141  0.9512 -0.4820 -0.2881
  121MOL   C23148471   5.229   7.536   1.447 -0.4307  0.3723  0.0896
  121MOL   H23248472   5.338   7.362   1.415  0.2849 -0.6329 -3.3856
  121MOL   H23348473   5.466   7.388   1.244  1.1986 -2.0777 -1.9478
  121MOL   H23448474   5.501   7.400   0.991  0.8859  2.0532  0.4355
  121MOL   H23548475   5.232   7.399   0.621 -1.1152 -1.1278 -0.5320
  121MOL   H23648476   5.106   7.368   0.744  1.1255 -2.3744  0.3698
  121MOL   H23748477   5.164   7.529   0.725 -0.1370 -0.3721 -0.5533
  121MOL   H23848478   5.073   7.410   0.940  0.5101 -1.0318 -0.2764
  121MOL   H23948479   5.047   7.406   1.184  0.6703  0.0376 -0.7676
  121MOL   H24048480   5.131   7.574   1.419 -0.2926  0.7603  0.1229
  121MOL   H24148481   5.209   7.521   1.553 -0.4554 -1.7355 -0.1852
  121MOL   C24248482   5.336   7.640   1.430 -0.6527  0.0882 -0.0739
  121MOL   C24348483   5.296   7.765   1.503  0.6035 -0.7867  0.1125
  121MOL   C24448484   5.273   7.760   1.638  0.2108 -1.1084 -0.1415
  121MOL   C24548485   5.252   7.880   1.712  0.9524 -0.0648 -0.0143
  121MOL   C24648486   5.261   8.003   1.652  0.2771  0.0322 -0.3745
  121MOL   O24748487   5.261   0.089   1.721  0.2671  0.0811  0.4945
  121MOL   C24848488   5.271   0.083   1.864  0.0859  0.1847  0.0029
  121MOL   C24948489   5.269   8.011   1.515  0.0272 -0.4035  0.7371
  121MOL   C25048490   5.288   7.893   1.435 -0.6073  0.1583  0.1865
  121MOL   C25148491   5.481   7.605   1.480  0.1920  0.4770  0.1172
  121MOL   H25248492   5.340   7.665   1.324 -1.5214 -3.5425 -1.0511
  121MOL   H25348493   5.256   7.663   1.682  1.2560 -1.0551  0.4077
  121MOL   H25448494   5.232   7.880   1.819 -1.7746 -2.5611 -0.4610
  121MOL   H25548495   5.357   0.025   1.898  0.0652  1.8577  2.9869
  121MOL   H25648496   5.286   0.179   1.913  0.6087 -0.1047  0.4172
  121MOL   H25748497   5.187   0.042   1.919 -0.8572  2.2100  0.1158
  121MOL   H25848498   5.277   0.072   1.477 -1.4393 -0.7947 -0.6999
  121MOL   H25948499   5.307   7.902   1.329 -0.7363 -0.6478  0.0937
  121MOL   H26048500   5.507   7.511   1.431  1.4990  1.2266 -0.6580
  121MOL   H26148501   5.463   7.571   1.582  1.6615 -0.2270  0.1537
  121MOL   C26248502   5.585   7.710   1.457  0.3959  0.4688 -0.0121
  121MOL   C26348503   5.603   7.758   1.313  0.2809 -0.5377  0.6290
  121MOL   C26448504   5.609   7.896   1.293 -0.6337 -0.4507 -0.6148
  121MOL   C26548505   5.641   7.953   1.169 -0.8486 -0.7402  0.4358
  121MOL   C26648506   5.679   7.865   1.062 -0.5705 -0.2237  0.1698
  121MOL   O26748507   5.714   7.927   0.947 -0.4536 -0.2221 -0.0650
  121MOL   C26848508   5.748   7.842   0.841 -0.2673 -0.1371  0.3852
  121MOL   C26948509   5.671   7.725   1.081  0.2018  0.8702 -0.6671
  121MOL   C27048510   5.626   7.669   1.211 -0.0825 -0.4486  0.5670
  121MOL   C27148511   5.716   7.680   1.524  0.4364 -0.4642  0.0509
  121MOL   H27248512   5.542   7.795   1.509 -0.1918 -0.1075  0.4512
  121MOL   H27348513   5.594   7.960   1.380  1.1403  0.9651 -1.3200
  121MOL   H27448514   5.640   0.017   1.141  0.0229 -0.5069  1.2422
  121MOL   H27548515   5.831   7.779   0.872 -0.8977 -0.7097  0.9136
  121MOL   H27648516   5.778   7.908   0.759  0.2790 -1.7606 -0.7636
  121MOL   H27748517   5.664   7.775   0.823  0.1325 -0.1857 -1.3833
  121MOL   H27848518   5.691   7.654   1.002  0.9928 -0.8825  1.0531
  121MOL   H27948519   5.632   7.562   1.220  2.4299 -0.3717  0.1758
  121MOL   H28048520   5.771   7.769   1.551  0.9337 -0.9645  0.7051
  121MOL   H28148521   5.698   7.630   1.619  0.8286 -0.6677  0.0193
  121MOL   C28248522   5.815   7.579   1.461  0.4533 -0.0680  0.0387
  121MOL   C28348523   5.757   7.435   1.434 -0.6343  0.0883  0.6004
  121MOL   C28448524   5.779   7.376   1.308  0.3656 -0.0330  0.5318
  121MOL   C28548525   5.734   7.246   1.280  0.2839  1.1822  0.5148
  121MOL   C28648526   5.649   7.178   1.371 -0.1392  0.7736  0.5107
  121MOL   O28748527   5.590   7.058   1.342 -0.0556  0.2725  0.1613
  121MOL   C28848528   5.582   7.020   1.215  0.6510 -0.0734 -0.7851
  121MOL   C28948529   5.629   7.238   1.496  0.0719  0.7709 -0.8542
  121MOL   C29048530   5.682   7.363   1.534  0.4817  0.0805  0.2999
  121MOL   C29148531   5.938   7.579   1.557  1.0284 -0.1094 -0.0023
  121MOL   H29248532   5.849   7.607   1.361 -1.7044  0.4698 -0.5787
  121MOL   H29348533   5.828   7.430   1.229  0.7129 -0.5183  0.4117
  121MOL   H29448534   5.754   7.213   1.179 -0.8038  3.7855 -0.6057
  121MOL   H29548535   5.498   6.949   1.213  0.1265  0.3424  2.9376
  121MOL   H29648536   5.551   7.098   1.145 -1.6164  1.8341  2.2583
  121MOL   H29748537   5.674   6.983   1.170  0.6400  0.3755 -1.1814
  121MOL   H29848538   5.567   7.185   1.567  0.9147  1.8635  0.7217
  121MOL   H29948539   5.661   7.412   1.628 -2.9706  0.3267 -0.5220
  121MOL   H30048540   5.972   7.682   1.566  0.7986 -0.2974  3.3639
  121MOL   H30148541   5.900   7.565   1.658 -0.0448  0.4216 -0.3250
  121MOL   C30248542   6.058   7.489   1.525 -0.5331 -0.3822  0.1365
  121MOL   C30348543   6.193   7.550   1.546 -0.1801  0.1846  0.0469
  121MOL   C30448544   6.232   7.600   1.670  0.0558 -0.2486 -0.5466
  121MOL   C30548545   6.348   7.681   1.679 -0.1773 -0.1046 -0.6772
  121MOL   C30648546   6.422   7.711   1.563 -0.5336  0.5497 -0.4677
  121MOL   O30748547   6.536   7.786   1.560  0.3047 -0.0659  0.4763
  121MOL   C30848548   6.590   7.837   1.680 -0.6141  0.2694  0.1426
  121MOL   C30948549   6.388   7.656   1.442 -0.2216  0.1964 -0.2104
  121MOL   C31048550   6.277   7.568   1.432 -0.2883 -1.0009 -0.2885
  121MOL   C31148551   6.059   7.353   1.597  1.0054  0.0126 -0.6507
  121MOL   H31248552   6.038   7.472   1.420 -1.2153  1.0940  0.0207
  121MOL   H31348553   6.171   7.577   1.757 -0.2179 -0.6586 -0.8455
  121MOL   H31448554   6.381   7.720   1.774  1.3583  0.0153 -1.2428
  121MOL   H31548555   6.643   7.770   1.748  2.0859  0.7380 -1.4025
  121MOL   H31648556   6.520   7.899   1.736  2.0388  2.6951  0.8914
  121MOL   H31748557   6.669   7.904   1.646  0.1874 -0.5977  0.2776
  121MOL   H31848558   6.447   7.671   1.353  0.7531  0.4988  0.4778
  121MOL   H31948559   6.246   7.537   1.333  0.6614 -0.5248 -0.7545
  121MOL   H32048560   5.959   7.313   1.580  0.6334  1.0490 -0.9518
  121MOL   H32148561   6.066   7.370   1.704  0.1693  0.0344 -0.5930
  121MOL   C32248562   6.169   7.253   1.554 -0.3532  0.0588 -0.3485
  121MOL   C32348563   6.173   7.231   1.407 -0.4325  0.4847  0.3335
  121MOL   C32448564   6.070   7.174   1.329 -0.5392 -0.1919  0.1501
  121MOL   C32548565   6.080   7.162   1.193 -0.6928  0.7941 -0.3620
  121MOL   C32648566   6.196   7.194   1.120  0.3108 -0.6757 -0.5017
  121MOL   O32748567   6.220   7.188   0.989  0.0724  0.2911 -0.0355
  121MOL   C32848568   6.114   7.170   0.896  0.6403  0.0850 -0.1196
  121MOL   C32948569   6.299   7.246   1.204 -0.2336 -0.5473 -0.3960
  121MOL   C33048570   6.294   7.266   1.345 -0.2141  0.7145  0.0245
  121MOL   C33148571   6.149   7.114   1.630  0.1566 -0.2315  0.1427
  121MOL   H33248572   6.259   7.299   1.594  0.1402 -1.2645  0.0939
  121MOL   H33348573   5.983   7.134   1.380  1.0975 -2.2867  1.3446
  121MOL   H33448574   6.002   7.111   1.137  0.2381 -2.0418  0.8625
  121MOL   H33548575   6.091   7.064   0.882 -2.4240  0.4948  1.5921
  121MOL   H33648576   6.143   7.205   0.797 -0.8205 -0.9019 -0.9163
  121MOL   H33748577   6.026   7.219   0.935 -0.1040  1.9423 -3.8783
  121MOL   H33848578   6.383   7.267   1.138 -0.4838 -1.7346 -1.1046
  121MOL   H33948579   6.381   7.302   1.399 -0.1514  1.4146 -0.5342
  121MOL   H34048580   6.118   7.143   1.730  0.9271 -3.3837  1.3530
  121MOL   H34148581   6.077   7.049   1.581 -0.6084  0.1402  0.7656
  121MOL   C34248582   6.278   7.033   1.656  0.1607  0.1233 -0.3627
  121MOL   C34348583   6.341   6.975   1.529 -0.0223 -0.4391 -0.4648
  121MOL   C34448584   6.269   6.898   1.436 -0.1779  0.0942 -0.4132
  121MOL   C34548585   6.330   6.854   1.318  0.2675  0.6195 -0.0511
  121MOL   C34648586   6.471   6.862   1.303  0.5178  0.0639 -0.3957
  121MOL   O34748587   6.524   6.802   1.191  0.8259 -0.3642  0.0387
  121MOL   C34848588   6.665   6.807   1.171  0.2993 -0.1207 -0.8867
  121MOL   C34948589   6.543   6.940   1.397 -0.5571 -0.1369  0.1985
  121MOL   C35048590   6.481   6.992   1.510  0.3324 -0.2344  0.0073
  121MOL   C35148591   6.278   6.926   1.770 -0.0721 -0.5883 -0.3418
  121MOL   H35248592   6.350   7.103   1.698  1.1239 -0.8135 -0.4277
  121MOL   H35348593   6.164   6.890   1.461  0.1680  0.5053  1.1990
  121MOL   H35448594   6.275   6.808   1.237  1.4688 -0.0622 -0.4965
  121MOL   H35548595   6.689   6.733   1.094  1.0996 -1.0078  0.2050
  121MOL   H35648596   6.699   6.900   1.125 -1.2841  2.0142  2.1207
  121MOL   H35748597   6.721   6.789   1.262  1.7547  1.3975 -1.4691
  121MOL   H35848598   6.649   6.958   1.390 -0.3113 -0.3643  2.8599
  121MOL   H35948599   6.546   7.049   1.573  1.9841 -1.3013 -0.6919
  121MOL   H36048600   6.381   6.908   1.803 -0.9766 -2.8011  1.4504
  121MOL   H36148601   6.234   6.973   1.859  1.8740  3.6455 -1.5009
  121MOL   C36248602   6.202   6.794   1.761 -0.2354 -0.1974  0.1493
  121MOL   C36348603   6.059   6.811   1.717 -0.3297 -0.3342 -0.6996
  121MOL   C36448604   6.018   6.734   1.607  0.2855 -0.5916  0.3736
  121MOL   C36548605   5.883   6.727   1.572 -0.4129  0.1816 -0.4131
  121MOL   C36648606   5.792   6.823   1.624 -0.0023  0.6306 -0.1360
  121MOL   O36748607   5.657   6.835   1.582 -0.6152  0.2082  0.6656
  121MOL   C36848608   5.608   6.756   1.481  1.0290  0.6180  0.0800
  121MOL   C36948609   5.838   6.897   1.736 -0.3468 -0.1121  0.5681
  121MOL   C37048610   5.969   6.895   1.786  0.2376 -1.2674  0.1414
  121MOL   C37148611   6.210   6.714   1.891 -0.2759  0.1019 -0.9035
  121MOL   H37248612   6.254   6.739   1.682 -1.7473 -0.9652 -0.3190
  121MOL   H37348613   6.089   6.663   1.566  0.3009  0.3341 -1.2285
  121MOL   H37448614   5.850   6.679   1.481 -0.4295  1.5585 -1.1482
  121MOL   H37548615   5.608   6.651   1.508 -0.7773  0.1858 -1.4779
  121MOL   H37648616   5.504   6.785   1.465  0.3514 -1.6925  0.1610
  121MOL   H37748617   5.670   6.772   1.393  1.3314  0.3037  0.2333
  121MOL   H37848618   5.759   6.951   1.786 -0.2703 -0.3060  0.9010
  121MOL   H37948619   6.001   6.957   1.869 -0.0070 -1.8015  0.6393
  121MOL   H38048620   6.315   6.706   1.920  0.1637  1.1415 -2.1732
  121MOL   H38148621   6.161   6.788   1.954  0.8655 -0.5094  0.7547
  121MOL   C38248622   6.128   6.582   1.915  0.3970 -0.1648 -0.0672
  121MOL   C38348623   6.141   6.516   2.055  0.2717  0.3564 -0.9827
  121MOL   C38448624   6.031   6.450   2.115  0.2548 -0.1744  0.7173
  121MOL   C38548625   6.032   6.396   2.240 -0.2275  0.2035  0.8381
  121MOL   C38648626   6.152   6.393   2.313  0.4900 -0.0641  0.8893
  121MOL   O38748627   6.153   6.341   2.438 -0.2434  0.1953 -0.1339
  121MOL   C38848628   6.260   6.246   2.462  0.7361 -0.3767  0.0289
  121MOL   C38948629   6.268   6.454   2.255 -1.0907  0.0097 -0.5175
  121MOL   C39048630   6.266   6.515   2.126 -0.3023 -0.0493 -0.7779
  121MOL   C39148631   6.152   6.473   1.802 -0.6017  0.7517 -0.1900
  121MOL   H39248632   6.021   6.605   1.912  0.3708 -0.4248 -1.2344
  121MOL   H39348633   5.944   6.436   2.053  2.9869 -0.6770 -3.2437
  121MOL   H39448634   5.943   6.353   2.283  1.1821 -3.4185  0.3112
  121MOL   H39548635   6.238   6.182   2.547 -0.3034 -1.9088 -1.3787
  121MOL   H39648636   6.354   6.300   2.480  0.0350  0.4316  1.3853
  121MOL   H39748637   6.280   6.181   2.377  3.1140 -1.8337  1.6559
  121MOL   H39848638   6.361   6.458   2.310  0.8535  1.8620 -3.7448
  121MOL   H39948639   6.353   6.564   2.085 -1.2975  1.4511 -1.1431
  121MOL   H40048640   6.151   6.513   1.701  1.3301 -0.6841 -0.8077
  121MOL   H40148641   6.080   6.393   1.818 -0.7339  0.8651 -0.2257
  121MOL   H40248642   6.250   6.429   1.818 -0.6337  0.0477 -1.8783
  122MOL     C148643   1.924   5.880   6.810 -0.4497  0.3645  0.3244
  122MOL     C248644   1.804   5.953   6.759  0.5947  0.4445 -0.3463
  122MOL     C348645   1.778   5.974   6.622 -0.1149 -0.4300  0.2816
  122MOL     C448646   1.667   6.047   6.580 -1.0985 -0.2401 -0.7136
  122MOL     C548647   1.579   6.106   6.673  0.0752 -0.1111 -1.0957
  122MOL     O648648   1.470   6.165   6.614 -0.1630 -0.2704 -0.3484
  122MOL     C748649   1.384   6.245   6.684  0.3997 -0.0520 -0.5352
  122MOL     C848650   1.594   6.077   6.814 -0.6173 -0.5966  0.6927
  122MOL     C948651   1.710   6.003   6.858  0.1230  0.3499 -0.7747
  122MOL    C1048652   1.905   5.726   6.805 -0.3058 -0.3407  0.4281
  122MOL    H1148653   1.950   5.920   6.908 -1.3394 -2.5021  1.7771
  122MOL    H1248654   1.842   5.938   6.544  0.9719  0.0106  0.9587
  122MOL    H1348655   1.646   6.048   6.474  0.0716 -2.8383 -1.0194
  122MOL    H1448656   1.310   6.275   6.610  0.2293  2.1363  0.5079
  122MOL    H1548657   1.332   6.192   6.764  0.3168 -0.6695 -0.9930
  122MOL    H1648658   1.433   6.334   6.724  1.5981 -0.1005 -1.8718
  122MOL    H1748659   1.527   6.117   6.888 -0.1605 -0.5651  1.0934
  122MOL    H1848660   1.722   5.998   6.965  0.2477  1.5383 -0.7271
  122MOL    H1948661   1.822   5.702   6.871  0.4287  1.3087  2.0068
  122MOL    H2048662   1.861   5.702   6.708 -2.6548  2.5417  0.6944
  122MOL    H2148663   2.010   5.901   6.747  0.3028  0.4221  1.3608
  122MOL    C2248664   2.038   5.641   6.828  0.1891 -0.0126  0.0412
  122MOL    C2348665   2.107   5.679   6.959 -0.3800  0.6118 -0.1884
  122MOL    C2448666   2.039   5.667   7.082  0.0062  0.1584 -0.4827
  122MOL    C2548667   2.096   5.709   7.202  0.0519  0.4023  0.2821
  122MOL    C2648668   2.226   5.767   7.204  0.4459  0.1769 -0.0391
  122MOL    O2748669   2.288   5.821   7.314 -0.2079  0.1450 -0.0559
  122MOL    C2848670   2.224   5.813   7.443  0.3953 -0.4070  0.0192
  122MOL    C2948671   2.298   5.773   7.089  0.3263 -0.4841  0.2005
  122MOL    C3048672   2.239   5.727   6.961  0.4647  0.3587 -0.1011
  122MOL    C3148673   2.013   5.489   6.810  0.2277 -0.1601  0.0259
  122MOL    H3248674   2.103   5.674   6.747  0.1644 -0.6755 -0.2524
  122MOL    H3348675   1.940   5.626   7.079 -0.8910  2.3449 -1.5574
  122MOL    H3448676   2.042   5.705   7.295  0.8962  1.3049  0.8221
  122MOL    H3548677   2.129   5.865   7.433  0.6123 -0.4395 -2.6347
  122MOL    H3648678   2.299   5.855   7.510 -0.8114  0.9542  0.5238
  122MOL    H3748679   2.214   5.705   7.450  0.0163 -0.4709 -1.3353
  122MOL    H3848680   2.395   5.819   7.103  0.0427  0.1623  0.0797
  122MOL    H3948681   2.295   5.729   6.869 -1.6992 -0.3407 -1.4710
  122MOL    H4048682   1.969   5.441   6.897 -0.3225  1.6927  0.7801
  122MOL    H4148683   1.933   5.468   6.739 -0.0124 -0.8163  0.4841
  122MOL    C4248684   2.140   5.406   6.779 -0.1840 -0.3879  0.1658
  122MOL    C4348685   2.212   5.459   6.661  0.7333  0.0247 -0.3312
  122MOL    C4448686   2.334   5.523   6.679 -0.2105 -0.0935  0.0467
  122MOL    C4548687   2.389   5.587   6.567  0.3030 -0.0845 -0.0809
  122MOL    C4648688   2.321   5.587   6.444  0.8140  0.3021  0.2467
  122MOL    O4748689   2.359   5.660   6.327 -0.1967 -0.1209  0.9505
  122MOL    C4848690   2.460   5.756   6.340  0.1660 -0.3901  0.4387
  122MOL    C4948691   2.197   5.518   6.428  0.5649 -0.2915 -0.0062
  122MOL    C5048692   2.141   5.455   6.537  0.4864 -0.4489  0.2797
  122MOL    C5148693   2.122   5.256   6.763 -0.3410  0.4685 -0.2997
  122MOL    H5248694   2.202   5.424   6.867  0.9801  0.2353 -0.7587
  122MOL    H5348695   2.376   5.527   6.778  1.2737 -0.9808 -0.5373
  122MOL    H5448696   2.480   5.640   6.590  1.5265 -1.5408 -1.3728
  122MOL    H5548697   2.432   5.832   6.268 -1.1236  1.7096  3.0331
  122MOL    H5648698   2.447   5.801   6.439  0.5015 -0.2677  0.4270
  122MOL    H5748699   2.564   5.730   6.322  0.6720  1.8874 -0.0604
  122MOL    H5848700   2.137   5.515   6.338  0.0045 -1.4393  0.3846
  122MOL    H5948701   2.048   5.399   6.541 -0.2885  0.7474 -0.3794
  122MOL    H6048702   2.219   5.218   6.731  0.0722  0.4505  0.9427
  122MOL    H6148703   2.059   5.228   6.679 -0.0395 -2.7377  0.4816
  122MOL    C6248704   2.080   5.178   6.889  0.6036 -0.4968 -0.5050
  122MOL    C6348705   2.167   5.220   7.011  0.0317  0.4603  0.2929
  122MOL    C6448706   2.120   5.301   7.115 -0.6077  0.2132  0.3465
  122MOL    C6548707   2.207   5.348   7.213 -0.6491  0.3419  0.0230
  122MOL    C6648708   2.338   5.299   7.216 -0.0759 -0.3808 -0.0609
  122MOL    O6748709   2.437   5.342   7.313 -0.5886 -0.2786 -0.3843
  122MOL    C6848710   2.404   5.436   7.419 -0.2541  0.4365  0.0630
  122MOL    C6948711   2.391   5.222   7.111 -1.4478  0.3630  1.2457
  122MOL    C7048712   2.298   5.174   7.013 -1.0467  0.4948 -0.0350
  122MOL    C7148713   2.056   5.031   6.864 -0.6006 -0.5615  0.1917
  122MOL    H7248714   1.979   5.207   6.918  0.9491  0.7240 -0.4962
  122MOL    H7348715   2.015   5.323   7.116 -0.4985  0.7760 -0.0809
  122MOL    H7448716   2.162   5.414   7.286 -0.2793  2.1066 -1.2992
  122MOL    H7548717   2.350   5.523   7.381 -1.6078 -0.9669 -1.3486
  122MOL    H7648718   2.493   5.475   7.468 -1.2296  1.2134  1.2362
  122MOL    H7748719   2.339   5.380   7.486  0.0120  0.0413 -0.0097
  122MOL    H7848720   2.497   5.204   7.105 -1.4453  0.0463  2.0789
  122MOL    H7948721   2.330   5.104   6.937 -3.2361 -1.4903  0.8119
  122MOL    H8048722   1.970   5.011   6.801 -1.0479  2.2831 -0.1923
  122MOL    H8148723   2.141   5.000   6.803 -0.7499  0.7204 -0.6767
  122MOL    C8248724   2.048   4.936   6.990  0.6375  0.1029 -0.3670
  122MOL    C8348725   1.939   4.988   7.079 -0.3310  0.7115 -0.1098
  122MOL    C8448726   1.810   4.979   7.044  0.5767  0.0407  0.1744
  122MOL    C8548727   1.705   5.016   7.127  0.5960  0.4905  0.0064
  122MOL    C8648728   1.732   5.054   7.264  0.5609 -0.3652  0.2203
  122MOL    O8748729   1.627   5.078   7.351 -0.0166  0.3093  0.3501
  122MOL    C8848730   1.668   5.088   7.485 -0.7757  0.0977 -0.1939
  122MOL    C8948731   1.872   5.066   7.300  0.3803  0.0617  0.0971
  122MOL    C9048732   1.976   5.042   7.208 -0.2287 -0.3626 -0.0883
  122MOL    C9148733   2.028   4.794   6.949  0.1116 -0.3987 -0.2654
  122MOL    H9248734   2.144   4.944   7.042  1.5139 -1.0903 -1.7682
  122MOL    H9348735   1.789   4.935   6.948 -2.0385 -1.2589  1.2895
  122MOL    H9448736   1.603   5.008   7.092  1.3338  2.7036 -2.8071
  122MOL    H9548737   1.729   5.175   7.507  0.1351 -1.0008  1.7515
  122MOL    H9648738   1.729   5.007   7.526 -1.5379 -1.3668 -1.8888
  122MOL    H9748739   1.576   5.096   7.543 -0.0294  0.6154  0.9353
  122MOL    H9848740   1.899   5.100   7.399 -0.1707 -0.0605  0.2919
  122MOL    H9948741   2.081   5.050   7.232 -0.8624  1.3281  2.2235
  122MOL   H10048742   1.955   4.798   6.868  0.0568  0.9003 -0.1617
  122MOL   H10148743   2.123   4.768   6.903  1.2378  1.8806  0.6868
  122MOL   C10248744   1.986   4.695   7.059  0.4189  0.0316 -0.4246
  122MOL   C10348745   1.971   4.556   6.999  0.6107  0.8399 -0.1341
  122MOL   C10448746   2.086   4.478   6.958 -0.0363 -0.0197  0.0434
  122MOL   C10548747   2.063   4.340   6.932 -0.4122 -0.3000  0.0789
  122MOL   C10648748   1.934   4.278   6.931  0.4234 -0.1659  0.1353
  122MOL   O10748749   1.920   4.143   6.901 -0.0780 -0.0933  0.7118
  122MOL   C10848750   1.790   4.088   6.890 -0.1083 -0.7856  0.3758
  122MOL   C10948751   1.824   4.368   6.953 -0.1275  0.0713 -0.5994
  122MOL   C11048752   1.839   4.499   6.988  0.0895  0.2446 -0.2951
  122MOL   C11148753   2.083   4.687   7.183 -0.2267  0.3283  0.4513
  122MOL   H11248754   1.887   4.731   7.085  0.4634  1.8219 -2.5863
  122MOL   H11348755   2.187   4.513   6.969  0.0468  0.3993 -1.8487
  122MOL   H11448756   2.150   4.277   6.914 -0.8216 -1.2008  1.2393
  122MOL   H11548757   1.733   4.137   6.811 -2.0310  0.7031  2.6267
  122MOL   H11648758   1.795   3.980   6.875  1.0097 -0.8947  1.4770
  122MOL   H11748759   1.739   4.094   6.986 -0.9905  2.2724 -0.2393
  122MOL   H11848760   1.723   4.329   6.947 -0.6886  1.0580  1.8336
  122MOL   H11948761   1.751   4.556   7.013  0.0602 -0.6511  1.7641
  122MOL   H12048762   2.186   4.669   7.152 -0.3319  0.6154 -0.0576
  122MOL   H12148763   2.089   4.786   7.230 -0.6200  0.8142 -0.5185
  122MOL   C12248764   2.040   4.574   7.284  0.3397  0.7486 -0.4632
  122MOL   C12348765   1.896   4.594   7.339  0.4448  0.1879  0.4688
  122MOL   C12448766   1.843   4.718   7.379  0.5088 -0.9086 -0.3531
  122MOL   C12548767   1.712   4.732   7.412 -0.3004  0.1270 -0.2294
  122MOL   C12648768   1.623   4.623   7.410  0.0199  0.2445  0.5212
  122MOL   O12748769   1.489   4.638   7.446 -0.5170  0.6494  0.3451
  122MOL   C12848770   1.390   4.564   7.371 -0.4989  0.2400 -0.1105
  122MOL   C12948771   1.672   4.499   7.366 -0.0044 -0.6243 -0.0393
  122MOL   C13048772   1.807   4.481   7.335 -0.5669  0.5252  0.1782
  122MOL   C13148773   2.136   4.572   7.409 -0.1217 -0.4119 -0.1483
  122MOL   H13248774   2.044   4.476   7.236  1.8287 -0.3903  1.8837
  122MOL   H13348775   1.902   4.807   7.396  0.1846 -0.7107 -0.2523
  122MOL   H13448776   1.666   4.827   7.436 -1.6962 -0.0691 -2.0613
  122MOL   H13548777   1.336   4.504   7.445  1.3905  0.9267  1.8513
  122MOL   H13648778   1.311   4.632   7.337 -0.7701  0.6002  1.2004
  122MOL   H13748779   1.426   4.502   7.289 -0.5949  2.0546 -1.5730
  122MOL   H13848780   1.612   4.409   7.363  1.2864 -1.4947 -0.1904
  122MOL   H13948781   1.831   4.384   7.293 -0.2008 -0.7564  3.1544
  122MOL   H14048782   2.084   4.548   7.501  1.1776 -2.2126  0.1421
  122MOL   H14148783   2.166   4.676   7.422 -3.0631  0.4433  0.0299
  122MOL   C14248784   2.260   4.478   7.402 -0.2688 -0.2245 -0.0814
  122MOL   C14348785   2.222   4.333   7.456 -0.3896  0.7331 -0.0522
  122MOL   C14448786   2.205   4.318   7.595  0.6061 -0.1560 -0.2000
  122MOL   C14548787   2.197   4.189   7.656  0.5299 -0.4706 -0.4387
  122MOL   C14648788   2.199   4.081   7.570 -0.2147  0.1089 -0.2441
  122MOL   O14748789   2.183   3.955   7.632 -0.5716  0.0039 -0.1190
  122MOL   C14848790   2.174   3.837   7.551  0.3065  0.0241 -0.1679
  122MOL   C14948791   2.208   4.092   7.433  0.0530  0.4759 -0.0679
  122MOL   C15048792   2.214   4.217   7.371  0.3881  0.3876 -0.0061
  122MOL   C15148793   2.351   4.474   7.274  0.3412 -0.4221 -0.3766
  122MOL   H15248794   2.337   4.503   7.475  0.7364 -1.9069 -0.5349
  122MOL   H15348795   2.200   4.403   7.662 -1.8580 -0.6028  0.2155
  122MOL   H15448796   2.195   4.187   7.764 -2.9084  0.0857 -0.4185
  122MOL   H15548797   2.137   3.746   7.599 -2.1387 -0.4063 -2.7057
  122MOL   H15648798   2.101   3.855   7.473  0.3134  0.3666 -0.0938
  122MOL   H15748799   2.273   3.830   7.506 -0.1896  1.1053 -1.4561
  122MOL   H15848800   2.210   4.008   7.366 -4.2431 -0.3035  0.6304
  122MOL   H15948801   2.221   4.221   7.264 -0.5532 -0.3224 -0.1008
  122MOL   H16048802   2.289   4.448   7.188  0.1289 -1.3201  0.0432
  122MOL   H16148803   2.425   4.396   7.292  2.0460  1.2059 -0.1577
  122MOL   C16248804   2.436   4.609   7.246 -1.1603  0.9469 -0.0702
  122MOL   C16348805   2.476   4.616   7.101 -0.1906 -0.1764 -0.2266
  122MOL   C16448806   2.541   4.510   7.040 -0.1676  0.6892  0.1917
  122MOL   C16548807   2.593   4.509   6.905  0.3439 -0.5333  0.2265
  122MOL   C16648808   2.579   4.626   6.830  0.3396  0.0587  0.4135
  122MOL   O16748809   2.641   4.626   6.707 -1.3967 -0.3047 -0.3454
  122MOL   C16848810   2.670   4.744   6.634 -0.1491  0.1083 -0.0359
  122MOL   C16948811   2.521   4.738   6.889 -0.6174 -0.6172  0.5255
  122MOL   C17048812   2.470   4.731   7.022 -0.0422  0.1080  0.1549
  122MOL   C17148813   2.554   4.627   7.343 -0.2090 -0.6735 -0.0544
  122MOL   H17248814   2.359   4.685   7.262 -0.8879  0.8005  2.1481
  122MOL   H17348815   2.546   4.416   7.094 -1.2402 -1.0282 -2.5695
  122MOL   H17448816   2.640   4.425   6.855 -2.4622 -2.7480  1.1787
  122MOL   H17548817   2.744   4.804   6.687  0.4759 -0.4922 -0.2217
  122MOL   H17648818   2.583   4.809   6.627  2.1815  3.0595 -4.3046
  122MOL   H17748819   2.710   4.724   6.534 -0.3078  0.0517 -0.0874
  122MOL   H17848820   2.527   4.835   6.842  0.9929 -0.3280  1.2918
  122MOL   H17948821   2.427   4.819   7.068  0.0911  0.7904 -1.0077
  122MOL   H18048822   2.634   4.566   7.302 -0.1892 -0.4714 -0.3231
  122MOL   H18148823   2.519   4.588   7.438 -1.1045  0.2106 -0.0155
  122MOL   C18248824   2.596   4.777   7.352 -0.5571  0.3498  0.1788
  122MOL   C18348825   2.670   4.838   7.227 -0.7051 -0.1942 -0.1127
  122MOL   C18448826   2.630   4.965   7.170 -0.5894  0.6325  0.0152
  122MOL   C18548827   2.701   5.011   7.056 -0.0428 -0.4878  0.3798
  122MOL   C18648828   2.811   4.940   7.003 -0.2146 -0.4304 -0.9669
  122MOL   O18748829   2.887   4.976   6.899 -0.5068 -0.9643  0.5248
  122MOL   C18848830   2.916   5.115   6.896  0.1627 -0.6684  0.4038
  122MOL   C18948831   2.853   4.817   7.065  0.5816  0.0484 -0.3128
  122MOL   C19048832   2.782   4.768   7.176 -0.3231 -0.5310  0.1641
  122MOL   C19148833   2.671   4.796   7.485  0.1044  0.2415 -0.4157
  122MOL   H19248834   2.501   4.831   7.355 -0.7820 -0.1105  2.2585
  122MOL   H19348835   2.551   5.021   7.217  0.6652  2.9883 -0.6257
  122MOL   H19448836   2.670   5.104   7.011 -1.7793 -0.8137  0.8792
  122MOL   H19548837   2.848   5.151   6.819  3.9979  0.0379 -2.8075
  122MOL   H19648838   3.021   5.125   6.869  0.2997  2.6932  1.9651
  122MOL   H19748839   2.904   5.161   6.994  0.9468 -0.7427  0.5360
  122MOL   H19848840   2.935   4.755   7.030  0.3039  0.2029 -1.2680
  122MOL   H19948841   2.821   4.687   7.235  0.7506  0.2231  0.5075
  122MOL   H20048842   2.764   4.741   7.496 -0.6466 -0.3945  3.6626
  122MOL   H20148843   2.700   4.901   7.483  0.2510  0.1835 -1.2860
  122MOL   C20248844   2.593   4.794   7.615  0.0390 -0.1036 -0.2466
  122MOL   C20348845   2.460   4.876   7.614 -0.4161  0.1587 -0.5949
  122MOL   C20448846   2.467   5.013   7.610  0.1616 -0.5374  0.1592
  122MOL   C20548847   2.349   5.090   7.604  0.7049  0.2299 -0.2586
  122MOL   C20648848   2.219   5.027   7.592  0.2868 -0.0152  0.3647
  122MOL   O20748849   2.100   5.090   7.595  0.1600  0.2073 -0.0524
  122MOL   C20848850   2.093   5.225   7.565 -0.5076 -0.1832  0.5862
  122MOL   C20948851   2.216   4.882   7.589 -1.0454  0.0984  0.0694
  122MOL   C21048852   2.334   4.809   7.603  0.0310  0.2160 -0.3222
  122MOL   C21148853   2.669   4.818   7.749 -0.3922 -0.1247 -0.4179
  122MOL   H21248854   2.565   4.691   7.639 -4.1077  1.4479  2.1911
  122MOL   H21348855   2.561   5.064   7.623 -1.1819  2.2177 -0.3739
  122MOL   H21448856   2.357   5.197   7.614  0.7517  0.2839 -0.8233
  122MOL   H21548857   2.121   5.239   7.460 -0.6064  2.4249  0.8619
  122MOL   H21648858   1.991   5.253   7.591  0.3034 -0.7320  4.7317
  122MOL   H21748859   2.152   5.281   7.638 -1.9399  0.7899  1.0212
  122MOL   H21848860   2.120   4.833   7.585 -1.0993  0.0540  1.4284
  122MOL   H21948861   2.330   4.702   7.609 -0.8369  0.1669 -1.5851
  122MOL   H22048862   2.701   4.922   7.746  0.0037 -0.2740 -2.1008
  122MOL   H22148863   2.750   4.745   7.748 -0.8988 -0.7460  1.6879
  122MOL   C22248864   2.592   4.786   7.874 -0.0057  0.1415 -0.2213
  122MOL   C22348865   2.529   4.644   7.881  0.5627  0.3301 -0.4061
  122MOL   C22448866   2.616   4.530   7.886 -0.4060 -0.0221  0.2121
  122MOL   C22548867   2.570   4.404   7.906 -0.1094  0.3943 -0.3599
  122MOL   C22648868   2.430   4.386   7.932  0.1815  0.3404 -0.2427
  122MOL   O22748869   2.387   4.252   7.937  0.5447 -0.3296 -1.0207
  122MOL   C22848870   2.274   4.213   8.017  0.5414 -0.5543  0.3192
  122MOL   C22948871   2.344   4.497   7.935 -0.1747 -0.4037 -0.5777
  122MOL   C23048872   2.396   4.628   7.915  0.8712  0.3639  0.0808
  122MOL   C23148873   2.671   4.818   7.999 -0.6000  0.3246 -0.4731
  122MOL   H23248874   2.518   4.866   7.870  0.3826  0.5525  0.8363
  122MOL   H23348875   2.721   4.555   7.881 -0.7962  1.2829 -1.6760
  122MOL   H23448876   2.645   4.326   7.914  0.6282  1.2805  1.5771
  122MOL   H23548877   2.289   4.240   0.081 -0.8378  1.6481 -0.0083
  122MOL   H23648878   2.173   4.243   7.988  0.5340 -0.3102  0.6025
  122MOL   H23748879   2.268   4.105   8.002 -0.2509 -0.6277  1.1185
  122MOL   H23848880   2.239   4.491   7.960 -0.0732 -1.2629 -0.3457
  122MOL   H23948881   2.329   4.712   7.930 -1.5842 -1.1293 -2.0547
  122MOL   H24048882   2.754   4.748   8.010 -0.6205  0.2004 -1.1150
  122MOL   H24148883   2.724   4.912   7.983 -0.3279 -0.1005 -2.1470
  122MOL   C24248884   2.595   4.823   0.099 -0.4057 -0.3043 -0.3778
  122MOL   C24348885   2.688   4.786   0.214  0.1168 -0.2837 -0.0764
  122MOL   C24448886   2.791   4.876   0.231 -0.5939 -0.0904 -0.3897
  122MOL   C24548887   2.885   4.846   0.333  0.1092  0.5213  0.3497
  122MOL   C24648888   2.868   4.729   0.411  0.6521 -0.6344 -0.3663
  122MOL   O24748889   2.973   4.690   0.501  0.1790 -1.1700  0.0240
  122MOL   C24848890   2.972   4.573   0.578  0.7621 -0.3624  1.0393
  122MOL   C24948891   2.760   4.647   0.390  0.2657 -0.2553 -0.0182
  122MOL   C25048892   2.665   4.674   0.291 -0.4063  0.0185  0.2948
  122MOL   C25148893   2.526   4.958   0.115  0.1199 -0.2144  0.0691
  122MOL   H25248894   2.515   4.749   0.095 -0.3484 -0.3078 -2.1492
  122MOL   H25348895   2.819   4.954   0.162 -0.0739  0.2376  0.1857
  122MOL   H25448896   2.970   4.908   0.356 -1.1472  3.3400 -2.1581
  122MOL   H25548897   2.885   4.550   0.641  1.5143 -0.9427  1.8848
  122MOL   H25648898   2.973   4.487   0.510 -0.0501 -1.7902  2.7812
  122MOL   H25748899   3.056   4.569   0.647  0.4243  0.1226  1.4800
  122MOL   H25848900   2.754   4.554   0.444  1.9474 -0.3148  0.1162
  122MOL   H25948901   2.582   4.606   0.275 -0.9234  0.9663 -1.1080
  122MOL   H26048902   2.475   4.971   0.019  1.3720 -0.6727 -0.6734
  122MOL   H26148903   2.594   5.043   0.111  0.7408 -0.5450  2.9048
  122MOL   C26248904   2.425   4.982   0.228 -0.3650  0.1680 -0.1509
  122MOL   C26348905   2.320   4.871   0.259 -0.0063  0.5343  0.4547
  122MOL   C26448906   2.227   4.831   0.161 -0.0749  0.5392 -0.0486
  122MOL   C26548907   2.147   4.716   0.174 -0.0367  0.5393  0.0998
  122MOL   C26648908   2.159   4.644   0.298  0.0208  0.3981 -0.0828
  122MOL   O26748909   2.078   4.536   0.314 -0.0234 -0.5928 -0.1023
  122MOL   C26848910   2.094   4.447   0.423 -0.5195  0.7499 -0.3756
  122MOL   C26948911   2.253   4.682   0.402  0.3042 -0.0178  0.6634
  122MOL   C27048912   2.331   4.800   0.383  0.0098 -0.0028  0.3537
  122MOL   C27148913   2.349   5.114   0.202  0.3359  0.4061  0.2111
  122MOL   H27248914   2.496   5.000   0.309  1.7331 -1.3519 -1.5966
  122MOL   H27348915   2.218   4.886   0.068 -0.1251  1.5364  0.5316
  122MOL   H27448916   2.085   4.674   0.096 -1.2614  2.5679 -0.0394
  122MOL   H27548917   2.020   4.367   0.430  0.7359 -0.3534  0.6695
  122MOL   H27648918   2.100   4.499   0.519  0.7614  1.5852 -0.8909
  122MOL   H27748919   2.194   4.406   0.415 -0.4739  0.5894  0.8737
  122MOL   H27848920   2.261   4.626   0.494 -0.1464  0.5152  1.0323
  122MOL   H27948921   2.403   4.831   0.457  0.4595 -2.6296  1.0670
  122MOL   H28048922   2.418   5.188   0.160 -0.3354  0.6464 -0.4797
  122MOL   H28148923   2.274   5.097   0.125  1.8125 -2.2785 -0.6741
  122MOL   C28248924   2.282   5.187   0.324  0.7262 -0.4359  0.5274
  122MOL   C28348925   2.178   5.291   0.270  0.6381 -0.1025  0.4520
  122MOL   C28448926   2.048   5.296   0.323 -0.1489 -0.5109 -0.3568
  122MOL   C28548927   1.959   5.401   0.282 -1.0547  0.0739  0.2314
  122MOL   C28648928   1.999   5.489   0.173 -0.4139  0.9754 -0.0529
  122MOL   O28748929   1.920   5.588   0.122  0.3024 -0.0293  0.6065
  122MOL   C28848930   1.791   5.614   0.186  0.6270 -0.0485  0.1718
  122MOL   C28948931   2.132   5.474   0.121  0.3895 -0.4466  0.0096
  122MOL   C29048932   2.219   5.384   0.173  0.4919 -0.0054  0.4392
  122MOL   C29148933   2.386   5.246   0.416 -0.0198  0.2788 -0.8991
  122MOL   H29248934   2.217   5.110   0.366 -0.1747 -0.5047 -0.9510
  122MOL   H29348935   2.030   5.227   0.403  3.1250  0.1464  1.0616
  122MOL   H29448936   1.862   5.421   0.326  0.0408  1.1215  2.1943
  122MOL   H29548937   1.706   5.553   0.154  0.2533  1.4119 -1.7370
  122MOL   H29648938   1.800   5.615   0.294 -0.2686 -0.4273  0.2543
  122MOL   H29748939   1.779   5.720   0.164 -1.0617 -1.1645 -4.9636
  122MOL   H29848940   2.159   5.536   0.036 -0.4322 -0.5534 -0.3390
  122MOL   H29948941   2.321   5.379   0.137 -0.0587  1.6192 -1.4128
  122MOL   H30048942   2.475   5.183   0.423  0.1480  0.8671  3.0409
  122MOL   H30148943   2.412   5.343   0.373 -1.6069  0.2159 -2.0519
  122MOL   C30248944   2.330   5.269   0.554 -0.3219  0.3454  0.4821
  122MOL   C30348945   2.315   5.145   0.636 -0.5127 -0.2518  0.1325
  122MOL   C30448946   2.419   5.085   0.701  0.0991  0.2297 -0.5134
  122MOL   C30548947   2.401   4.968   0.778 -0.7302 -0.3019 -0.5698
  122MOL   C30648948   2.272   4.915   0.795 -0.1088 -0.8037 -0.0449
  122MOL   O30748949   2.234   4.806   0.865  0.1292  0.0326  0.0204
  122MOL   C30848950   2.337   4.731   0.928  0.2518 -0.4521  0.0781
  122MOL   C30948951   2.164   4.979   0.728 -0.3266 -0.3425 -0.0743
  122MOL   C31048952   2.187   5.086   0.645  0.4573 -0.3652 -0.0888
  122MOL   C31148953   2.412   5.378   0.628  0.1624 -0.0285 -0.0361
  122MOL   H31248954   2.230   5.310   0.542 -0.4186  0.5533  1.8947
  122MOL   H31348955   2.516   5.134   0.704  0.7785 -1.0844 -0.8810
  122MOL   H31448956   2.488   4.937   0.835  0.0868 -0.2158 -1.7380
  122MOL   H31548957   2.274   4.663   0.985 -1.3963  1.5427  0.6851
  122MOL   H31648958   2.390   4.799   0.995 -3.1705  2.5037 -0.0821
  122MOL   H31748959   2.395   4.683   0.848 -0.0907  0.2636 -0.5979
  122MOL   H31848960   2.062   4.950   0.748  0.3198 -2.4480  0.3481
  122MOL   H31948961   2.097   5.125   0.599  0.0368  0.6658  1.5316
  122MOL   H32048962   2.432   5.462   0.562  1.7124 -0.2933  0.0765
  122MOL   H32148963   2.512   5.343   0.652  0.0345  0.9234  1.9564
  122MOL   C32248964   2.345   5.433   0.757  1.0217 -0.0216 -0.0305
  122MOL   C32348965   2.206   5.483   0.725  0.0950  0.3381 -0.1474
  122MOL   C32448966   2.186   5.608   0.672 -0.1150 -1.1430 -0.3232
  122MOL   C32548967   2.054   5.654   0.653  0.0937 -0.0512 -0.3374
  122MOL   C32648968   1.942   5.576   0.694 -0.8056  0.6423  0.1521
  122MOL   O32748969   1.817   5.623   0.674  0.0650  0.5170 -0.5019
  122MOL   C32848970   1.710   5.536   0.650  0.0701 -0.8072  0.5266
  122MOL   C32948971   1.960   5.444   0.742  0.2579  0.4477 -0.0616
  122MOL   C33048972   2.096   5.398   0.756 -0.0401 -0.1185 -0.0254
  122MOL   C33148973   2.435   5.542   0.827 -0.7246  0.4566 -0.9161
  122MOL   H33248974   2.351   5.350   0.828  4.0603 -0.5401 -0.8383
  122MOL   H33348975   2.270   5.672   0.650 -0.3773  0.0409  1.9987
  122MOL   H33448976   2.038   5.756   0.623 -0.6030 -0.1594 -0.3467
  122MOL   H33548977   1.620   5.593   0.670  1.6543  2.2354 -0.5241
  122MOL   H33648978   1.696   5.445   0.707  0.3170 -0.9902  0.2965
  122MOL   H33748979   1.712   5.500   0.547  2.7736 -3.1738  1.3491
  122MOL   H33848980   1.883   5.381   0.784  0.3773  0.7467  0.6008
  122MOL   H33948981   2.121   5.305   0.804  0.3052 -0.2369 -0.4187
  122MOL   H34048982   2.446   5.637   0.775 -0.0401  0.9482  0.1374
  122MOL   H34148983   2.383   5.573   0.917  0.7551 -0.5352  0.3018
  122MOL   C34248984   2.581   5.496   0.867 -0.3762 -0.1797  0.1653
  122MOL   C34348985   2.608   5.351   0.910 -0.8383 -0.1645  0.2341
  122MOL   C34448986   2.559   5.308   1.030 -0.0605  0.9145 -0.1820
  122MOL   C34548987   2.585   5.177   1.075 -0.0932  1.1579  0.2951
  122MOL   C34648988   2.665   5.090   0.998 -0.3053 -0.3580  0.5073
  122MOL   O34748989   2.674   4.956   1.039  0.4884 -0.2682  0.3025
  122MOL   C34848990   2.765   4.871   0.968  0.0307 -0.1684 -0.0127
  122MOL   C34948991   2.726   5.137   0.879 -1.1535  0.6281  0.3822
  122MOL   C35048992   2.706   5.275   0.841  0.0129 -0.2868  0.5061
  122MOL   C35148993   2.670   5.588   0.947 -0.1930 -0.2934 -0.4503
  122MOL   H35248994   2.630   5.488   0.770 -2.6773 -1.7545 -0.9297
  122MOL   H35348995   2.502   5.367   1.100  0.4433 -0.3650  1.3291
  122MOL   H35448996   2.527   5.156   1.165 -1.0255  2.8260  0.0979
  122MOL   H35548997   2.745   4.860   0.862 -1.0263 -0.5328  0.2218
  122MOL   H35648998   2.868   4.905   0.984  0.3008 -0.7272 -0.5676
  122MOL   H35748999   2.764   4.769   1.008  2.2619 -1.0198 -2.0281
  122MOL   H35849000   2.783   5.064   0.822 -0.9698 -0.2057  1.6073
  122MOL   H35949001   2.752   5.321   0.755 -1.3047  2.1363  1.0664
  122MOL   H36049002   2.622   5.618   1.040  0.3285 -1.2242  0.1309
  122MOL   H36149003   2.764   5.539   0.972 -1.0875 -1.9483 -0.2594
  122MOL   C36249004   2.715   5.713   0.860  0.1653 -0.2153 -0.2183
  122MOL   C36349005   2.833   5.674   0.775  0.6605  0.9181 -0.2206
  122MOL   C36449006   2.818   5.632   0.634  0.4049  0.4290 -0.6047
  122MOL   C36549007   2.928   5.593   0.558  0.6581 -0.8870 -0.4837
  122MOL   C36649008   3.060   5.598   0.613 -0.0902 -0.4192  0.2195
  122MOL   O36749009   3.158   5.563   0.519  0.1480  0.2824 -0.2362
  122MOL   C36849010   3.293   5.586   0.557 -0.0131  0.0819 -0.0541
  122MOL   C36949011   3.072   5.633   0.752  0.4795 -0.3026 -0.5301
  122MOL   C37049012   2.962   5.661   0.828  0.0481  0.1375  0.2854
  122MOL   C37149013   2.742   5.841   0.945 -0.8392  0.1900 -0.1134
  122MOL   H37249014   2.642   5.742   0.785  0.9538 -0.4670 -1.0790
  122MOL   H37349015   2.719   5.632   0.592  0.7588  0.0943 -1.4514
  122MOL   H37449016   2.909   5.555   0.459 -0.4837  1.5098 -1.2245
  122MOL   H37549017   3.303   5.689   0.591  1.0092 -0.6165  1.8940
  122MOL   H37649018   3.334   5.521   0.634 -1.7503 -1.2341 -0.2120
  122MOL   H37749019   3.357   5.567   0.472  0.7523 -1.7082  0.8840
  122MOL   H37849020   3.170   5.627   0.797  0.3792  0.9367 -0.1237
  122MOL   H37949021   2.976   5.675   0.934 -0.3861 -2.6087  0.7450
  122MOL   H38049022   2.809   5.807   1.025 -0.3985 -0.1973 -0.6409
  122MOL   H38149023   2.799   5.911   0.885 -0.7806 -0.3956 -0.7443
  122MOL   C38249024   2.621   5.916   1.012  0.5366  0.7070 -0.2376
  122MOL   C38349025   2.525   5.970   0.907  0.5210  0.3208 -0.3345
  122MOL   C38449026   2.408   5.897   0.872 -0.3305  0.1544  0.4528
  122MOL   C38549027   2.311   5.962   0.792  0.0211 -0.5106 -0.4034
  122MOL   C38649028   2.326   6.091   0.744  0.6013  0.1230  0.4922
  122MOL   O38749029   2.234   6.162   0.670  0.0176 -0.1050 -0.0614
  122MOL   C38849030   2.115   6.095   0.629 -0.0309 -0.3492 -0.3528
  122MOL   C38949031   2.440   6.163   0.779 -0.0135 -0.2629 -0.1146
  122MOL   C39049032   2.541   6.101   0.862  0.1990 -0.1183 -0.1241
  122MOL   C39149033   2.675   6.018   1.111  0.1445 -0.1263 -0.2939
  122MOL   H39249034   2.568   5.842   1.072  0.0726  2.2013  1.2358
  122MOL   H39349035   2.376   5.805   0.918 -0.8006 -0.9201 -1.9037
  122MOL   H39449036   2.217   5.911   0.781 -1.6655  2.0796  1.5052
  122MOL   H39549037   2.051   6.074   0.715 -1.3635 -2.6255 -1.8315
  122MOL   H39649038   2.127   5.993   0.595 -2.6892 -1.4890  1.9317
  122MOL   H39749039   2.060   6.152   0.554  0.8443 -0.8035 -1.3389
  122MOL   H39849040   2.451   6.262   0.739  0.3792 -0.3315 -0.1775
  122MOL   H39949041   2.637   6.149   0.867  0.2688 -0.2732  0.0533
  122MOL   H40049042   2.744   5.971   1.181  1.6202 -0.7249 -2.1284
  122MOL   H40149043   2.596   6.065   1.170  2.0790  1.8202  0.8318
  122MOL   H40249044   2.736   6.098   1.070  2.8548 -2.7254 -1.5086
  123MOL     C149045   2.437   2.820   3.574  0.1948  0.1325 -0.3850
  123MOL     C249046   2.355   2.821   3.447  0.8243 -0.1058  0.5521
  123MOL     C349047   2.307   2.938   3.388  0.0097  0.2196  0.0380
  123MOL     C449048   2.258   2.943   3.258  0.2904 -0.0139  0.1724
  123MOL     C549049   2.229   2.822   3.191 -0.0260 -0.0368 -0.0308
  123MOL     O649050   2.166   2.829   3.067 -0.1459 -0.2466  0.7593
  123MOL     C749051   2.119   2.706   3.012 -0.1074  0.6284  0.0236
  123MOL     C849052   2.255   2.702   3.255  0.2204  0.5986  0.1999
  123MOL     C949053   2.323   2.701   3.388  0.3540 -0.4326  0.5851
  123MOL    C1049054   2.577   2.752   3.548  0.3728  0.9967  0.8568
  123MOL    H1149055   2.377   2.772   3.651 -1.8695  0.2908 -1.8482
  123MOL    H1249056   2.334   3.029   3.440 -0.7733 -0.1121  1.0256
  123MOL    H1349057   2.243   3.042   3.218  0.6588  0.1368  0.3985
  123MOL    H1449058   2.042   2.662   3.075 -1.0625  1.9511 -0.2058
  123MOL    H1549059   2.071   2.710   2.914 -0.3195 -0.8761  0.0434
  123MOL    H1649060   2.211   2.648   3.000  0.8761  2.3560 -1.0141
  123MOL    H1749061   2.238   2.607   3.207 -0.5851 -0.1100  1.8329
  123MOL    H1849062   2.354   2.606   3.429  0.6172  0.2033  1.9004
  123MOL    H1949063   2.555   2.648   3.525  0.5847  1.6283 -2.3303
  123MOL    H2049064   2.628   2.803   3.466 -1.5006  2.0381  0.3127
  123MOL    H2149065   2.471   2.921   3.601 -1.9254  1.3704 -2.1469
  123MOL    C2249066   2.670   2.741   3.675  0.0204 -0.6622  0.6337
  123MOL    C2349067   2.583   2.708   3.801  0.1963 -0.5094  0.1160
  123MOL    C2449068   2.533   2.815   3.883  0.0453 -0.1054  0.0287
  123MOL    C2549069   2.461   2.780   3.994 -0.1244  0.4929 -0.3467
  123MOL    C2649070   2.435   2.647   4.029 -0.0802 -0.3393 -0.2850
  123MOL    O2749071   2.366   2.635   4.150  0.2603 -0.1032  0.3516
  123MOL    C2849072   2.322   2.502   4.181 -0.6665  0.1839 -0.2391
  123MOL    C2949073   2.481   2.540   3.951 -0.5541 -0.7818  0.5890
  123MOL    C3049074   2.554   2.576   3.833  0.0881  0.0367  0.5140
  123MOL    C3149075   2.800   2.654   3.644  0.3276  0.1430  0.6658
  123MOL    H3249076   2.698   2.846   3.686  0.9778 -0.9533  1.0915
  123MOL    H3349077   2.537   2.917   3.847  0.2107  0.5204  1.7359
  123MOL    H3449078   2.420   2.861   4.053  3.1296  1.4475  0.6707
  123MOL    H3549079   2.407   2.449   4.224  0.1195  2.1090  0.6741
  123MOL    H3649080   2.277   2.457   4.093  0.0627 -0.3102 -0.3614
  123MOL    H3749081   2.247   2.506   4.260 -1.4160 -0.6701 -0.9094
  123MOL    H3849082   2.478   2.434   3.971  0.2640 -1.0368 -0.5955
  123MOL    H3949083   2.609   2.499   3.781  1.9581  0.4693  1.8268
  123MOL    H4049084   2.852   2.643   3.739  2.3812  1.0384 -0.3215
  123MOL    H4149085   2.768   2.560   3.600 -1.1881  0.5686  0.7916
  123MOL    C4249086   2.902   2.716   3.543  0.2430 -0.3134 -0.1703
  123MOL    C4349087   3.019   2.633   3.500  1.0632  0.3867  0.3096
  123MOL    C4449088   3.072   2.643   3.369  0.2527  0.7227 -0.8594
  123MOL    C4549089   3.185   2.569   3.333  0.3103 -0.1341 -0.1873
  123MOL    C4649090   3.253   2.496   3.435  0.1931  0.0122 -0.2205
  123MOL    O4749091   3.373   2.430   3.416  0.3790  0.2066  0.6781
  123MOL    C4849092   3.413   2.402   3.281 -0.4657 -0.0469 -0.1157
  123MOL    C4949093   3.209   2.496   3.568  0.2626  0.9293 -0.4281
  123MOL    C5049094   3.086   2.553   3.595 -0.4917 -0.2724  0.2612
  123MOL    C5149095   2.954   2.850   3.598 -0.7751  0.5110  0.0534
  123MOL    H5249096   2.844   2.745   3.454  0.0111 -0.0740  0.0569
  123MOL    H5349097   3.019   2.695   3.290 -1.0802  1.0841  0.2739
  123MOL    H5449098   3.216   2.573   3.229 -2.5491 -2.6168 -1.1893
  123MOL    H5549099   3.489   2.324   3.288 -0.4515  0.0053  0.3110
  123MOL    H5649100   3.327   2.355   3.234  0.8609 -2.0268 -0.6211
  123MOL    H5749101   3.450   2.486   3.223 -2.9844  2.2855  1.5416
  123MOL    H5849102   3.265   2.445   3.645 -0.9943  1.2249  0.7101
  123MOL    H5949103   3.047   2.547   3.696 -2.3558  1.2137 -0.3300
  123MOL    H6049104   3.063   2.848   3.603 -0.8156 -0.1508  0.9237
  123MOL    H6149105   2.928   2.848   3.704 -1.0043 -0.1876 -0.0109
  123MOL    C6249106   2.913   2.979   3.523  0.5614  0.3422 -0.6085
  123MOL    C6349107   2.964   2.973   3.383 -0.2603 -0.4741  0.6928
  123MOL    C6449108   3.102   3.000   3.362 -0.0866  0.5689 -0.1341
  123MOL    C6549109   3.149   2.981   3.230 -0.1175 -0.3366  0.5247
  123MOL    C6649110   3.062   2.949   3.128 -0.4612 -0.5652 -0.3639
  123MOL    O6749111   3.110   2.923   3.002 -0.7705 -0.6275 -0.8423
  123MOL    C6849112   3.031   2.907   2.889 -0.4478  0.4560  0.6735
  123MOL    C6949113   2.925   2.930   3.157  0.2187  0.3161  0.2599
  123MOL    C7049114   2.875   2.939   3.285  0.1179 -0.4006  0.7208
  123MOL    C7149115   2.944   3.113   3.593  0.6981  0.3014  0.0980
  123MOL    H7249116   2.805   2.975   3.515  0.3719 -1.0682  1.9189
  123MOL    H7349117   3.168   3.013   3.446  0.4013  0.2714 -0.4708
  123MOL    H7449118   3.254   2.999   3.209  0.0302  0.1007  1.5814
  123MOL    H7549119   2.990   2.808   2.872 -1.8811  1.4393 -1.9831
  123MOL    H7649120   3.091   2.927   2.800 -0.1537 -1.2498  0.4688
  123MOL    H7749121   2.943   2.971   2.882 -0.7772 -0.1808 -1.0954
  123MOL    H7849122   2.859   2.890   3.082  0.8120 -0.3905  0.1103
  123MOL    H7949123   2.772   2.916   3.307 -0.4777  2.8228  1.5179
  123MOL    H8049124   3.052   3.102   3.607  0.7621  0.9927  0.1434
  123MOL    H8149125   2.919   3.187   3.517 -0.0360 -2.3130 -2.2779
  123MOL    C8249126   2.878   3.140   3.731 -0.2784 -0.4245 -0.1128
  123MOL    C8349127   2.943   3.247   3.817  0.2783 -0.0299  0.6554
  123MOL    C8449128   3.033   3.338   3.757  0.4231  0.2046 -0.2405
  123MOL    C8549129   3.105   3.423   3.841  0.0646 -0.6520 -0.1598
  123MOL    C8649130   3.082   3.431   3.980  0.5608 -0.6188  0.4261
  123MOL    O8749131   3.159   3.525   4.048  0.2634  0.8873  0.3777
  123MOL    C8849132   3.188   3.497   4.184  0.4945  0.0771  0.1997
  123MOL    C8949133   2.986   3.345   4.037 -0.6225  0.2688  0.0202
  123MOL    C9049134   2.920   3.252   3.957  0.4398  0.2915  0.4408
  123MOL    C9149135   2.722   3.159   3.724  0.0603  0.2588  0.1317
  123MOL    H9249136   2.903   3.051   3.789 -0.8969  0.9168  2.2938
  123MOL    H9349137   3.058   3.334   3.652 -0.0368  1.0835 -0.3849
  123MOL    H9449138   3.169   3.499   3.798  0.7168 -1.2050 -0.1704
  123MOL    H9549139   3.271   3.559   4.218  0.3511  1.5968 -2.1083
  123MOL    H9649140   3.214   3.394   4.207  0.3546  0.4619  2.1329
  123MOL    H9749141   3.098   3.506   4.245  1.0627 -0.4783  1.1249
  123MOL    H9849142   2.957   3.337   4.141  1.2731 -4.1339  0.3575
  123MOL    H9949143   2.855   3.185   4.012 -1.0367  2.8319  1.8699
  123MOL   H10049144   2.675   3.076   3.671 -0.5940  1.2074 -0.7884
  123MOL   H10149145   2.680   3.146   3.824 -0.3600 -2.7097 -0.3790
  123MOL   C10249146   2.660   3.285   3.647  0.4290  0.1839  0.6268
  123MOL   C10349147   2.658   3.271   3.494  0.1130 -0.0204 -0.2801
  123MOL   C10449148   2.576   3.173   3.430 -0.1114 -0.5087 -0.1802
  123MOL   C10549149   2.586   3.149   3.289 -0.1219 -0.2511 -0.1327
  123MOL   C10649150   2.668   3.229   3.210  0.2185 -0.6975 -0.1850
  123MOL   O10749151   2.698   3.194   3.073 -0.8647 -0.2464  0.2669
  123MOL   C10849152   2.655   3.073   3.014  0.2309  0.8551  0.3665
  123MOL   C10949153   2.738   3.332   3.276 -0.4779  0.5218  0.1427
  123MOL   C11049154   2.742   3.354   3.413  0.5164  1.8824  0.5275
  123MOL   C11149155   2.535   3.346   3.707 -0.3785 -0.1720  0.2955
  123MOL   H11249156   2.735   3.364   3.654 -0.2960  1.0238 -0.9493
  123MOL   H11349157   2.508   3.122   3.496 -0.5670 -1.0488 -1.0601
  123MOL   H11449158   2.523   3.070   3.252 -1.2190  0.9225 -0.8107
  123MOL   H11549159   2.655   2.984   3.077 -1.7461  0.8154  0.3468
  123MOL   H11649160   2.552   3.081   2.978 -0.4780  0.2816  2.1901
  123MOL   H11749161   2.720   3.073   2.926 -0.0497 -0.5178  0.1331
  123MOL   H11849162   2.816   3.367   3.210  0.0798 -3.2158 -1.3419
  123MOL   H11949163   2.805   3.430   3.456  0.1777 -0.3239  5.2228
  123MOL   H12049164   2.485   3.400   3.627 -1.4891 -0.0486  1.0734
  123MOL   H12149165   2.461   3.266   3.719 -0.3308 -0.1395  0.8321
  123MOL   C12249166   2.558   3.435   3.831  0.0661  1.1849  0.7082
  123MOL   C12349167   2.504   3.367   3.960 -0.1097 -0.8359  0.6517
  123MOL   C12449168   2.594   3.342   4.063  0.3722  0.2259 -0.0193
  123MOL   C12549169   2.544   3.297   4.184 -0.2034 -0.1874 -0.1018
  123MOL   C12649170   2.409   3.262   4.197 -0.1028  0.3928 -0.1503
  123MOL   O12749171   2.378   3.220   4.322 -0.5352  0.2112  0.0207
  123MOL   C12849172   2.241   3.202   4.362 -0.7412 -0.1522  0.7117
  123MOL   C12949173   2.322   3.275   4.094  0.8107  0.1361 -0.3413
  123MOL   C13049174   2.368   3.327   3.969  0.1873  0.0800 -0.1467
  123MOL   C13149175   2.502   3.569   3.823  0.0785 -0.0990  0.2042
  123MOL   H13249176   2.664   3.454   3.847  0.1169  1.2173  0.3441
  123MOL   H13349177   2.700   3.362   4.055  0.5904 -1.1400 -0.7691
  123MOL   H13449178   2.604   3.265   4.268 -2.5599  0.3389  1.8261
  123MOL   H13549179   2.191   3.121   4.310  0.9863 -1.0811  0.4852
  123MOL   H13649180   2.233   3.172   4.467  3.0387  2.0954  1.7649
  123MOL   H13749181   2.183   3.294   4.350 -3.3413 -1.6334  1.3887
  123MOL   H13849182   2.223   3.235   4.110  0.7653  0.1012 -0.6939
  123MOL   H13949183   2.293   3.329   3.890 -0.5636 -2.4891  0.4547
  123MOL   H14049184   2.395   3.550   3.809  0.0021  0.8899 -0.6121
  123MOL   H14149185   2.515   3.607   3.722  0.1186  0.0707  0.2736
  123MOL   C14249186   2.544   3.670   3.932  0.0784  0.3615 -1.1491
  123MOL   C14349187   2.655   3.753   3.872  0.4573  0.3747  0.5472
  123MOL   C14449188   2.629   3.842   3.769 -0.8326 -0.0487 -0.1853
  123MOL   C14549189   2.736   3.921   3.715  0.1399  0.3627 -0.0638
  123MOL   C14649190   2.868   3.900   3.756  0.0183  0.2901 -0.2481
  123MOL   O14749191   2.972   3.982   3.708  0.5260  0.4338 -0.1063
  123MOL   C14849192   3.107   3.965   3.739 -0.0654 -0.2539 -0.4213
  123MOL   C14949193   2.900   3.809   3.857 -0.2699 -0.3338 -0.3099
  123MOL   C15049194   2.791   3.734   3.913 -0.8824  0.3411  0.1270
  123MOL   C15149195   2.417   3.739   3.985 -0.0015  0.7380  0.1937
  123MOL   H15249196   2.595   3.618   4.012  0.2523 -0.0130 -1.5018
  123MOL   H15349197   2.532   3.858   3.725 -0.9872  1.5510  0.6786
  123MOL   H15449198   2.712   3.999   3.645 -0.4367  0.4515  0.2252
  123MOL   H15549199   3.127   4.013   3.835  0.2876 -0.5244 -0.3591
  123MOL   H15649200   3.131   3.859   3.749 -0.0433 -0.1687  0.4266
  123MOL   H15749201   3.174   4.011   3.666  1.0759 -1.3522 -0.0812
  123MOL   H15849202   2.998   3.793   3.899  0.1432  1.5337 -0.5430
  123MOL   H15949203   2.823   3.658   3.982  2.0145 -0.3381 -1.8267
  123MOL   H16049204   2.366   3.653   4.029 -1.0594  1.3606  0.1905
  123MOL   H16149205   2.359   3.792   3.911  2.9535  0.5117 -2.3833
  123MOL   C16249206   2.435   3.834   4.101  0.4124 -0.5519 -0.2367
  123MOL   C16349207   2.492   3.786   4.236  0.0640 -0.1641  0.2341
  123MOL   C16449208   2.544   3.887   4.327  0.2498  0.5596  0.4090
  123MOL   C16549209   2.590   3.849   4.451 -0.7432  0.5916 -0.4253
  123MOL   C16649210   2.604   3.711   4.484  0.5517 -0.5522  0.5072
  123MOL   O16749211   2.652   3.667   4.609 -0.3175 -0.4924  0.0207
  123MOL   C16849212   2.686   3.769   4.705  0.6094 -0.2173 -0.0358
  123MOL   C16949213   2.559   3.614   4.393  0.0766 -0.2805 -0.1385
  123MOL   C17049214   2.500   3.654   4.274 -0.5293 -0.0976  0.1773
  123MOL   C17149215   2.300   3.917   4.128 -0.4632 -0.0013  0.0939
  123MOL   H17249216   2.512   3.904   4.066  1.0236 -1.3674 -0.5411
  123MOL   H17349217   2.533   3.989   4.293 -0.6131  0.3680  0.0985
  123MOL   H17449218   2.613   3.932   4.517 -1.4753  0.5576 -0.1180
  123MOL   H17549219   2.606   3.841   4.721 -0.0930 -1.1193  0.5633
  123MOL   H17649220   2.781   3.821   4.692 -0.2343  0.9691 -1.5507
  123MOL   H17749221   2.690   3.711   4.798  1.2255 -1.4341 -0.8118
  123MOL   H17849222   2.568   3.508   4.411  0.4218 -0.3605 -0.7405
  123MOL   H17949223   2.453   3.567   4.230  1.4626 -1.3222  0.3871
  123MOL   H18049224   2.288   4.002   4.060 -1.8980 -0.4093 -0.1855
  123MOL   H18149225   2.304   3.962   4.227 -0.9520  2.0945 -0.8163
  123MOL   C18249226   2.170   3.834   4.122  0.2843  0.2327  1.0683
  123MOL   C18349227   2.058   3.921   4.088  0.3173  0.0772  0.2250
  123MOL   C18449228   1.984   3.896   3.968  0.2746 -0.6583 -0.4458
  123MOL   C18549229   1.876   3.981   3.931 -0.3311  0.5570 -0.1502
  123MOL   C18649230   1.849   4.098   4.004 -0.3311 -0.2886 -0.4323
  123MOL   O18749231   1.755   4.186   3.968  0.6585 -0.3822  0.1702
  123MOL   C18849232   1.664   4.154   3.874 -0.1211  0.1631  0.4956
  123MOL   C18949233   1.925   4.120   4.126  0.2252 -0.1316 -0.1253
  123MOL   C19049234   2.024   4.031   4.170  0.0243  0.2613 -0.1431
  123MOL   C19149235   2.150   3.758   4.260 -0.2127 -0.7030 -0.0432
  123MOL   H19249236   2.166   3.756   4.046  0.6491  1.1174  0.1352
  123MOL   H19349237   2.010   3.811   3.905  0.4958 -1.3063  0.5144
  123MOL   H19449238   1.831   3.971   3.833 -2.3517  1.1455  0.7049
  123MOL   H19549239   1.593   4.081   3.912 -0.0435 -0.1220  0.1000
  123MOL   H19649240   1.692   4.113   3.776  1.7406 -2.3115  1.9899
  123MOL   H19749241   1.601   4.242   3.858 -1.5811 -1.3093 -2.3052
  123MOL   H19849242   1.904   4.206   4.187 -1.0012  1.4693 -2.7294
  123MOL   H19949243   2.082   4.040   4.260  0.2923 -0.2626 -0.2599
  123MOL   H20049244   2.237   3.698   4.286  0.1898 -0.4747 -0.8254
  123MOL   H20149245   2.164   3.832   4.339  1.8381 -1.1772  0.0683
  123MOL   C20249246   2.025   3.672   4.272  0.3052  0.5348 -0.6057
  123MOL   C20349247   2.022   3.609   4.416  0.5219 -0.1533  0.0560
  123MOL   C20449248   1.902   3.619   4.496  0.0216 -0.2501 -0.5080
  123MOL   C20549249   1.899   3.566   4.624  0.0382  0.6388 -0.2156
  123MOL   C20649250   2.008   3.501   4.681 -0.3783  0.3286  0.2176
  123MOL   O20749251   2.002   3.438   4.802  0.4689 -0.1481 -0.1666
  123MOL   C20849252   1.914   3.496   4.892 -0.1301 -0.5423  0.3397
  123MOL   C20949253   2.124   3.486   4.603 -0.4782 -0.3208 -0.3727
  123MOL   C21049254   2.136   3.547   4.480  0.4954  0.1116  0.7105
  123MOL   C21149255   2.017   3.570   4.156  1.0625  0.1909 -0.1253
  123MOL   H21249256   1.941   3.741   4.267 -0.5721 -0.6129 -2.3922
  123MOL   H21349257   1.814   3.661   4.449 -0.7150 -2.7713 -1.4991
  123MOL   H21449258   1.809   3.574   4.683 -1.7686 -1.2932 -2.6135
  123MOL   H21549259   1.908   3.605   4.902  0.0849 -0.4777 -0.2666
  123MOL   H21649260   1.818   3.448   4.871  0.0168 -0.1593 -1.2629
  123MOL   H21749261   1.941   3.461   4.992 -0.9594 -1.0601  0.3886
  123MOL   H21849262   2.208   3.433   4.645 -0.5996 -0.9223 -0.8730
  123MOL   H21949263   2.233   3.545   4.433  1.1910  4.3376  1.7609
  123MOL   H22049264   2.105   3.505   4.160 -0.6677 -2.2332 -0.7943
  123MOL   H22149265   2.016   3.632   4.067  1.1860 -0.5197 -0.6289
  123MOL   C22249266   1.895   3.476   4.159  0.1889  0.2057  0.4011
  123MOL   C22349267   1.765   3.555   4.154  0.4907  0.5364 -0.3435
  123MOL   C22449268   1.666   3.531   4.246  0.0203 -0.2008 -0.6729
  123MOL   C22549269   1.542   3.592   4.240 -0.5282  0.4531  0.0021
  123MOL   C22649270   1.523   3.700   4.149  0.0133 -0.0449 -0.4168
  123MOL   O22749271   1.411   3.772   4.138 -0.2050  0.1682  0.0018
  123MOL   C22849272   1.308   3.743   4.223  1.0924  0.0942  0.0566
  123MOL   C22949273   1.622   3.729   4.053 -0.5259 -0.4308  0.4332
  123MOL   C23049274   1.741   3.654   4.057 -0.8048  0.4648 -0.2840
  123MOL   C23149275   1.917   3.366   4.047 -0.6626 -0.0079 -0.1523
  123MOL   H23249276   1.889   3.415   4.249  0.8069  0.6921  0.7760
  123MOL   H23349277   1.668   3.449   4.316 -0.8610 -1.0436 -1.6115
  123MOL   H23449278   1.473   3.554   4.314  0.3855 -0.7284  0.2705
  123MOL   H23549279   1.333   3.769   4.326  1.2509 -2.1696  0.6311
  123MOL   H23649280   1.227   3.805   4.186 -0.2344 -1.3499  0.4983
  123MOL   H23749281   1.266   3.642   4.224  1.0697  0.1037  0.0482
  123MOL   H23849282   1.610   3.811   3.984 -2.3607 -0.1725  1.0491
  123MOL   H23949283   1.823   3.678   3.991  0.5019  0.0658  1.1556
  123MOL   H24049284   1.922   3.426   3.957 -1.8717 -0.9177 -0.8405
  123MOL   H24149285   2.013   3.315   4.052 -0.7786 -0.3510 -1.4981
  123MOL   C24249286   1.809   3.257   4.039  0.1420  0.4982  1.0870
  123MOL   C24349287   1.834   3.173   3.912 -0.9382 -0.6391  0.7493
  123MOL   C24449288   1.742   3.189   3.802 -0.6001  0.3958 -0.1896
  123MOL   C24549289   1.752   3.113   3.687 -0.2461  0.0607  0.1494
  123MOL   C24649290   1.857   3.016   3.677  0.9693 -0.4634  0.1487
  123MOL   O24749291   1.856   2.936   3.568 -0.2353 -0.2193  0.1064
  123MOL   C24849292   1.907   2.808   3.586 -0.5020  0.3566  0.0307
  123MOL   C24949293   1.948   3.001   3.786  0.4272 -0.0467  0.4551
  123MOL   C25049294   1.938   3.080   3.902 -0.1764  0.2163 -0.9058
  123MOL   C25149295   1.809   3.178   4.167  0.1555  0.3928  0.3161
  123MOL   H25249296   1.707   3.296   4.034 -0.2975 -0.6872  0.6379
  123MOL   H25349297   1.660   3.260   3.800  0.9689  2.2063 -3.0902
  123MOL   H25449298   1.672   3.124   3.616 -0.3842  2.5083  0.6387
  123MOL   H25549299   2.012   2.784   3.568 -1.0405 -1.1170 -1.3239
  123MOL   H25649300   1.884   2.767   3.684  0.0070  1.6912  0.7204
  123MOL   H25749301   1.854   2.751   3.510  2.7743 -0.8748 -1.4160
  123MOL   H25849302   2.024   2.925   3.794 -0.2822 -0.6822  1.2665
  123MOL   H25949303   1.997   3.059   3.990 -0.7862  0.8474 -0.3326
  123MOL   H26049304   1.789   3.230   4.262 -2.7221  0.8264 -0.4804
  123MOL   H26149305   1.899   3.123   4.193 -0.2125  0.1065  0.9944
  123MOL   C26249306   1.691   3.069   4.169  0.7316 -0.1363  0.7426
  123MOL   C26349307   1.548   3.125   4.155  0.0302  0.3325 -0.0013
  123MOL   C26449308   1.502   3.224   4.257  0.3713  0.4893 -0.4928
  123MOL   C26549309   1.370   3.267   4.250  0.1530  0.0221 -0.2405
  123MOL   C26649310   1.282   3.218   4.143  0.4249 -0.7400  0.6364
  123MOL   O26749311   1.150   3.253   4.140  0.1316 -0.2184 -0.1101
  123MOL   C26849312   1.055   3.170   4.073  0.0398 -0.0950 -0.2129
  123MOL   C26949313   1.336   3.125   4.051 -0.3352  0.0624  0.2257
  123MOL   C27049314   1.459   3.073   4.057  0.7537  0.5798  0.1004
  123MOL   C27149315   1.692   2.983   4.296 -0.3969  0.1576 -0.2080
  123MOL   H27249316   1.714   3.012   4.079 -0.3831  1.8986 -0.8763
  123MOL   H27349317   1.569   3.258   4.334 -0.4749  0.1824  0.3838
  123MOL   H27449318   1.325   3.332   4.324  1.0335  0.3087  0.0410
  123MOL   H27549319   0.958   3.219   4.085 -0.7266 -1.7393  0.5208
  123MOL   H27649320   1.055   3.061   4.066 -1.7291 -0.0343 -1.4122
  123MOL   H27749321   1.067   3.178   3.965  1.7586  1.1282  0.0440
  123MOL   H27849322   1.273   3.076   3.978 -1.4102  2.7491 -0.7149
  123MOL   H27949323   1.481   3.002   3.979 -1.7484 -0.8831  0.6635
  123MOL   H28049324   1.669   3.039   4.386 -0.1974  0.0273 -0.0763
  123MOL   H28149325   1.609   2.913   4.292 -1.9276  1.9275 -0.0462
  123MOL   C28249326   1.820   2.897   4.322 -0.2420 -0.6948  0.0741
  123MOL   C28349327   1.867   2.818   4.201 -0.0774  0.1199  0.2438
  123MOL   C28449328   2.003   2.822   4.165 -0.2530  0.1304  0.4111
  123MOL   C28549329   2.055   2.751   4.052 -0.1131 -0.2551 -0.6409
  123MOL   C28649330   1.966   2.691   3.960  0.4117  0.8988  0.0733
  123MOL   O28749331   2.004   2.622   3.847  0.4822  0.8386 -0.1000
  123MOL   C28849332   2.140   2.628   3.810 -0.8945  0.4161  0.2971
  123MOL   C28949333   1.831   2.682   3.998  0.2629 -0.4288  0.4255
  123MOL   C29049334   1.783   2.741   4.118 -0.2569 -0.0134  1.1105
  123MOL   C29149335   1.806   2.803   4.439  0.1266 -0.6438 -0.0497
  123MOL   H29249336   1.900   2.965   4.352 -1.2174  0.2729  0.4969
  123MOL   H29349337   2.066   2.889   4.221 -0.7582  1.8304 -1.0111
  123MOL   H29449338   2.160   2.740   4.030  0.5852  0.3300  2.2030
  123MOL   H29549339   2.191   2.567   3.883 -1.8349 -2.0235 -1.0008
  123MOL   H29649340   2.150   2.597   3.705  1.6370  1.7638  0.1307
  123MOL   H29749341   2.161   2.734   3.812 -2.8504  0.8126  2.2279
  123MOL   H29849342   1.756   2.637   3.936 -0.1151 -0.3338  0.8094
  123MOL   H29949343   1.679   2.736   4.146  0.1866 -4.0407  2.2817
  123MOL   H30049344   1.723   2.736   4.417 -0.9603  0.6407  0.0210
  123MOL   H30149345   1.891   2.736   4.446  0.9774  0.3110 -1.0196
  123MOL   C30249346   1.784   2.859   4.585  0.8182  0.1596  0.0633
  123MOL   C30349347   1.767   2.748   4.687 -0.5629  0.3034 -0.4402
  123MOL   C30449348   1.872   2.655   4.717 -0.5276 -0.2111 -0.0474
  123MOL   C30549349   1.849   2.539   4.798  0.3704 -0.4232  0.2518
  123MOL   C30649350   1.724   2.512   4.851  0.9346 -0.7025 -0.8333
  123MOL   O30749351   1.707   2.397   4.925  0.0820  0.6090 -0.0365
  123MOL   C30849352   1.584   2.365   4.970 -0.3962 -0.3292 -0.2062
  123MOL   C30949353   1.616   2.597   4.817 -0.1165 -0.2695 -0.1566
  123MOL   C31049354   1.641   2.711   4.735  0.6243  0.2135  0.2258
  123MOL   C31149355   1.900   2.952   4.622  0.6148  0.2698 -0.3402
  123MOL   H31249356   1.689   2.914   4.588  0.7040  0.0789 -1.4330
  123MOL   H31349357   1.975   2.666   4.686 -1.1572 -0.0828 -2.1819
  123MOL   H31449358   1.932   2.482   4.836 -0.0941  0.9415  3.4543
  123MOL   H31549359   1.587   2.288   5.047  2.6701 -0.6813 -0.6185
  123MOL   H31649360   1.532   2.318   4.886  1.4625 -0.2889 -1.4125
  123MOL   H31749361   1.528   2.443   5.022  0.8472 -1.1857  2.5289
  123MOL   H31849362   1.516   2.586   4.856  0.8712 -3.1116  1.7899
  123MOL   H31949363   1.554   2.772   4.714 -0.3082 -1.6360 -1.4179
  123MOL   H32049364   1.904   3.030   4.546  0.9149 -2.4740 -3.2803
  123MOL   H32149365   1.993   2.896   4.613  1.5044  1.5322  0.8196
  123MOL   C32249366   1.897   3.016   4.760  0.8813 -0.2727 -1.0004
  123MOL   C32349367   1.772   3.093   4.789  0.1935 -0.9172 -0.3174
  123MOL   C32449368   1.690   3.047   4.895  0.2145  0.2889  0.1659
  123MOL   C32549369   1.569   3.114   4.923 -0.1080 -0.4022 -0.6470
  123MOL   C32649370   1.529   3.230   4.861 -0.3457  0.3264 -0.0752
  123MOL   O32749371   1.403   3.286   4.899 -0.5263  0.0877  0.1657
  123MOL   C32849372   1.361   3.404   4.830  0.0798 -0.3868 -0.1865
  123MOL   C32949373   1.620   3.282   4.759  0.3379  0.0327 -0.5257
  123MOL   C33049374   1.741   3.213   4.721 -0.6983 -0.4405 -0.6412
  123MOL   C33149375   2.022   3.105   4.786  0.4163  0.2113  0.2589
  123MOL   H33249376   1.908   2.937   4.835 -1.6805  2.4422  2.3829
  123MOL   H33349377   1.712   2.953   4.944 -2.1158 -0.0810  0.5732
  123MOL   H33449378   1.498   3.080   4.997  1.0747  0.3597  0.8685
  123MOL   H33549379   1.259   3.430   4.856  0.8981  0.3589  2.4673
  123MOL   H33649380   1.362   3.390   4.722  2.0465 -0.8119 -0.1445
  123MOL   H33749381   1.427   3.483   4.867  1.0947 -0.0013 -2.7477
  123MOL   H33849382   1.607   3.373   4.701 -0.3047 -1.0767 -2.1568
  123MOL   H33949383   1.817   3.259   4.659  0.4979  3.0635  3.1806
  123MOL   H34049384   2.026   3.190   4.718 -0.7532 -0.7944 -1.0767
  123MOL   H34149385   2.009   3.155   4.882 -1.1473 -0.3995  0.3807
  123MOL   C34249386   2.159   3.043   4.788 -0.8308 -0.6813  0.6221
  123MOL   C34349387   2.188   2.916   4.864 -0.1064  0.5692 -0.1069
  123MOL   C34449388   2.226   2.801   4.796 -0.0606 -0.2504 -0.1760
  123MOL   C34549389   2.266   2.685   4.856  0.4943 -0.5486  1.1989
  123MOL   C34649390   2.273   2.680   5.000 -0.4781 -0.1557  0.6712
  123MOL   O34749391   2.333   2.581   5.070  0.2113 -0.1102  0.8012
  123MOL   C34849392   2.423   2.502   5.008 -0.0704 -0.1457  0.4566
  123MOL   C34949393   2.227   2.788   5.070  0.3162  0.2293  0.0020
  123MOL   C35049394   2.174   2.898   5.003 -0.1791  0.3222 -0.0694
  123MOL   C35149395   2.267   3.151   4.823 -0.4222 -0.0615 -0.3086
  123MOL   H35249396   2.190   3.025   4.685 -0.8037  0.2787  0.4657
  123MOL   H35349397   2.225   2.810   4.688 -0.3370 -0.0406 -0.1568
  123MOL   H35449398   2.297   2.607   4.788 -2.0730 -0.3982 -0.2028
  123MOL   H35549399   2.447   2.419   5.074 -2.9162 -1.8005 -0.4822
  123MOL   H35649400   2.380   2.458   4.918 -1.3480 -0.3214  1.1361
  123MOL   H35749401   2.513   2.561   4.992 -0.6266  0.8650  0.9736
  123MOL   H35849402   2.230   2.794   5.178 -2.4181  2.9926  0.0028
  123MOL   H35949403   2.148   2.981   5.068 -1.5440  0.5585 -0.8934
  123MOL   H36049404   2.272   3.243   4.765  1.3010  0.0665 -0.0038
  123MOL   H36149405   2.255   3.186   4.926 -1.1658 -1.1692 -0.0144
  123MOL   C36249406   2.417   3.102   4.830  0.7587 -0.6594 -0.1928
  123MOL   C36349407   2.493   3.225   4.882  0.5367 -0.0018 -0.2520
  123MOL   C36449408   2.586   3.293   4.798  0.2111 -0.1635 -0.0447
  123MOL   C36549409   2.659   3.403   4.847  0.0395  0.9039  0.0092
  123MOL   C36649410   2.646   3.446   4.976 -0.5083  0.0893  0.2841
  123MOL   O36749411   2.735   3.546   5.019 -0.7415  0.4519  0.0913
  123MOL   C36849412   2.756   3.575   5.158 -0.0684  0.0644  0.2238
  123MOL   C36949413   2.560   3.376   5.058 -0.1049 -0.7411  0.1979
  123MOL   C37049414   2.488   3.263   5.017 -0.9171 -0.4087 -0.3560
  123MOL   C37149415   2.473   3.050   4.693  0.4017 -0.5524  0.3352
  123MOL   H37249416   2.425   3.018   4.898  0.5684  0.3310  1.0607
  123MOL   H37349417   2.603   3.262   4.696 -0.2138 -0.4201 -0.0372
  123MOL   H37449418   2.732   3.452   4.784 -0.1008  1.6111  0.3895
  123MOL   H37549419   2.669   3.564   5.221 -0.3637  0.4790 -0.1082
  123MOL   H37649420   2.838   3.515   5.199 -1.5918 -2.3876 -0.1933
  123MOL   H37749421   2.784   3.677   5.185 -0.1323 -0.4621  2.3844
  123MOL   H37849422   2.542   3.409   5.160  2.4183 -4.5930  2.0012
  123MOL   H37949423   2.421   3.219   5.089 -0.5963 -2.2634 -1.1723
  123MOL   H38049424   2.412   2.967   4.657  1.0162 -0.0802 -1.8605
  123MOL   H38149425   2.459   3.127   4.618  1.4140 -0.7664 -0.0821
  123MOL   C38249426   2.615   2.994   4.691 -0.2864  0.9012  0.2238
  123MOL   C38349427   2.668   2.988   4.550 -0.2247 -0.4093  0.3501
  123MOL   C38449428   2.612   2.904   4.448 -0.7471 -0.5473  0.1215
  123MOL   C38549429   2.674   2.886   4.323  0.2892  0.2677 -0.5011
  123MOL   C38649430   2.787   2.970   4.294 -0.3074  0.7096  0.5874
  123MOL   O38749431   2.858   2.976   4.177  0.3477  0.0358  0.6878
  123MOL   C38849432   2.803   2.915   4.059 -0.5353 -0.4711 -0.5482
  123MOL   C38949433   2.838   3.055   4.390  0.4690 -0.1752  0.5978
  123MOL   C39049434   2.783   3.064   4.512  0.0496 -0.2506  0.1324
  123MOL   C39149435   2.621   2.853   4.759  0.4246  0.5950  0.5646
  123MOL   H39249436   2.682   3.058   4.749  0.0259  1.0045 -0.2525
  123MOL   H39349437   2.525   2.842   4.466 -0.6106 -0.5951  0.6361
  123MOL   H39449438   2.627   2.821   4.250 -1.2185  0.4044  0.3244
  123MOL   H39549439   2.715   2.972   4.029 -0.5164 -0.0681  0.1543
  123MOL   H39649440   2.765   2.813   4.069 -0.9566 -0.1547  1.2804
  123MOL   H39749441   2.874   2.919   3.977  0.9303 -0.5324  0.6854
  123MOL   H39849442   2.915   3.130   4.378  1.4954 -0.6500  3.6602
  123MOL   H39949443   2.831   3.134   4.579 -0.0445  1.1847 -1.2556
  123MOL   H40049444   2.599   2.847   4.866 -0.8912 -3.1033  0.1506
  123MOL   H40149445   2.717   2.810   4.730 -0.6999 -0.7371 -1.3313
  123MOL   H40249446   2.548   2.793   4.705  0.0560  1.2785  0.2928
  124MOL     C149447   4.158   3.113   4.900 -0.2281  0.2694 -0.5288
  124MOL     C249448   4.159   3.063   5.048  0.1163  0.9686 -0.4471
  124MOL     C349449   4.049   3.094   5.138  0.0480 -0.5463  0.0107
  124MOL     C449450   4.042   3.048   5.272 -0.0300 -0.2168  0.1165
  124MOL     C549451   4.140   2.955   5.315 -0.3805 -0.0704  0.5189
  124MOL     O649452   4.141   2.892   5.441 -0.4721 -0.4755  0.0281
  124MOL     C749453   4.021   2.914   5.523  0.2123  0.4167 -0.4193
  124MOL     C849454   4.253   2.927   5.232  0.4831 -0.0598 -0.4876
  124MOL     C949455   4.264   2.980   5.101 -0.7078 -0.1746  0.0115
  124MOL    C1049456   4.133   2.988   4.805 -0.5972 -0.1851 -0.1331
  124MOL    H1149457   4.253   3.165   4.885  1.5886 -2.3194  1.6031
  124MOL    H1249458   3.974   3.164   5.102 -1.8472 -1.6214  1.8057
  124MOL    H1349459   3.954   3.079   5.326  1.2973 -1.5611  3.1266
  124MOL    H1449460   4.020   3.021   5.543  0.6491 -0.3886  4.6094
  124MOL    H1549461   3.936   2.865   5.476  1.8245 -1.1639 -1.7558
  124MOL    H1649462   4.049   2.878   5.622 -0.8216  2.5360  0.6879
  124MOL    H1749463   4.324   2.854   5.266 -0.5979 -0.3895  1.1221
  124MOL    H1849464   4.351   2.945   5.048  0.6707 -0.1143  2.1974
  124MOL    H1949465   4.138   3.016   4.700  2.0583  1.7321  0.4387
  124MOL    H2049466   4.212   2.912   4.812  0.0275  0.5505  0.8660
  124MOL    H2149467   4.074   3.179   4.878  0.1120  0.8624 -0.0603
  124MOL    C2249468   3.992   2.931   4.816  0.3510 -0.4180 -0.9110
  124MOL    C2349469   3.881   3.029   4.795  0.0790  0.0278 -0.6422
  124MOL    C2449470   3.886   3.133   4.700  0.4066  0.0506  0.0839
  124MOL    C2549471   3.777   3.220   4.686  0.1242  0.2928 -0.6525
  124MOL    C2649472   3.671   3.215   4.777  0.4209  1.2968 -0.7168
  124MOL    O2749473   3.571   3.312   4.787 -0.1961  0.4894 -0.3558
  124MOL    C2849474   3.591   3.435   4.721 -0.5955  0.7670  0.0066
  124MOL    C2949475   3.660   3.117   4.873  0.4641  0.2094 -0.1218
  124MOL    C3049476   3.760   3.020   4.879  0.2308 -0.0151 -0.3343
  124MOL    C3149477   3.969   2.810   4.723  0.2787  0.0994  0.0223
  124MOL    H3249478   3.982   2.904   4.921  0.6355 -0.5609 -0.9218
  124MOL    H3349479   3.971   3.150   4.636  0.6454  1.5903  0.7669
  124MOL    H3449480   3.774   3.302   4.617 -1.9996  0.6349 -0.1815
  124MOL    H3549481   3.552   3.444   4.620 -2.2201 -1.2562  0.4160
  124MOL    H3649482   3.694   3.471   4.723  0.1462 -1.2071 -1.4712
  124MOL    H3749483   3.532   3.510   4.774 -2.0388 -0.1572 -0.2699
  124MOL    H3849484   3.566   3.111   4.926 -0.3792 -0.2345 -1.6361
  124MOL    H3949485   3.744   2.940   4.949 -1.6421  1.6717  1.2368
  124MOL    H4049486   3.863   2.813   4.695 -0.1695 -1.8072  1.4322
  124MOL    H4149487   4.022   2.834   4.631  1.3953  1.5711  1.0249
  124MOL    C4249488   3.990   2.673   4.788 -0.1901  1.0434  0.3083
  124MOL    C4349489   4.140   2.649   4.803  0.4099  0.6067  0.1276
  124MOL    C4449490   4.193   2.674   4.930 -0.0254  0.3945 -0.3079
  124MOL    C4549491   4.328   2.658   4.955  0.5784  0.3022 -0.3617
  124MOL    C4649492   4.419   2.630   4.860  0.3236  0.2965  0.0051
  124MOL    O4749493   4.557   2.631   4.894  0.0240  0.1349 -0.2794
  124MOL    C4849494   4.652   2.642   4.793  0.5581  0.2657  0.2599
  124MOL    C4949495   4.365   2.614   4.727 -0.8280 -0.3989  0.2842
  124MOL    C5049496   4.228   2.619   4.699  0.8882 -0.3524 -0.2290
  124MOL    C5149497   3.914   2.559   4.714  0.5402 -0.3821  0.0975
  124MOL    H5249498   3.957   2.676   4.892  0.9957  1.3613  0.6800
  124MOL    H5349499   4.130   2.693   5.016 -0.4659  1.4405 -0.8591
  124MOL    H5449500   4.359   2.674   5.057 -0.9904 -0.7067  0.2848
  124MOL    H5549501   4.746   2.648   4.847 -1.3260  1.0333  3.5896
  124MOL    H5649502   4.647   2.553   4.730 -0.8957  0.6548 -0.1969
  124MOL    H5749503   4.641   2.738   4.743  1.5267 -0.3529 -1.1657
  124MOL    H5849504   4.427   2.603   4.639  1.2488  1.0658  1.5287
  124MOL    H5949505   4.193   2.614   4.597 -0.9894 -1.3422  0.4463
  124MOL    H6049506   3.936   2.580   4.610  0.2707 -1.0657 -0.1004
  124MOL    H6149507   3.809   2.579   4.737 -0.4697 -2.7802 -2.1470
  124MOL    C6249508   3.955   2.419   4.757 -0.0894  0.0179 -1.0110
  124MOL    C6349509   3.904   2.307   4.661 -0.3828 -0.5771  0.1419
  124MOL    C6449510   3.766   2.307   4.614 -0.5159  0.3388  0.4360
  124MOL    C6549511   3.727   2.207   4.521  0.6398  0.2340  0.1427
  124MOL    C6649512   3.816   2.112   4.472 -0.2777  0.0859 -0.2663
  124MOL    O6749513   3.767   2.023   4.382 -0.1180 -0.9916 -0.0618
  124MOL    C6849514   3.858   1.920   4.332 -0.5292 -0.1337 -0.3732
  124MOL    C6949515   3.954   2.120   4.506 -0.4625 -0.1226  0.0789
  124MOL    C7049516   3.991   2.215   4.601 -0.1882 -0.7141 -0.0230
  124MOL    C7149517   3.917   2.392   4.912  0.2292 -0.2361 -0.0970
  124MOL    H7249518   4.063   2.410   4.763 -0.2672 -1.8466 -0.3190
  124MOL    H7349519   3.691   2.375   4.653 -0.1767  0.8095  0.2695
  124MOL    H7449520   3.625   2.197   4.485  0.5054 -0.6194  0.7396
  124MOL    H7549521   3.888   1.868   4.423  0.2961  1.8504  0.5286
  124MOL    H7649522   3.946   1.957   4.280 -1.9688  0.7932 -2.2119
  124MOL    H7749523   3.804   1.844   4.277  0.3269 -0.7826 -0.3294
  124MOL    H7849524   4.030   2.053   4.468 -1.8890 -0.7390 -1.7283
  124MOL    H7949525   4.089   2.206   4.645  0.9464  0.3436 -2.2733
  124MOL    H8049526   3.951   2.469   4.981  0.2204  0.3989 -0.7954
  124MOL    H8149527   3.809   2.407   4.913  0.1161 -0.4714 -3.5185
  124MOL    C8249528   3.969   2.251   4.956  0.6019  0.4628 -0.3961
  124MOL    C8349529   4.121   2.244   4.970  0.0689 -0.3090  0.1743
  124MOL    C8449530   4.188   2.342   5.043  0.0013 -0.0994  0.6087
  124MOL    C8549531   4.330   2.334   5.054 -0.2274  0.2689 -0.4465
  124MOL    C8649532   4.408   2.230   5.003  0.6180  0.3260  0.5347
  124MOL    O8749533   4.544   2.220   5.025 -0.5204 -0.2293 -0.0102
  124MOL    C8849534   4.599   2.324   5.106 -0.0092 -0.1550  1.2164
  124MOL    C8949535   4.333   2.136   4.922  0.4839 -0.2920  1.1676
  124MOL    C9049536   4.192   2.139   4.914 -0.2864  0.6289  0.7013
  124MOL    C9149537   3.899   2.181   5.073  0.3013 -0.1762  0.6581
  124MOL    H9249538   3.944   2.183   4.875 -0.1662  0.3416 -0.0692
  124MOL    H9349539   4.130   2.416   5.096 -1.8280  0.2266 -1.7508
  124MOL    H9449540   4.373   2.422   5.099 -1.6093  0.3826  0.6601
  124MOL    H9549541   4.602   2.422   5.058 -1.4713 -0.8892 -0.4502
  124MOL    H9649542   4.704   2.301   5.122  0.5444  2.3342  1.4101
  124MOL    H9749543   4.546   2.339   5.200 -2.9175  0.1780 -0.4015
  124MOL    H9849544   4.382   2.048   4.884  1.9369  0.0872  2.1081
  124MOL    H9949545   4.135   2.063   4.861  0.1275  0.3747  0.6226
  124MOL   H10049546   3.794   2.179   5.046  0.5880 -2.9234 -0.4544
  124MOL   H10149547   3.943   2.082   5.085 -2.6155 -1.4014  1.7440
  124MOL   C10249548   3.915   2.257   5.204 -0.1504 -0.8856  0.7797
  124MOL   C10349549   3.834   2.386   5.216 -0.0122 -0.0276 -0.1358
  124MOL   C10449550   3.693   2.389   5.191  0.4276  0.1824  0.3786
  124MOL   C10549551   3.622   2.508   5.185 -0.2543 -0.3681  0.3039
  124MOL   C10649552   3.694   2.631   5.201  0.8754  0.0756  0.0999
  124MOL   O10749553   3.645   2.763   5.206  0.3107 -0.1698 -0.2840
  124MOL   C10849554   3.529   2.771   5.129 -0.1979 -0.2232 -0.3357
  124MOL   C10949555   3.831   2.630   5.235 -0.1303  0.0713 -0.5973
  124MOL   C11049556   3.902   2.507   5.235 -0.6160 -0.5954 -0.4096
  124MOL   C11149557   3.896   2.159   5.321  0.1964 -0.2537 -0.6264
  124MOL   H11249558   4.018   2.290   5.213 -0.2187 -0.5176  0.2718
  124MOL   H11349559   3.642   2.296   5.176  1.1749  0.2178 -2.6906
  124MOL   H11449560   3.516   2.504   5.165 -0.0584 -1.5060 -0.5090
  124MOL   H11549561   3.559   2.742   5.028  1.1092  0.9890 -0.3146
  124MOL   H11649562   3.441   2.718   5.164 -0.4285 -0.6092 -1.4788
  124MOL   H11749563   3.500   2.874   5.107 -2.8706 -0.4076  2.1360
  124MOL   H11849564   3.893   2.718   5.247 -0.3416  0.2343 -0.7111
  124MOL   H11949565   4.008   2.506   5.257 -0.1677 -1.2176 -2.4693
  124MOL   H12049566   3.792   2.151   5.353 -1.0648  1.8667 -3.8941
  124MOL   H12149567   3.933   2.061   5.293  0.3234 -0.0583 -1.1428
  124MOL   C12249568   3.961   2.203   5.458  1.0373  0.4006  0.3426
  124MOL   C12349569   4.108   2.244   5.448  0.6349 -0.1822  0.2675
  124MOL   C12449570   4.217   2.147   5.444  0.4227 -0.4607  0.9552
  124MOL   C12549571   4.349   2.188   5.451 -0.3167  0.2474 -0.0911
  124MOL   C12649572   4.384   2.324   5.451 -0.5800  0.3044  0.1208
  124MOL   O12749573   4.510   2.370   5.444 -0.1880  0.0303  0.1647
  124MOL   C12849574   4.625   2.279   5.456 -0.2589  0.3503  0.6738
  124MOL   C12949575   4.279   2.421   5.445  0.8703 -0.3708 -0.1008
  124MOL   C13049576   4.142   2.385   5.447 -0.2359  0.2205 -0.5695
  124MOL   C13149577   3.939   2.089   5.564  0.0275 -0.1307  0.1712
  124MOL   H13249578   3.895   2.284   5.490  0.8879  0.8586 -1.0858
  124MOL   H13349579   4.191   2.043   5.429 -1.3339  0.2165 -0.8923
  124MOL   H13449580   4.427   2.114   5.438 -1.1945 -0.9458  1.2233
  124MOL   H13549581   4.597   2.229   5.549 -0.5961  1.1818  1.0216
  124MOL   H13649582   4.628   2.202   5.378 -0.1769  0.1418  0.8799
  124MOL   H13749583   4.714   2.339   5.474  0.0563  0.3207 -0.7442
  124MOL   H13849584   4.305   2.525   5.430  3.0265 -0.7829  0.6030
  124MOL   H13949585   4.069   2.464   5.459 -0.7921 -0.5946  1.7058
  124MOL   H14049586   3.981   1.993   5.535 -3.8680 -1.7158 -0.4402
  124MOL   H14149587   3.832   2.068   5.569  0.2338 -0.8287  2.3030
  124MOL   C14249588   3.986   2.118   5.709  0.3067  0.5328 -1.4041
  124MOL   C14349589   3.909   2.222   5.782 -0.1682 -0.0194 -0.5004
  124MOL   C14449590   3.960   2.356   5.785 -0.2341  1.0529  0.1972
  124MOL   C14549591   3.889   2.451   5.860  0.6611 -0.0766 -0.0946
  124MOL   C14649592   3.771   2.421   5.932 -0.4764  0.5674  0.1903
  124MOL   O14749593   3.713   2.527   5.995 -0.5806  0.0387 -0.4628
  124MOL   C14849594   3.570   2.511   5.998  0.1609 -0.3509  0.2797
  124MOL   C14949595   3.723   2.287   5.931  0.8309  0.3728  0.6320
  124MOL   C15049596   3.795   2.186   5.854 -0.1042  0.2092 -0.1120
  124MOL   C15149597   4.009   1.992   5.805 -0.3063  0.0403  0.3892
  124MOL   H15249598   4.086   2.159   5.695  0.3746  0.9909  0.2451
  124MOL   H15349599   4.045   2.388   5.726 -1.0360 -0.7905 -2.0617
  124MOL   H15449600   3.913   2.556   5.850 -0.7950  0.3601  0.8713
  124MOL   H15549601   3.546   2.430   6.068  1.8529 -2.3604 -1.3931
  124MOL   H15649602   3.520   2.597   6.042  0.0854  0.4975 -1.4521
  124MOL   H15749603   3.520   2.496   5.903  1.0385  1.9442 -0.5638
  124MOL   H15849604   3.642   2.254   5.995 -0.9709  1.0763 -1.2361
  124MOL   H15949605   3.764   2.083   5.855  2.9937 -0.7746 -1.5067
  124MOL   H16049606   3.929   1.923   5.779 -0.6575  0.4898  0.2555
  124MOL   H16149607   3.986   2.027   5.906  1.7605  3.8991 -0.3583
  124MOL   C16249608   4.147   1.924   5.800  0.6319  0.3040 -0.0874
  124MOL   C16349609   4.156   1.798   5.712 -0.1467  0.7192 -0.9432
  124MOL   C16449610   4.051   1.703   5.725 -0.7007  0.0843 -0.1068
  124MOL   C16549611   4.059   1.583   5.643 -0.2014 -0.8351  0.3436
  124MOL   C16649612   4.161   1.564   5.549  0.4722  1.1710  0.9952
  124MOL   O16749613   4.152   1.445   5.479 -0.1357 -0.4021  0.4665
  124MOL   C16849614   4.235   1.424   5.366  0.3199 -0.4687  0.5578
  124MOL   C16949615   4.259   1.665   5.537 -0.9749  0.3334  0.2978
  124MOL   C17049616   4.260   1.779   5.621 -0.3605 -0.3578 -0.6526
  124MOL   C17149617   4.209   1.900   5.944 -0.5332 -0.1816  0.5866
  124MOL   H17249618   4.222   1.983   5.747  0.0692  1.0294 -0.0791
  124MOL   H17349619   3.978   1.703   5.805  0.1554  3.5360  0.7386
  124MOL   H17449620   3.981   1.508   5.649 -1.2034  0.1324 -0.5621
  124MOL   H17549621   4.329   1.478   5.361 -0.1395  0.2404 -0.5018
  124MOL   H17649622   4.176   1.437   5.275  1.2172 -0.4619 -0.0249
  124MOL   H17749623   4.256   1.317   5.376 -1.3488 -0.8226  0.4210
  124MOL   H17849624   4.345   1.651   5.474 -1.7746 -1.3387 -0.4579
  124MOL   H17949625   4.341   1.849   5.607  0.0606 -0.7723 -0.2701
  124MOL   H18049626   4.301   1.845   5.929 -0.9928 -0.4271 -1.4890
  124MOL   H18149627   4.153   1.827   6.002 -1.6462 -1.1561 -1.6510
  124MOL   C18249628   4.237   2.020   6.039  0.5301 -0.0808  0.3936
  124MOL   C18349629   4.311   2.136   5.972 -0.1972 -0.0294  0.0268
  124MOL   C18449630   4.246   2.254   5.950  0.2398 -0.1323  0.7015
  124MOL   C18549631   4.310   2.362   5.888  0.0068  0.3532  0.7923
  124MOL   C18649632   4.447   2.350   5.852  0.0683  0.0075 -0.6676
  124MOL   O18749633   4.526   2.444   5.792 -0.5481 -0.0640 -0.3945
  124MOL   C18849634   4.459   2.571   5.760 -0.1066 -0.4052  0.4627
  124MOL   C18949635   4.514   2.228   5.875 -0.5642  0.1925  0.2382
  124MOL   C19049636   4.446   2.117   5.938  0.1875  0.4543 -0.4172
  124MOL   C19149637   4.293   1.971   6.174  0.3318  0.1636  0.1870
  124MOL   H19249638   4.140   2.067   6.059  1.3087  1.8011 -0.0774
  124MOL   H19349639   4.142   2.264   5.977 -0.1588 -0.6450 -0.5904
  124MOL   H19449640   4.260   2.452   5.858 -1.6313 -1.2318 -1.4213
  124MOL   H19549641   4.424   2.623   5.849 -0.3160 -0.7440  0.5801
  124MOL   H19649642   4.376   2.565   5.690  0.3688 -1.0925 -0.0488
  124MOL   H19749643   4.536   2.640   5.726 -1.4581  1.0062  0.1987
  124MOL   H19849644   4.617   2.219   5.843 -0.3083  2.2861  0.3625
  124MOL   H19949645   4.497   2.029   5.975 -1.5527 -0.3102  0.2268
  124MOL   H20049646   4.228   1.889   6.202  1.8013 -1.5101 -1.1814
  124MOL   H20149647   4.393   1.929   6.159  0.7198  1.6116 -1.4494
  124MOL   C20249648   4.318   2.062   6.297 -0.0963 -0.1699 -0.5703
  124MOL   C20349649   4.397   1.993   6.409  0.1413  0.4046  1.4671
  124MOL   C20449650   4.344   1.877   6.469 -0.4820 -0.0585  0.2512
  124MOL   C20549651   4.412   1.802   6.569 -0.2273 -0.0194 -0.3058
  124MOL   C20649652   4.537   1.844   6.611 -0.0309 -0.4601 -0.8922
  124MOL   O20749653   4.611   1.787   6.710  0.1344 -0.5554 -0.2450
  124MOL   C20849654   4.543   1.712   6.809  0.5548  0.6561 -0.3916
  124MOL   C20949655   4.597   1.955   6.538  0.8082 -0.4941  0.0691
  124MOL   C21049656   4.527   2.031   6.444  0.0993  0.4003 -0.2353
  124MOL   C21149657   4.183   2.130   6.339 -0.6081  0.4821 -0.0920
  124MOL   H21249658   4.384   2.139   6.257  0.3541 -0.4782 -0.4269
  124MOL   H21349659   4.243   1.849   6.447 -0.4312  0.5140 -0.7306
  124MOL   H21449660   4.375   1.711   6.615 -0.6480  0.9196  1.2171
  124MOL   H21549661   4.472   1.640   6.768 -0.1585  1.7735 -1.1169
  124MOL   H21649662   4.620   1.655   6.861  0.9851  0.6947 -0.9810
  124MOL   H21749663   4.490   1.781   6.875 -1.5625 -1.0786 -0.1914
  124MOL   H21849664   4.695   1.978   6.579  0.3435  1.4061  0.1448
  124MOL   H21949665   4.567   2.117   6.391 -0.2649  0.8598  0.2392
  124MOL   H22049666   4.138   2.063   6.412 -0.7979  0.4686 -0.2245
  124MOL   H22149667   4.114   2.144   6.257 -1.1121  2.0523  0.5665
  124MOL   C22249668   4.207   2.265   6.410 -0.1093 -0.0941  0.5407
  124MOL   C22349669   4.220   2.379   6.305  0.6911 -0.2611  0.4910
  124MOL   C22449670   4.349   2.432   6.269  0.0709 -0.5312 -0.3414
  124MOL   C22549671   4.351   2.537   6.171 -0.0816  0.5484 -0.0320
  124MOL   C22649672   4.241   2.590   6.115 -0.0398  0.0734 -0.2137
  124MOL   O22749673   4.252   2.713   6.048 -0.2977 -0.3386  1.0389
  124MOL   C22849674   4.134   2.786   6.026 -1.1147  0.2835 -0.3135
  124MOL   C22949675   4.114   2.535   6.147 -0.2113  0.0952  0.5960
  124MOL   C23049676   4.105   2.428   6.239 -0.1637  0.4227 -0.5033
  124MOL   C23149677   4.101   2.289   6.517  0.1090  0.7609 -0.4614
  124MOL   H23249678   4.309   2.266   6.448  0.7173 -0.1086 -1.6165
  124MOL   H23349679   4.445   2.402   6.307 -0.6921 -1.5241  0.8212
  124MOL   H23449680   4.449   2.578   6.153  0.0541 -0.4658 -1.6829
  124MOL   H23549681   4.157   2.887   5.993  0.8559  0.6897  2.1762
  124MOL   H23649682   4.083   2.729   5.948 -2.2716 -1.7666  1.8501
  124MOL   H23749683   4.073   2.789   6.116 -3.6069  0.8028 -1.9810
  124MOL   H23849684   4.017   2.563   6.107  0.7769  0.3692 -1.6524
  124MOL   H23949685   4.009   2.381   6.253  0.0267  0.2143  0.1485
  124MOL   H24049686   4.005   2.281   6.467  0.4044 -0.0529 -0.9000
  124MOL   H24149687   4.104   2.213   6.595  1.8990 -0.7189 -1.9380
  124MOL   C24249688   4.104   2.427   6.591 -0.0680  1.1700  0.3552
  124MOL   C24349689   3.983   2.436   6.685 -0.7270 -0.0926 -0.0102
  124MOL   C24449690   3.903   2.548   6.666  0.1060 -0.2689  0.2245
  124MOL   C24549691   3.779   2.564   6.738  0.0715 -0.7669  0.5893
  124MOL   C24649692   3.738   2.464   6.830  0.3150 -0.1308  0.0991
  124MOL   O24749693   3.618   2.484   6.886  0.3215 -0.6791 -0.8440
  124MOL   C24849694   3.560   2.388   6.975 -0.0006  0.0106 -0.3468
  124MOL   C24949695   3.825   2.354   6.856 -0.3075  0.0718  0.0869
  124MOL   C25049696   3.943   2.341   6.779 -0.5068 -0.5253  0.4817
  124MOL   C25149697   4.243   2.445   6.666 -0.5159 -0.8293  0.2520
  124MOL   H25249698   4.096   2.499   6.509 -2.1648 -3.4966 -3.8235
  124MOL   H25349699   3.925   2.619   6.587 -2.6475 -0.4096 -0.7099
  124MOL   H25449700   3.721   2.653   6.722 -2.3791 -2.0699  1.9701
  124MOL   H25549701   3.466   2.426   7.014  0.4650 -0.8343  1.6885
  124MOL   H25649702   3.525   2.298   6.924 -1.9373  0.3077  0.4345
  124MOL   H25749703   3.624   2.358   7.059  2.4871 -1.3834 -2.6587
  124MOL   H25849704   3.789   2.273   6.917 -1.3212  0.5635  0.1738
  124MOL   H25949705   4.006   2.253   6.778 -0.8870 -0.8007 -3.0277
  124MOL   H26049706   4.321   2.445   6.589  0.0630  0.1360  0.8409
  124MOL   H26149707   4.269   2.364   6.734 -1.2115 -1.2094  0.0740
  124MOL   C26249708   4.264   2.572   6.747  0.3142 -0.1611  0.7142
  124MOL   C26349709   4.226   2.696   6.662  0.3022  0.0632  0.3964
  124MOL   C26449710   4.121   2.782   6.701  0.1042 -0.1854 -0.1882
  124MOL   C26549711   4.090   2.895   6.624 -0.4601 -0.3225 -0.3909
  124MOL   C26649712   4.171   2.941   6.516 -0.0937  0.3876 -0.9206
  124MOL   O26749713   4.140   3.053   6.444 -0.0169  0.2906  0.0677
  124MOL   C26849714   4.180   3.059   6.306 -0.0945 -0.1779 -1.2095
  124MOL   C26949715   4.276   2.857   6.481  0.5954 -0.2949  0.6626
  124MOL   C27049716   4.297   2.736   6.547  0.6696 -0.0391 -0.0346
  124MOL   C27149717   4.403   2.594   6.812  0.9791  0.0892 -0.1075
  124MOL   H27249718   4.187   2.570   6.823 -0.4358 -1.6013 -0.0603
  124MOL   H27349719   4.056   2.762   6.784 -2.6740  1.6225 -1.8619
  124MOL   H27449720   4.006   2.956   6.655 -1.5783 -1.6805 -0.6993
  124MOL   H27549721   4.113   3.131   6.260 -1.6210 -0.6477  0.2421
  124MOL   H27649722   4.155   2.963   6.261 -0.9595 -0.4521 -0.1836
  124MOL   H27749723   4.285   3.081   6.286 -0.4895  0.8291 -2.1966
  124MOL   H27849724   4.329   2.883   6.390 -0.9529  0.2083 -0.1172
  124MOL   H27949725   4.375   2.672   6.508  1.1177  0.2461  0.3784
  124MOL   H28049726   4.420   2.519   6.890  3.3531  0.5976 -0.1199
  124MOL   H28149727   4.468   2.583   6.725 -0.8570  0.1140 -1.5266
  124MOL   C28249728   4.431   2.730   6.865  0.4335 -0.4572 -0.3210
  124MOL   C28349729   4.576   2.750   6.893 -0.6202 -0.3955  0.4281
  124MOL   C28449730   4.644   2.849   6.814  0.3679  0.4102  0.3547
  124MOL   C28549731   4.770   2.888   6.843  0.8247  0.0873 -0.1613
  124MOL   C28649732   4.840   2.821   6.948  0.1372  0.1072  0.2364
  124MOL   O28749733   4.970   2.860   6.968  0.5687  0.3240  0.1864
  124MOL   C28849734   5.008   2.879   7.098 -0.3994  0.6837  0.3198
  124MOL   C28949735   4.782   2.712   7.017  0.1972 -0.2739 -0.5414
  124MOL   C29049736   4.647   2.679   6.992  0.1511  0.3907 -0.1692
  124MOL   C29149737   4.345   2.764   6.992  0.1590 -0.4751 -0.1075
  124MOL   H29249738   4.406   2.807   6.792  0.7396 -0.1997 -0.1549
  124MOL   H29349739   4.580   2.900   6.743  1.5470  0.4440 -0.7034
  124MOL   H29449740   4.819   2.971   6.794 -0.0128  2.1783  2.4254
  124MOL   H29549741   5.107   2.926   7.101  0.6049 -1.1776 -1.9488
  124MOL   H29649742   4.938   2.957   7.127 -1.4767 -0.0871 -0.2016
  124MOL   H29749743   5.006   2.786   7.154 -1.6114 -0.2360 -1.2324
  124MOL   H29849744   4.835   2.660   7.096  1.1393  1.0224 -0.2968
  124MOL   H29949745   4.597   2.601   7.046 -3.3102  3.2315  0.9258
  124MOL   H30049746   4.242   2.776   6.957  1.9353  2.5303 -4.8453
  124MOL   H30149747   4.332   2.688   7.069  1.7505 -0.5181  0.1400
  124MOL   C30249748   4.366   2.909   7.063  0.1746  0.2168 -0.7138
  124MOL   C30349749   4.315   3.013   6.964 -0.3540 -0.5169 -0.7769
  124MOL   C30449750   4.181   3.040   6.951 -0.2508  0.0824  0.2717
  124MOL   C30549751   4.138   3.137   6.858 -0.0477 -0.4209 -0.5006
  124MOL   C30649752   4.229   3.199   6.769 -0.6378  0.4297  0.0083
  124MOL   O30749753   4.190   3.285   6.669 -0.0101 -0.0328 -0.2735
  124MOL   C30849754   4.057   3.284   6.618 -0.1318  0.4639  0.1055
  124MOL   C30949755   4.364   3.176   6.781 -0.3843 -0.1446  0.0790
  124MOL   C31049756   4.406   3.075   6.874 -0.8634  0.4952  0.3900
  124MOL   C31149757   4.309   2.916   7.210  0.3465  0.4988 -0.8601
  124MOL   H31249758   4.472   2.926   7.085  0.1620 -0.9971  0.3575
  124MOL   H31349759   4.106   3.004   7.020 -0.4762  1.8398  0.9669
  124MOL   H31449760   4.033   3.156   6.844 -0.1135  0.5308  1.0995
  124MOL   H31549761   4.005   3.191   6.643  1.1533  0.3792  2.6013
  124MOL   H31649762   4.055   3.283   6.509 -3.2702  2.0104  0.1181
  124MOL   H31749763   3.992   3.353   6.670  0.6281  0.5636  0.9457
  124MOL   H31849764   4.436   3.214   6.710 -0.0853 -3.4755 -1.5124
  124MOL   H31949765   4.511   3.051   6.873 -1.0716 -0.4985  1.2877
  124MOL   H32049766   4.358   2.831   7.256  0.3815 -0.0877 -1.9587
  124MOL   H32149767   4.202   2.894   7.213  0.6382 -0.9821 -1.0224
  124MOL   C32249768   4.331   3.044   7.290 -0.2952 -0.3999  0.8727
  124MOL   C32349769   4.479   3.081   7.294 -0.6219 -0.1121  0.1900
  124MOL   C32449770   4.520   3.214   7.268  1.0387  0.6403  0.5429
  124MOL   C32549771   4.657   3.252   7.259  0.4784  0.0859 -0.6046
  124MOL   C32649772   4.758   3.159   7.301  0.3695 -0.6054  0.9155
  124MOL   O32749773   4.891   3.203   7.296 -0.0224  0.3566 -0.2259
  124MOL   C32849774   4.984   3.126   7.377  0.2427  0.2177 -0.2331
  124MOL   C32949775   4.711   3.024   7.334 -0.0320 -0.0110 -0.0291
  124MOL   C33049776   4.574   2.991   7.336  0.4008 -0.5816 -0.9115
  124MOL   C33149777   4.266   3.048   7.426 -0.2390  0.5483 -0.0812
  124MOL   H33249778   4.296   3.132   7.236  0.2737  0.3908  1.7713
  124MOL   H33349779   4.449   3.293   7.248  0.1835 -0.1509  0.4048
  124MOL   H33449780   4.683   3.355   7.239  0.6391  0.0751 -0.4518
  124MOL   H33549781   4.960   3.138   7.482  1.0866  1.4672 -0.1712
  124MOL   H33649782   5.068   3.194   7.366 -0.5075  0.8079 -2.7777
  124MOL   H33749783   5.009   3.024   7.349 -2.2189 -0.0536 -1.5881
  124MOL   H33849784   4.791   2.957   7.360  0.2353  0.3830  0.1668
  124MOL   H33949785   4.541   2.891   7.363  0.5326 -0.0907  1.1507
  124MOL   H34049786   4.240   2.946   7.454 -0.0055  1.6872  4.7107
  124MOL   H34149787   4.343   3.082   7.495  1.4169 -2.4050 -0.3896
  124MOL   C34249788   4.128   3.130   7.440  0.6516 -0.1880 -0.6875
  124MOL   C34349789   4.020   3.115   7.333  0.5480  0.4734 -0.0340
  124MOL   C34449790   3.946   2.994   7.322 -0.5949 -0.0151  0.2570
  124MOL   C34549791   3.853   2.979   7.212  0.0415  0.1723 -0.2183
  124MOL   C34649792   3.840   3.082   7.112 -0.6451  0.1522  0.3958
  124MOL   O34749793   3.753   3.068   7.010  0.9881  0.1798 -0.2866
  124MOL   C34849794   3.779   2.947   6.937  0.4530  0.0795 -0.1687
  124MOL   C34949795   3.921   3.198   7.125 -0.1817 -0.6415  0.5096
  124MOL   C35049796   4.009   3.216   7.235 -0.4073 -0.4306  0.0883
  124MOL   C35149797   4.164   3.274   7.477 -0.0711  0.6532  0.4435
  124MOL   H35249798   4.088   3.089   7.532  0.6888  0.1950 -0.5007
  124MOL   H35349799   3.961   2.910   7.389  1.1078  1.0597  1.2658
  124MOL   H35449800   3.794   2.890   7.201 -0.4266  0.2949  1.1404
  124MOL   H35549801   3.719   2.961   6.847 -0.4631 -0.3226  0.3813
  124MOL   H35649802   3.884   2.945   6.907  0.6182  0.6375  0.3543
  124MOL   H35749803   3.750   2.851   6.978  0.9308  0.0708  0.1546
  124MOL   H35849804   3.927   3.271   7.045  1.1338 -0.1383  1.0576
  124MOL   H35949805   4.075   3.301   7.227  1.0206 -1.2342  2.7802
  124MOL   H36049806   4.245   3.310   7.413  0.7528 -1.5059  0.2471
  124MOL   H36149807   4.069   3.327   7.467 -0.7800 -0.7350 -0.3437
  124MOL   C36249808   4.202   3.308   7.623  1.2863  0.4233  0.8640
  124MOL   C36349809   4.077   3.334   7.709 -0.5828 -0.0608 -0.5022
  124MOL   C36449810   4.022   3.239   7.799  0.0152 -0.4716  0.1565
  124MOL   C36549811   3.911   3.268   7.877  0.6209 -0.1532 -0.0385
  124MOL   C36649812   3.844   3.393   7.867  0.3352  0.1312  0.6071
  124MOL   O36749813   3.736   3.412   7.951  0.3473  0.2583 -0.3788
  124MOL   C36849814   3.662   3.538   7.943  0.2843  0.4365  0.7365
  124MOL   C36949815   3.899   3.491   7.772 -0.5095  0.2338  1.1499
  124MOL   C37049816   4.015   3.462   7.706 -0.0839 -0.4760 -0.0034
  124MOL   C37149817   4.306   3.420   7.647  0.1849  0.1421  0.7989
  124MOL   H37249818   4.252   3.218   7.661 -1.0418 -1.2848 -0.0186
  124MOL   H37349819   4.066   3.140   7.804  1.5731 -0.1350 -4.4485
  124MOL   H37449820   3.867   3.192   7.939 -1.0652 -1.4051 -2.7020
  124MOL   H37549821   3.654   3.590   7.848 -1.1934 -1.6072 -0.2887
  124MOL   H37649822   3.564   3.524   7.988 -0.0824  1.3545  0.2444
  124MOL   H37749823   3.712   3.601   8.017  0.2778  3.6688 -1.9093
  124MOL   H37849824   3.845   3.584   7.761 -1.5399 -0.5391 -0.5882
  124MOL   H37949825   4.061   3.534   7.639 -0.6287 -1.1331 -1.1007
  124MOL   H38049826   4.282   3.499   7.577  0.5375  2.1895  2.9155
  124MOL   H38149827   4.303   3.471   7.744 -1.0952 -2.1953  2.0341
  124MOL   C38249828   4.454   3.377   7.620 -0.4434  0.5475 -0.0016
  124MOL   C38349829   4.503   3.264   7.717 -0.6781  0.2449  0.5509
  124MOL   C38449830   4.582   3.162   7.658 -0.2714  0.3154  0.2774
  124MOL   C38549831   4.634   3.062   7.743  0.6004 -0.4417  0.0948
  124MOL   C38649832   4.612   3.060   7.883 -0.6956 -0.4507  0.0793
  124MOL   O38749833   4.682   2.961   7.950  0.1161  0.3484 -0.3356
  124MOL   C38849834   4.679   2.958   0.054 -0.0531 -0.6250  1.6243
  124MOL   C38949835   4.522   3.151   7.938  0.1334 -0.0264 -0.6045
  124MOL   C39049836   4.471   3.256   7.855  0.2762  0.3780  0.4824
  124MOL   C39149837   4.549   3.493   7.635  0.0708 -0.1582 -0.3578
  124MOL   H39249838   4.465   3.337   7.520 -1.6957  1.4842 -0.5390
  124MOL   H39349839   4.609   3.162   7.554 -0.6107 -1.2236  0.1685
  124MOL   H39449840   4.717   3.004   7.707  1.7966  0.2498  1.6946
  124MOL   H39549841   4.710   3.046   0.109 -0.3847 -0.5218  1.6453
  124MOL   H39649842   4.745   2.880   0.091  0.0183 -0.5398  1.6762
  124MOL   H39749843   4.578   2.936   0.087 -0.9051  0.5032 -0.1343
  124MOL   H39849844   4.495   3.144   0.002  0.3739 -0.9590 -0.5983
  124MOL   H39949845   4.395   3.323   7.893 -1.5938 -0.2724 -1.9794
  124MOL   H40049846   4.655   3.466   7.632  0.2634  0.5852 -0.4278
  124MOL   H40149847   4.539   3.540   7.733  1.9562  1.1211 -0.7474
  124MOL   H40249848   4.529   3.563   7.555 -0.4517 -2.1119 -1.9731
   8.03989   8.03989   8.03989
