;
; Gromacs include topology (itp) file.
; For Molecular Group XYZ
; Force field scheme: opls2005
; Produced from DL_FIELD v4.11
;


[ moleculetype ]
; name    nrexcl
XYZ    3

[ atoms ]
; nr   type   resnr   residu    atom    cgnr    charge    mass
    1        CT    1  MOL      C1     1  -0.0050000   12.0115
    2        CA    1  MOL      C2     2  -0.1150000   12.0115
    3        CA    1  MOL      C3     3  -0.1150000   12.0115
    4        CA    1  MOL      C4     4  -0.1150000   12.0115
    5        CA    1  MOL      C5     5   0.0850000   12.0115
    6        OS    1  MOL      O6     6  -0.2850000   15.9994
    7        CT    1  MOL      C7     7   0.1100000   12.0115
    8        CA    1  MOL      C8     8  -0.1150000   12.0115
    9        CA    1  MOL      C9     9  -0.1150000   12.0115
   10        CT    1  MOL     C10    10  -0.1200000   12.0115
   11        HC    1  MOL     H11    11   0.0600000    1.0080
   12        HA    1  MOL     H12    12   0.1150000    1.0080
   13        HA    1  MOL     H13    13   0.1150000    1.0080
   14        HC    1  MOL     H14    14   0.0300000    1.0080
   15        HC    1  MOL     H15    15   0.0300000    1.0080
   16        HC    1  MOL     H16    16   0.0300000    1.0080
   17        HA    1  MOL     H17    17   0.1150000    1.0080
   18        HA    1  MOL     H18    18   0.1150000    1.0080
   19        HC    1  MOL     H19    19   0.0600000    1.0080
   20        HC    1  MOL     H20    20   0.0600000    1.0080
   21        HC    1  MOL     H21    21   0.0600000    1.0080
   22        CT    1  MOL     C22    22   0.0550000   12.0115
   23        CA    1  MOL     C23    23  -0.1150000   12.0115
   24        CA    1  MOL     C24    24  -0.1150000   12.0115
   25        CA    1  MOL     C25    25  -0.1150000   12.0115
   26        CA    1  MOL     C26    26   0.0850000   12.0115
   27        OS    1  MOL     O27    27  -0.2850000   15.9994
   28        CT    1  MOL     C28    28   0.1100000   12.0115
   29        CA    1  MOL     C29    29  -0.1150000   12.0115
   30        CA    1  MOL     C30    30  -0.1150000   12.0115
   31        CT    1  MOL     C31    31  -0.1200000   12.0115
   32        HC    1  MOL     H32    32   0.0600000    1.0080
   33        HA    1  MOL     H33    33   0.1150000    1.0080
   34        HA    1  MOL     H34    34   0.1150000    1.0080
   35        HC    1  MOL     H35    35   0.0300000    1.0080
   36        HC    1  MOL     H36    36   0.0300000    1.0080
   37        HC    1  MOL     H37    37   0.0300000    1.0080
   38        HA    1  MOL     H38    38   0.1150000    1.0080
   39        HA    1  MOL     H39    39   0.1150000    1.0080
   40        HC    1  MOL     H40    40   0.0600000    1.0080
   41        HC    1  MOL     H41    41   0.0600000    1.0080
   42        CT    1  MOL     C42    42   0.0550000   12.0115
   43        CA    1  MOL     C43    43  -0.1150000   12.0115
   44        CA    1  MOL     C44    44  -0.1150000   12.0115
   45        CA    1  MOL     C45    45  -0.1150000   12.0115
   46        CA    1  MOL     C46    46   0.0850000   12.0115
   47        OS    1  MOL     O47    47  -0.2850000   15.9994
   48        CT    1  MOL     C48    48   0.1100000   12.0115
   49        CA    1  MOL     C49    49  -0.1150000   12.0115
   50        CA    1  MOL     C50    50  -0.1150000   12.0115
   51        CT    1  MOL     C51    51  -0.1200000   12.0115
   52        HC    1  MOL     H52    52   0.0600000    1.0080
   53        HA    1  MOL     H53    53   0.1150000    1.0080
   54        HA    1  MOL     H54    54   0.1150000    1.0080
   55        HC    1  MOL     H55    55   0.0300000    1.0080
   56        HC    1  MOL     H56    56   0.0300000    1.0080
   57        HC    1  MOL     H57    57   0.0300000    1.0080
   58        HA    1  MOL     H58    58   0.1150000    1.0080
   59        HA    1  MOL     H59    59   0.1150000    1.0080
   60        HC    1  MOL     H60    60   0.0600000    1.0080
   61        HC    1  MOL     H61    61   0.0600000    1.0080
   62        CT    1  MOL     C62    62   0.0550000   12.0115
   63        CA    1  MOL     C63    63  -0.1150000   12.0115
   64        CA    1  MOL     C64    64  -0.1150000   12.0115
   65        CA    1  MOL     C65    65  -0.1150000   12.0115
   66        CA    1  MOL     C66    66   0.0850000   12.0115
   67        OS    1  MOL     O67    67  -0.2850000   15.9994
   68        CT    1  MOL     C68    68   0.1100000   12.0115
   69        CA    1  MOL     C69    69  -0.1150000   12.0115
   70        CA    1  MOL     C70    70  -0.1150000   12.0115
   71        CT    1  MOL     C71    71  -0.1200000   12.0115
   72        HC    1  MOL     H72    72   0.0600000    1.0080
   73        HA    1  MOL     H73    73   0.1150000    1.0080
   74        HA    1  MOL     H74    74   0.1150000    1.0080
   75        HC    1  MOL     H75    75   0.0300000    1.0080
   76        HC    1  MOL     H76    76   0.0300000    1.0080
   77        HC    1  MOL     H77    77   0.0300000    1.0080
   78        HA    1  MOL     H78    78   0.1150000    1.0080
   79        HA    1  MOL     H79    79   0.1150000    1.0080
   80        HC    1  MOL     H80    80   0.0600000    1.0080
   81        HC    1  MOL     H81    81   0.0600000    1.0080
   82        CT    1  MOL     C82    82   0.0550000   12.0115
   83        CA    1  MOL     C83    83  -0.1150000   12.0115
   84        CA    1  MOL     C84    84  -0.1150000   12.0115
   85        CA    1  MOL     C85    85  -0.1150000   12.0115
   86        CA    1  MOL     C86    86   0.0850000   12.0115
   87        OS    1  MOL     O87    87  -0.2850000   15.9994
   88        CT    1  MOL     C88    88   0.1100000   12.0115
   89        CA    1  MOL     C89    89  -0.1150000   12.0115
   90        CA    1  MOL     C90    90  -0.1150000   12.0115
   91        CT    1  MOL     C91    91  -0.1200000   12.0115
   92        HC    1  MOL     H92    92   0.0600000    1.0080
   93        HA    1  MOL     H93    93   0.1150000    1.0080
   94        HA    1  MOL     H94    94   0.1150000    1.0080
   95        HC    1  MOL     H95    95   0.0300000    1.0080
   96        HC    1  MOL     H96    96   0.0300000    1.0080
   97        HC    1  MOL     H97    97   0.0300000    1.0080
   98        HA    1  MOL     H98    98   0.1150000    1.0080
   99        HA    1  MOL     H99    99   0.1150000    1.0080
  100        HC    1  MOL    H100   100   0.0600000    1.0080
  101        HC    1  MOL    H101   101   0.0600000    1.0080
  102        CT    1  MOL    C102   102   0.0550000   12.0115
  103        CA    1  MOL    C103   103  -0.1150000   12.0115
  104        CA    1  MOL    C104   104  -0.1150000   12.0115
  105        CA    1  MOL    C105   105  -0.1150000   12.0115
  106        CA    1  MOL    C106   106   0.0850000   12.0115
  107        OS    1  MOL    O107   107  -0.2850000   15.9994
  108        CT    1  MOL    C108   108   0.1100000   12.0115
  109        CA    1  MOL    C109   109  -0.1150000   12.0115
  110        CA    1  MOL    C110   110  -0.1150000   12.0115
  111        CT    1  MOL    C111   111  -0.1200000   12.0115
  112        HC    1  MOL    H112   112   0.0600000    1.0080
  113        HA    1  MOL    H113   113   0.1150000    1.0080
  114        HA    1  MOL    H114   114   0.1150000    1.0080
  115        HC    1  MOL    H115   115   0.0300000    1.0080
  116        HC    1  MOL    H116   116   0.0300000    1.0080
  117        HC    1  MOL    H117   117   0.0300000    1.0080
  118        HA    1  MOL    H118   118   0.1150000    1.0080
  119        HA    1  MOL    H119   119   0.1150000    1.0080
  120        HC    1  MOL    H120   120   0.0600000    1.0080
  121        HC    1  MOL    H121   121   0.0600000    1.0080
  122        CT    1  MOL    C122   122   0.0550000   12.0115
  123        CA    1  MOL    C123   123  -0.1150000   12.0115
  124        CA    1  MOL    C124   124  -0.1150000   12.0115
  125        CA    1  MOL    C125   125  -0.1150000   12.0115
  126        CA    1  MOL    C126   126   0.0850000   12.0115
  127        OS    1  MOL    O127   127  -0.2850000   15.9994
  128        CT    1  MOL    C128   128   0.1100000   12.0115
  129        CA    1  MOL    C129   129  -0.1150000   12.0115
  130        CA    1  MOL    C130   130  -0.1150000   12.0115
  131        CT    1  MOL    C131   131  -0.1200000   12.0115
  132        HC    1  MOL    H132   132   0.0600000    1.0080
  133        HA    1  MOL    H133   133   0.1150000    1.0080
  134        HA    1  MOL    H134   134   0.1150000    1.0080
  135        HC    1  MOL    H135   135   0.0300000    1.0080
  136        HC    1  MOL    H136   136   0.0300000    1.0080
  137        HC    1  MOL    H137   137   0.0300000    1.0080
  138        HA    1  MOL    H138   138   0.1150000    1.0080
  139        HA    1  MOL    H139   139   0.1150000    1.0080
  140        HC    1  MOL    H140   140   0.0600000    1.0080
  141        HC    1  MOL    H141   141   0.0600000    1.0080
  142        CT    1  MOL    C142   142   0.0550000   12.0115
  143        CA    1  MOL    C143   143  -0.1150000   12.0115
  144        CA    1  MOL    C144   144  -0.1150000   12.0115
  145        CA    1  MOL    C145   145  -0.1150000   12.0115
  146        CA    1  MOL    C146   146   0.0850000   12.0115
  147        OS    1  MOL    O147   147  -0.2850000   15.9994
  148        CT    1  MOL    C148   148   0.1100000   12.0115
  149        CA    1  MOL    C149   149  -0.1150000   12.0115
  150        CA    1  MOL    C150   150  -0.1150000   12.0115
  151        CT    1  MOL    C151   151  -0.1200000   12.0115
  152        HC    1  MOL    H152   152   0.0600000    1.0080
  153        HA    1  MOL    H153   153   0.1150000    1.0080
  154        HA    1  MOL    H154   154   0.1150000    1.0080
  155        HC    1  MOL    H155   155   0.0300000    1.0080
  156        HC    1  MOL    H156   156   0.0300000    1.0080
  157        HC    1  MOL    H157   157   0.0300000    1.0080
  158        HA    1  MOL    H158   158   0.1150000    1.0080
  159        HA    1  MOL    H159   159   0.1150000    1.0080
  160        HC    1  MOL    H160   160   0.0600000    1.0080
  161        HC    1  MOL    H161   161   0.0600000    1.0080
  162        CT    1  MOL    C162   162   0.0550000   12.0115
  163        CA    1  MOL    C163   163  -0.1150000   12.0115
  164        CA    1  MOL    C164   164  -0.1150000   12.0115
  165        CA    1  MOL    C165   165  -0.1150000   12.0115
  166        CA    1  MOL    C166   166   0.0850000   12.0115
  167        OS    1  MOL    O167   167  -0.2850000   15.9994
  168        CT    1  MOL    C168   168   0.1100000   12.0115
  169        CA    1  MOL    C169   169  -0.1150000   12.0115
  170        CA    1  MOL    C170   170  -0.1150000   12.0115
  171        CT    1  MOL    C171   171  -0.1200000   12.0115
  172        HC    1  MOL    H172   172   0.0600000    1.0080
  173        HA    1  MOL    H173   173   0.1150000    1.0080
  174        HA    1  MOL    H174   174   0.1150000    1.0080
  175        HC    1  MOL    H175   175   0.0300000    1.0080
  176        HC    1  MOL    H176   176   0.0300000    1.0080
  177        HC    1  MOL    H177   177   0.0300000    1.0080
  178        HA    1  MOL    H178   178   0.1150000    1.0080
  179        HA    1  MOL    H179   179   0.1150000    1.0080
  180        HC    1  MOL    H180   180   0.0600000    1.0080
  181        HC    1  MOL    H181   181   0.0600000    1.0080
  182        CT    1  MOL    C182   182   0.0550000   12.0115
  183        CA    1  MOL    C183   183  -0.1150000   12.0115
  184        CA    1  MOL    C184   184  -0.1150000   12.0115
  185        CA    1  MOL    C185   185  -0.1150000   12.0115
  186        CA    1  MOL    C186   186   0.0850000   12.0115
  187        OS    1  MOL    O187   187  -0.2850000   15.9994
  188        CT    1  MOL    C188   188   0.1100000   12.0115
  189        CA    1  MOL    C189   189  -0.1150000   12.0115
  190        CA    1  MOL    C190   190  -0.1150000   12.0115
  191        CT    1  MOL    C191   191  -0.1200000   12.0115
  192        HC    1  MOL    H192   192   0.0600000    1.0080
  193        HA    1  MOL    H193   193   0.1150000    1.0080
  194        HA    1  MOL    H194   194   0.1150000    1.0080
  195        HC    1  MOL    H195   195   0.0300000    1.0080
  196        HC    1  MOL    H196   196   0.0300000    1.0080
  197        HC    1  MOL    H197   197   0.0300000    1.0080
  198        HA    1  MOL    H198   198   0.1150000    1.0080
  199        HA    1  MOL    H199   199   0.1150000    1.0080
  200        HC    1  MOL    H200   200   0.0600000    1.0080
  201        HC    1  MOL    H201   201   0.0600000    1.0080
  202        CT    1  MOL    C202   202   0.0550000   12.0115
  203        CA    1  MOL    C203   203  -0.1150000   12.0115
  204        CA    1  MOL    C204   204  -0.1150000   12.0115
  205        CA    1  MOL    C205   205  -0.1150000   12.0115
  206        CA    1  MOL    C206   206   0.0850000   12.0115
  207        OS    1  MOL    O207   207  -0.2850000   15.9994
  208        CT    1  MOL    C208   208   0.1100000   12.0115
  209        CA    1  MOL    C209   209  -0.1150000   12.0115
  210        CA    1  MOL    C210   210  -0.1150000   12.0115
  211        CT    1  MOL    C211   211  -0.1200000   12.0115
  212        HC    1  MOL    H212   212   0.0600000    1.0080
  213        HA    1  MOL    H213   213   0.1150000    1.0080
  214        HA    1  MOL    H214   214   0.1150000    1.0080
  215        HC    1  MOL    H215   215   0.0300000    1.0080
  216        HC    1  MOL    H216   216   0.0300000    1.0080
  217        HC    1  MOL    H217   217   0.0300000    1.0080
  218        HA    1  MOL    H218   218   0.1150000    1.0080
  219        HA    1  MOL    H219   219   0.1150000    1.0080
  220        HC    1  MOL    H220   220   0.0600000    1.0080
  221        HC    1  MOL    H221   221   0.0600000    1.0080
  222        CT    1  MOL    C222   222   0.0550000   12.0115
  223        CA    1  MOL    C223   223  -0.1150000   12.0115
  224        CA    1  MOL    C224   224  -0.1150000   12.0115
  225        CA    1  MOL    C225   225  -0.1150000   12.0115
  226        CA    1  MOL    C226   226   0.0850000   12.0115
  227        OS    1  MOL    O227   227  -0.2850000   15.9994
  228        CT    1  MOL    C228   228   0.1100000   12.0115
  229        CA    1  MOL    C229   229  -0.1150000   12.0115
  230        CA    1  MOL    C230   230  -0.1150000   12.0115
  231        CT    1  MOL    C231   231  -0.1200000   12.0115
  232        HC    1  MOL    H232   232   0.0600000    1.0080
  233        HA    1  MOL    H233   233   0.1150000    1.0080
  234        HA    1  MOL    H234   234   0.1150000    1.0080
  235        HC    1  MOL    H235   235   0.0300000    1.0080
  236        HC    1  MOL    H236   236   0.0300000    1.0080
  237        HC    1  MOL    H237   237   0.0300000    1.0080
  238        HA    1  MOL    H238   238   0.1150000    1.0080
  239        HA    1  MOL    H239   239   0.1150000    1.0080
  240        HC    1  MOL    H240   240   0.0600000    1.0080
  241        HC    1  MOL    H241   241   0.0600000    1.0080
  242        CT    1  MOL    C242   242   0.0550000   12.0115
  243        CA    1  MOL    C243   243  -0.1150000   12.0115
  244        CA    1  MOL    C244   244  -0.1150000   12.0115
  245        CA    1  MOL    C245   245  -0.1150000   12.0115
  246        CA    1  MOL    C246   246   0.0850000   12.0115
  247        OS    1  MOL    O247   247  -0.2850000   15.9994
  248        CT    1  MOL    C248   248   0.1100000   12.0115
  249        CA    1  MOL    C249   249  -0.1150000   12.0115
  250        CA    1  MOL    C250   250  -0.1150000   12.0115
  251        CT    1  MOL    C251   251  -0.1200000   12.0115
  252        HC    1  MOL    H252   252   0.0600000    1.0080
  253        HA    1  MOL    H253   253   0.1150000    1.0080
  254        HA    1  MOL    H254   254   0.1150000    1.0080
  255        HC    1  MOL    H255   255   0.0300000    1.0080
  256        HC    1  MOL    H256   256   0.0300000    1.0080
  257        HC    1  MOL    H257   257   0.0300000    1.0080
  258        HA    1  MOL    H258   258   0.1150000    1.0080
  259        HA    1  MOL    H259   259   0.1150000    1.0080
  260        HC    1  MOL    H260   260   0.0600000    1.0080
  261        HC    1  MOL    H261   261   0.0600000    1.0080
  262        CT    1  MOL    C262   262   0.0550000   12.0115
  263        CA    1  MOL    C263   263  -0.1150000   12.0115
  264        CA    1  MOL    C264   264  -0.1150000   12.0115
  265        CA    1  MOL    C265   265  -0.1150000   12.0115
  266        CA    1  MOL    C266   266   0.0850000   12.0115
  267        OS    1  MOL    O267   267  -0.2850000   15.9994
  268        CT    1  MOL    C268   268   0.1100000   12.0115
  269        CA    1  MOL    C269   269  -0.1150000   12.0115
  270        CA    1  MOL    C270   270  -0.1150000   12.0115
  271        CT    1  MOL    C271   271  -0.1200000   12.0115
  272        HC    1  MOL    H272   272   0.0600000    1.0080
  273        HA    1  MOL    H273   273   0.1150000    1.0080
  274        HA    1  MOL    H274   274   0.1150000    1.0080
  275        HC    1  MOL    H275   275   0.0300000    1.0080
  276        HC    1  MOL    H276   276   0.0300000    1.0080
  277        HC    1  MOL    H277   277   0.0300000    1.0080
  278        HA    1  MOL    H278   278   0.1150000    1.0080
  279        HA    1  MOL    H279   279   0.1150000    1.0080
  280        HC    1  MOL    H280   280   0.0600000    1.0080
  281        HC    1  MOL    H281   281   0.0600000    1.0080
  282        CT    1  MOL    C282   282   0.0550000   12.0115
  283        CA    1  MOL    C283   283  -0.1150000   12.0115
  284        CA    1  MOL    C284   284  -0.1150000   12.0115
  285        CA    1  MOL    C285   285  -0.1150000   12.0115
  286        CA    1  MOL    C286   286   0.0850000   12.0115
  287        OS    1  MOL    O287   287  -0.2850000   15.9994
  288        CT    1  MOL    C288   288   0.1100000   12.0115
  289        CA    1  MOL    C289   289  -0.1150000   12.0115
  290        CA    1  MOL    C290   290  -0.1150000   12.0115
  291        CT    1  MOL    C291   291  -0.1200000   12.0115
  292        HC    1  MOL    H292   292   0.0600000    1.0080
  293        HA    1  MOL    H293   293   0.1150000    1.0080
  294        HA    1  MOL    H294   294   0.1150000    1.0080
  295        HC    1  MOL    H295   295   0.0300000    1.0080
  296        HC    1  MOL    H296   296   0.0300000    1.0080
  297        HC    1  MOL    H297   297   0.0300000    1.0080
  298        HA    1  MOL    H298   298   0.1150000    1.0080
  299        HA    1  MOL    H299   299   0.1150000    1.0080
  300        HC    1  MOL    H300   300   0.0600000    1.0080
  301        HC    1  MOL    H301   301   0.0600000    1.0080
  302        CT    1  MOL    C302   302   0.0550000   12.0115
  303        CA    1  MOL    C303   303  -0.1150000   12.0115
  304        CA    1  MOL    C304   304  -0.1150000   12.0115
  305        CA    1  MOL    C305   305  -0.1150000   12.0115
  306        CA    1  MOL    C306   306   0.0850000   12.0115
  307        OS    1  MOL    O307   307  -0.2850000   15.9994
  308        CT    1  MOL    C308   308   0.1100000   12.0115
  309        CA    1  MOL    C309   309  -0.1150000   12.0115
  310        CA    1  MOL    C310   310  -0.1150000   12.0115
  311        CT    1  MOL    C311   311  -0.1200000   12.0115
  312        HC    1  MOL    H312   312   0.0600000    1.0080
  313        HA    1  MOL    H313   313   0.1150000    1.0080
  314        HA    1  MOL    H314   314   0.1150000    1.0080
  315        HC    1  MOL    H315   315   0.0300000    1.0080
  316        HC    1  MOL    H316   316   0.0300000    1.0080
  317        HC    1  MOL    H317   317   0.0300000    1.0080
  318        HA    1  MOL    H318   318   0.1150000    1.0080
  319        HA    1  MOL    H319   319   0.1150000    1.0080
  320        HC    1  MOL    H320   320   0.0600000    1.0080
  321        HC    1  MOL    H321   321   0.0600000    1.0080
  322        CT    1  MOL    C322   322   0.0550000   12.0115
  323        CA    1  MOL    C323   323  -0.1150000   12.0115
  324        CA    1  MOL    C324   324  -0.1150000   12.0115
  325        CA    1  MOL    C325   325  -0.1150000   12.0115
  326        CA    1  MOL    C326   326   0.0850000   12.0115
  327        OS    1  MOL    O327   327  -0.2850000   15.9994
  328        CT    1  MOL    C328   328   0.1100000   12.0115
  329        CA    1  MOL    C329   329  -0.1150000   12.0115
  330        CA    1  MOL    C330   330  -0.1150000   12.0115
  331        CT    1  MOL    C331   331  -0.1200000   12.0115
  332        HC    1  MOL    H332   332   0.0600000    1.0080
  333        HA    1  MOL    H333   333   0.1150000    1.0080
  334        HA    1  MOL    H334   334   0.1150000    1.0080
  335        HC    1  MOL    H335   335   0.0300000    1.0080
  336        HC    1  MOL    H336   336   0.0300000    1.0080
  337        HC    1  MOL    H337   337   0.0300000    1.0080
  338        HA    1  MOL    H338   338   0.1150000    1.0080
  339        HA    1  MOL    H339   339   0.1150000    1.0080
  340        HC    1  MOL    H340   340   0.0600000    1.0080
  341        HC    1  MOL    H341   341   0.0600000    1.0080
  342        CT    1  MOL    C342   342   0.0550000   12.0115
  343        CA    1  MOL    C343   343  -0.1150000   12.0115
  344        CA    1  MOL    C344   344  -0.1150000   12.0115
  345        CA    1  MOL    C345   345  -0.1150000   12.0115
  346        CA    1  MOL    C346   346   0.0850000   12.0115
  347        OS    1  MOL    O347   347  -0.2850000   15.9994
  348        CT    1  MOL    C348   348   0.1100000   12.0115
  349        CA    1  MOL    C349   349  -0.1150000   12.0115
  350        CA    1  MOL    C350   350  -0.1150000   12.0115
  351        CT    1  MOL    C351   351  -0.1200000   12.0115
  352        HC    1  MOL    H352   352   0.0600000    1.0080
  353        HA    1  MOL    H353   353   0.1150000    1.0080
  354        HA    1  MOL    H354   354   0.1150000    1.0080
  355        HC    1  MOL    H355   355   0.0300000    1.0080
  356        HC    1  MOL    H356   356   0.0300000    1.0080
  357        HC    1  MOL    H357   357   0.0300000    1.0080
  358        HA    1  MOL    H358   358   0.1150000    1.0080
  359        HA    1  MOL    H359   359   0.1150000    1.0080
  360        HC    1  MOL    H360   360   0.0600000    1.0080
  361        HC    1  MOL    H361   361   0.0600000    1.0080
  362        CT    1  MOL    C362   362   0.0550000   12.0115
  363        CA    1  MOL    C363   363  -0.1150000   12.0115
  364        CA    1  MOL    C364   364  -0.1150000   12.0115
  365        CA    1  MOL    C365   365  -0.1150000   12.0115
  366        CA    1  MOL    C366   366   0.0850000   12.0115
  367        OS    1  MOL    O367   367  -0.2850000   15.9994
  368        CT    1  MOL    C368   368   0.1100000   12.0115
  369        CA    1  MOL    C369   369  -0.1150000   12.0115
  370        CA    1  MOL    C370   370  -0.1150000   12.0115
  371        CT    1  MOL    C371   371  -0.1200000   12.0115
  372        HC    1  MOL    H372   372   0.0600000    1.0080
  373        HA    1  MOL    H373   373   0.1150000    1.0080
  374        HA    1  MOL    H374   374   0.1150000    1.0080
  375        HC    1  MOL    H375   375   0.0300000    1.0080
  376        HC    1  MOL    H376   376   0.0300000    1.0080
  377        HC    1  MOL    H377   377   0.0300000    1.0080
  378        HA    1  MOL    H378   378   0.1150000    1.0080
  379        HA    1  MOL    H379   379   0.1150000    1.0080
  380        HC    1  MOL    H380   380   0.0600000    1.0080
  381        HC    1  MOL    H381   381   0.0600000    1.0080
  382        CT    1  MOL    C382   382   0.0550000   12.0115
  383        CA    1  MOL    C383   383  -0.1150000   12.0115
  384        CA    1  MOL    C384   384  -0.1150000   12.0115
  385        CA    1  MOL    C385   385  -0.1150000   12.0115
  386        CA    1  MOL    C386   386   0.0850000   12.0115
  387        OS    1  MOL    O387   387  -0.2850000   15.9994
  388        CT    1  MOL    C388   388   0.1100000   12.0115
  389        CA    1  MOL    C389   389  -0.1150000   12.0115
  390        CA    1  MOL    C390   390  -0.1150000   12.0115
  391        CT    1  MOL    C391   391  -0.1800000   12.0115
  392        HC    1  MOL    H392   392   0.0600000    1.0080
  393        HA    1  MOL    H393   393   0.1150000    1.0080
  394        HA    1  MOL    H394   394   0.1150000    1.0080
  395        HC    1  MOL    H395   395   0.0300000    1.0080
  396        HC    1  MOL    H396   396   0.0300000    1.0080
  397        HC    1  MOL    H397   397   0.0300000    1.0080
  398        HA    1  MOL    H398   398   0.1150000    1.0080
  399        HA    1  MOL    H399   399   0.1150000    1.0080
  400        HC    1  MOL    H400   400   0.0600000    1.0080
  401        HC    1  MOL    H401   401   0.0600000    1.0080
  402        HC    1  MOL    H402   402   0.0600000    1.0080

[ bonds ]
      1      2   1      0.1510 265265.6000
      1     10   1      0.1529 224262.4000
      1     11   1      0.1090 284512.0000
      1     21   1      0.1090 284512.0000
      2      3   1      0.1400 392459.2000
      2      9   1      0.1400 392459.2000
      3      4   1      0.1400 392459.2000
      3     12   1      0.1080 307105.6000
      4      5   1      0.1400 392459.2000
      4     13   1      0.1080 307105.6000
      5      6   1      0.1364 376560.0000
      5      8   1      0.1400 392459.2000
      6      7   1      0.1410 267776.0000
      7     14   1      0.1090 284512.0000
      7     15   1      0.1090 284512.0000
      7     16   1      0.1090 284512.0000
      8      9   1      0.1400 392459.2000
      8     17   1      0.1080 307105.6000
      9     18   1      0.1080 307105.6000
     10     19   1      0.1090 284512.0000
     10     20   1      0.1090 284512.0000
     10     22   1      0.1529 224262.4000
     22     23   1      0.1510 265265.6000
     22     31   1      0.1529 224262.4000
     22     32   1      0.1090 284512.0000
     23     24   1      0.1400 392459.2000
     23     30   1      0.1400 392459.2000
     24     25   1      0.1400 392459.2000
     24     33   1      0.1080 307105.6000
     25     26   1      0.1400 392459.2000
     25     34   1      0.1080 307105.6000
     26     27   1      0.1364 376560.0000
     26     29   1      0.1400 392459.2000
     27     28   1      0.1410 267776.0000
     28     35   1      0.1090 284512.0000
     28     36   1      0.1090 284512.0000
     28     37   1      0.1090 284512.0000
     29     30   1      0.1400 392459.2000
     29     38   1      0.1080 307105.6000
     30     39   1      0.1080 307105.6000
     31     40   1      0.1090 284512.0000
     31     41   1      0.1090 284512.0000
     31     42   1      0.1529 224262.4000
     42     43   1      0.1510 265265.6000
     42     51   1      0.1529 224262.4000
     42     52   1      0.1090 284512.0000
     43     44   1      0.1400 392459.2000
     43     50   1      0.1400 392459.2000
     44     45   1      0.1400 392459.2000
     44     53   1      0.1080 307105.6000
     45     46   1      0.1400 392459.2000
     45     54   1      0.1080 307105.6000
     46     47   1      0.1364 376560.0000
     46     49   1      0.1400 392459.2000
     47     48   1      0.1410 267776.0000
     48     55   1      0.1090 284512.0000
     48     56   1      0.1090 284512.0000
     48     57   1      0.1090 284512.0000
     49     50   1      0.1400 392459.2000
     49     58   1      0.1080 307105.6000
     50     59   1      0.1080 307105.6000
     51     60   1      0.1090 284512.0000
     51     61   1      0.1090 284512.0000
     51     62   1      0.1529 224262.4000
     62     63   1      0.1510 265265.6000
     62     71   1      0.1529 224262.4000
     62     72   1      0.1090 284512.0000
     63     64   1      0.1400 392459.2000
     63     70   1      0.1400 392459.2000
     64     65   1      0.1400 392459.2000
     64     73   1      0.1080 307105.6000
     65     66   1      0.1400 392459.2000
     65     74   1      0.1080 307105.6000
     66     67   1      0.1364 376560.0000
     66     69   1      0.1400 392459.2000
     67     68   1      0.1410 267776.0000
     68     75   1      0.1090 284512.0000
     68     76   1      0.1090 284512.0000
     68     77   1      0.1090 284512.0000
     69     70   1      0.1400 392459.2000
     69     78   1      0.1080 307105.6000
     70     79   1      0.1080 307105.6000
     71     80   1      0.1090 284512.0000
     71     81   1      0.1090 284512.0000
     71     82   1      0.1529 224262.4000
     82     83   1      0.1510 265265.6000
     82     91   1      0.1529 224262.4000
     82     92   1      0.1090 284512.0000
     83     84   1      0.1400 392459.2000
     83     90   1      0.1400 392459.2000
     84     85   1      0.1400 392459.2000
     84     93   1      0.1080 307105.6000
     85     86   1      0.1400 392459.2000
     85     94   1      0.1080 307105.6000
     86     87   1      0.1364 376560.0000
     86     89   1      0.1400 392459.2000
     87     88   1      0.1410 267776.0000
     88     95   1      0.1090 284512.0000
     88     96   1      0.1090 284512.0000
     88     97   1      0.1090 284512.0000
     89     90   1      0.1400 392459.2000
     89     98   1      0.1080 307105.6000
     90     99   1      0.1080 307105.6000
     91    100   1      0.1090 284512.0000
     91    101   1      0.1090 284512.0000
     91    102   1      0.1529 224262.4000
    102    103   1      0.1510 265265.6000
    102    111   1      0.1529 224262.4000
    102    112   1      0.1090 284512.0000
    103    104   1      0.1400 392459.2000
    103    110   1      0.1400 392459.2000
    104    105   1      0.1400 392459.2000
    104    113   1      0.1080 307105.6000
    105    106   1      0.1400 392459.2000
    105    114   1      0.1080 307105.6000
    106    107   1      0.1364 376560.0000
    106    109   1      0.1400 392459.2000
    107    108   1      0.1410 267776.0000
    108    115   1      0.1090 284512.0000
    108    116   1      0.1090 284512.0000
    108    117   1      0.1090 284512.0000
    109    110   1      0.1400 392459.2000
    109    118   1      0.1080 307105.6000
    110    119   1      0.1080 307105.6000
    111    120   1      0.1090 284512.0000
    111    121   1      0.1090 284512.0000
    111    122   1      0.1529 224262.4000
    122    123   1      0.1510 265265.6000
    122    131   1      0.1529 224262.4000
    122    132   1      0.1090 284512.0000
    123    124   1      0.1400 392459.2000
    123    130   1      0.1400 392459.2000
    124    125   1      0.1400 392459.2000
    124    133   1      0.1080 307105.6000
    125    126   1      0.1400 392459.2000
    125    134   1      0.1080 307105.6000
    126    127   1      0.1364 376560.0000
    126    129   1      0.1400 392459.2000
    127    128   1      0.1410 267776.0000
    128    135   1      0.1090 284512.0000
    128    136   1      0.1090 284512.0000
    128    137   1      0.1090 284512.0000
    129    130   1      0.1400 392459.2000
    129    138   1      0.1080 307105.6000
    130    139   1      0.1080 307105.6000
    131    140   1      0.1090 284512.0000
    131    141   1      0.1090 284512.0000
    131    142   1      0.1529 224262.4000
    142    143   1      0.1510 265265.6000
    142    151   1      0.1529 224262.4000
    142    152   1      0.1090 284512.0000
    143    144   1      0.1400 392459.2000
    143    150   1      0.1400 392459.2000
    144    145   1      0.1400 392459.2000
    144    153   1      0.1080 307105.6000
    145    146   1      0.1400 392459.2000
    145    154   1      0.1080 307105.6000
    146    147   1      0.1364 376560.0000
    146    149   1      0.1400 392459.2000
    147    148   1      0.1410 267776.0000
    148    155   1      0.1090 284512.0000
    148    156   1      0.1090 284512.0000
    148    157   1      0.1090 284512.0000
    149    150   1      0.1400 392459.2000
    149    158   1      0.1080 307105.6000
    150    159   1      0.1080 307105.6000
    151    160   1      0.1090 284512.0000
    151    161   1      0.1090 284512.0000
    151    162   1      0.1529 224262.4000
    162    163   1      0.1510 265265.6000
    162    171   1      0.1529 224262.4000
    162    172   1      0.1090 284512.0000
    163    164   1      0.1400 392459.2000
    163    170   1      0.1400 392459.2000
    164    165   1      0.1400 392459.2000
    164    173   1      0.1080 307105.6000
    165    166   1      0.1400 392459.2000
    165    174   1      0.1080 307105.6000
    166    167   1      0.1364 376560.0000
    166    169   1      0.1400 392459.2000
    167    168   1      0.1410 267776.0000
    168    175   1      0.1090 284512.0000
    168    176   1      0.1090 284512.0000
    168    177   1      0.1090 284512.0000
    169    170   1      0.1400 392459.2000
    169    178   1      0.1080 307105.6000
    170    179   1      0.1080 307105.6000
    171    180   1      0.1090 284512.0000
    171    181   1      0.1090 284512.0000
    171    182   1      0.1529 224262.4000
    182    183   1      0.1510 265265.6000
    182    191   1      0.1529 224262.4000
    182    192   1      0.1090 284512.0000
    183    184   1      0.1400 392459.2000
    183    190   1      0.1400 392459.2000
    184    185   1      0.1400 392459.2000
    184    193   1      0.1080 307105.6000
    185    186   1      0.1400 392459.2000
    185    194   1      0.1080 307105.6000
    186    187   1      0.1364 376560.0000
    186    189   1      0.1400 392459.2000
    187    188   1      0.1410 267776.0000
    188    195   1      0.1090 284512.0000
    188    196   1      0.1090 284512.0000
    188    197   1      0.1090 284512.0000
    189    190   1      0.1400 392459.2000
    189    198   1      0.1080 307105.6000
    190    199   1      0.1080 307105.6000
    191    200   1      0.1090 284512.0000
    191    201   1      0.1090 284512.0000
    191    202   1      0.1529 224262.4000
    202    203   1      0.1510 265265.6000
    202    211   1      0.1529 224262.4000
    202    212   1      0.1090 284512.0000
    203    204   1      0.1400 392459.2000
    203    210   1      0.1400 392459.2000
    204    205   1      0.1400 392459.2000
    204    213   1      0.1080 307105.6000
    205    206   1      0.1400 392459.2000
    205    214   1      0.1080 307105.6000
    206    207   1      0.1364 376560.0000
    206    209   1      0.1400 392459.2000
    207    208   1      0.1410 267776.0000
    208    215   1      0.1090 284512.0000
    208    216   1      0.1090 284512.0000
    208    217   1      0.1090 284512.0000
    209    210   1      0.1400 392459.2000
    209    218   1      0.1080 307105.6000
    210    219   1      0.1080 307105.6000
    211    220   1      0.1090 284512.0000
    211    221   1      0.1090 284512.0000
    211    222   1      0.1529 224262.4000
    222    223   1      0.1510 265265.6000
    222    231   1      0.1529 224262.4000
    222    232   1      0.1090 284512.0000
    223    224   1      0.1400 392459.2000
    223    230   1      0.1400 392459.2000
    224    225   1      0.1400 392459.2000
    224    233   1      0.1080 307105.6000
    225    226   1      0.1400 392459.2000
    225    234   1      0.1080 307105.6000
    226    227   1      0.1364 376560.0000
    226    229   1      0.1400 392459.2000
    227    228   1      0.1410 267776.0000
    228    235   1      0.1090 284512.0000
    228    236   1      0.1090 284512.0000
    228    237   1      0.1090 284512.0000
    229    230   1      0.1400 392459.2000
    229    238   1      0.1080 307105.6000
    230    239   1      0.1080 307105.6000
    231    240   1      0.1090 284512.0000
    231    241   1      0.1090 284512.0000
    231    242   1      0.1529 224262.4000
    242    243   1      0.1510 265265.6000
    242    251   1      0.1529 224262.4000
    242    252   1      0.1090 284512.0000
    243    244   1      0.1400 392459.2000
    243    250   1      0.1400 392459.2000
    244    245   1      0.1400 392459.2000
    244    253   1      0.1080 307105.6000
    245    246   1      0.1400 392459.2000
    245    254   1      0.1080 307105.6000
    246    247   1      0.1364 376560.0000
    246    249   1      0.1400 392459.2000
    247    248   1      0.1410 267776.0000
    248    255   1      0.1090 284512.0000
    248    256   1      0.1090 284512.0000
    248    257   1      0.1090 284512.0000
    249    250   1      0.1400 392459.2000
    249    258   1      0.1080 307105.6000
    250    259   1      0.1080 307105.6000
    251    260   1      0.1090 284512.0000
    251    261   1      0.1090 284512.0000
    251    262   1      0.1529 224262.4000
    262    263   1      0.1510 265265.6000
    262    271   1      0.1529 224262.4000
    262    272   1      0.1090 284512.0000
    263    264   1      0.1400 392459.2000
    263    270   1      0.1400 392459.2000
    264    265   1      0.1400 392459.2000
    264    273   1      0.1080 307105.6000
    265    266   1      0.1400 392459.2000
    265    274   1      0.1080 307105.6000
    266    267   1      0.1364 376560.0000
    266    269   1      0.1400 392459.2000
    267    268   1      0.1410 267776.0000
    268    275   1      0.1090 284512.0000
    268    276   1      0.1090 284512.0000
    268    277   1      0.1090 284512.0000
    269    270   1      0.1400 392459.2000
    269    278   1      0.1080 307105.6000
    270    279   1      0.1080 307105.6000
    271    280   1      0.1090 284512.0000
    271    281   1      0.1090 284512.0000
    271    282   1      0.1529 224262.4000
    282    283   1      0.1510 265265.6000
    282    291   1      0.1529 224262.4000
    282    292   1      0.1090 284512.0000
    283    284   1      0.1400 392459.2000
    283    290   1      0.1400 392459.2000
    284    285   1      0.1400 392459.2000
    284    293   1      0.1080 307105.6000
    285    286   1      0.1400 392459.2000
    285    294   1      0.1080 307105.6000
    286    287   1      0.1364 376560.0000
    286    289   1      0.1400 392459.2000
    287    288   1      0.1410 267776.0000
    288    295   1      0.1090 284512.0000
    288    296   1      0.1090 284512.0000
    288    297   1      0.1090 284512.0000
    289    290   1      0.1400 392459.2000
    289    298   1      0.1080 307105.6000
    290    299   1      0.1080 307105.6000
    291    300   1      0.1090 284512.0000
    291    301   1      0.1090 284512.0000
    291    302   1      0.1529 224262.4000
    302    303   1      0.1510 265265.6000
    302    311   1      0.1529 224262.4000
    302    312   1      0.1090 284512.0000
    303    304   1      0.1400 392459.2000
    303    310   1      0.1400 392459.2000
    304    305   1      0.1400 392459.2000
    304    313   1      0.1080 307105.6000
    305    306   1      0.1400 392459.2000
    305    314   1      0.1080 307105.6000
    306    307   1      0.1364 376560.0000
    306    309   1      0.1400 392459.2000
    307    308   1      0.1410 267776.0000
    308    315   1      0.1090 284512.0000
    308    316   1      0.1090 284512.0000
    308    317   1      0.1090 284512.0000
    309    310   1      0.1400 392459.2000
    309    318   1      0.1080 307105.6000
    310    319   1      0.1080 307105.6000
    311    320   1      0.1090 284512.0000
    311    321   1      0.1090 284512.0000
    311    322   1      0.1529 224262.4000
    322    323   1      0.1510 265265.6000
    322    331   1      0.1529 224262.4000
    322    332   1      0.1090 284512.0000
    323    324   1      0.1400 392459.2000
    323    330   1      0.1400 392459.2000
    324    325   1      0.1400 392459.2000
    324    333   1      0.1080 307105.6000
    325    326   1      0.1400 392459.2000
    325    334   1      0.1080 307105.6000
    326    327   1      0.1364 376560.0000
    326    329   1      0.1400 392459.2000
    327    328   1      0.1410 267776.0000
    328    335   1      0.1090 284512.0000
    328    336   1      0.1090 284512.0000
    328    337   1      0.1090 284512.0000
    329    330   1      0.1400 392459.2000
    329    338   1      0.1080 307105.6000
    330    339   1      0.1080 307105.6000
    331    340   1      0.1090 284512.0000
    331    341   1      0.1090 284512.0000
    331    342   1      0.1529 224262.4000
    342    343   1      0.1510 265265.6000
    342    351   1      0.1529 224262.4000
    342    352   1      0.1090 284512.0000
    343    344   1      0.1400 392459.2000
    343    350   1      0.1400 392459.2000
    344    345   1      0.1400 392459.2000
    344    353   1      0.1080 307105.6000
    345    346   1      0.1400 392459.2000
    345    354   1      0.1080 307105.6000
    346    347   1      0.1364 376560.0000
    346    349   1      0.1400 392459.2000
    347    348   1      0.1410 267776.0000
    348    355   1      0.1090 284512.0000
    348    356   1      0.1090 284512.0000
    348    357   1      0.1090 284512.0000
    349    350   1      0.1400 392459.2000
    349    358   1      0.1080 307105.6000
    350    359   1      0.1080 307105.6000
    351    360   1      0.1090 284512.0000
    351    361   1      0.1090 284512.0000
    351    362   1      0.1529 224262.4000
    362    363   1      0.1510 265265.6000
    362    371   1      0.1529 224262.4000
    362    372   1      0.1090 284512.0000
    363    364   1      0.1400 392459.2000
    363    370   1      0.1400 392459.2000
    364    365   1      0.1400 392459.2000
    364    373   1      0.1080 307105.6000
    365    366   1      0.1400 392459.2000
    365    374   1      0.1080 307105.6000
    366    367   1      0.1364 376560.0000
    366    369   1      0.1400 392459.2000
    367    368   1      0.1410 267776.0000
    368    375   1      0.1090 284512.0000
    368    376   1      0.1090 284512.0000
    368    377   1      0.1090 284512.0000
    369    370   1      0.1400 392459.2000
    369    378   1      0.1080 307105.6000
    370    379   1      0.1080 307105.6000
    371    380   1      0.1090 284512.0000
    371    381   1      0.1090 284512.0000
    371    382   1      0.1529 224262.4000
    382    383   1      0.1510 265265.6000
    382    391   1      0.1529 224262.4000
    382    392   1      0.1090 284512.0000
    383    384   1      0.1400 392459.2000
    383    390   1      0.1400 392459.2000
    384    385   1      0.1400 392459.2000
    384    393   1      0.1080 307105.6000
    385    386   1      0.1400 392459.2000
    385    394   1      0.1080 307105.6000
    386    387   1      0.1364 376560.0000
    386    389   1      0.1400 392459.2000
    387    388   1      0.1410 267776.0000
    388    395   1      0.1090 284512.0000
    388    396   1      0.1090 284512.0000
    388    397   1      0.1090 284512.0000
    389    390   1      0.1400 392459.2000
    389    398   1      0.1080 307105.6000
    390    399   1      0.1080 307105.6000
    391    400   1      0.1090 284512.0000
    391    401   1      0.1090 284512.0000
    391    402   1      0.1090 284512.0000

[ pairs ]
; ai   aj   funct   fudge_QQ  charge_i   charge_j   c6    c12
     10      3   2   0.50000    -0.1200000   -0.1150000   1.091018e-03  2.092768e-06
     10      9   2   0.50000    -0.1200000   -0.1150000   1.091018e-03  2.092768e-06
     11      3   2   0.50000     0.0600000   -0.1150000   2.680627e-04  1.873879e-07
     11      9   2   0.50000     0.0600000   -0.1150000   2.680627e-04  1.873879e-07
     21      3   2   0.50000     0.0600000   -0.1150000   2.680627e-04  1.873879e-07
     21      9   2   0.50000     0.0600000   -0.1150000   2.680627e-04  1.873879e-07
      2     19   2   0.50000    -0.1150000    0.0600000   2.680627e-04  1.873879e-07
      2     20   2   0.50000    -0.1150000    0.0600000   2.680627e-04  1.873879e-07
      2     22   2   0.50000    -0.1150000    0.0550000   1.091018e-03  2.092768e-06
     11     19   2   0.50000     0.0600000    0.0600000   6.128906e-05  1.496315e-08
     11     20   2   0.50000     0.0600000    0.0600000   6.128906e-05  1.496315e-08
     11     22   2   0.50000     0.0600000    0.0550000   2.494471e-04  1.671101e-07
     21     19   2   0.50000     0.0600000    0.0600000   6.128906e-05  1.496315e-08
     21     20   2   0.50000     0.0600000    0.0600000   6.128906e-05  1.496315e-08
     21     22   2   0.50000     0.0600000    0.0550000   2.494471e-04  1.671101e-07
      1      4   2   0.50000    -0.0050000   -0.1150000   1.091018e-03  2.092768e-06
      1     12   2   0.50000    -0.0050000    0.1150000   2.262583e-04  1.374848e-07
      9      4   2   0.50000    -0.1150000   -0.1150000   1.172438e-03  2.346713e-06
      9     12   2   0.50000    -0.1150000    0.1150000   2.431434e-04  1.541678e-07
      1      8   2   0.50000    -0.0050000   -0.1150000   1.091018e-03  2.092768e-06
      1     18   2   0.50000    -0.0050000    0.1150000   2.262583e-04  1.374848e-07
      3      8   2   0.50000    -0.1150000   -0.1150000   1.172438e-03  2.346713e-06
      3     18   2   0.50000    -0.1150000    0.1150000   2.431434e-04  1.541678e-07
      2      5   2   0.50000    -0.1150000    0.0850000   1.172438e-03  2.346713e-06
      2     13   2   0.50000    -0.1150000    0.1150000   2.431434e-04  1.541678e-07
     12      5   2   0.50000     0.1150000    0.0850000   2.431434e-04  1.541678e-07
     12     13   2   0.50000     0.1150000    0.1150000   5.042375e-05  1.012808e-08
      3      6   2   0.50000    -0.1150000   -0.2850000   9.038862e-04  9.862632e-07
     13      6   2   0.50000     0.1150000   -0.2850000   1.874504e-04  6.479276e-08
     13      8   2   0.50000     0.1150000   -0.1150000   2.431434e-04  1.541678e-07
      4      7   2   0.50000    -0.1150000    0.1100000   1.091018e-03  2.092768e-06
      8      7   2   0.50000    -0.1150000    0.1100000   1.091018e-03  2.092768e-06
      4     17   2   0.50000    -0.1150000    0.1150000   2.431434e-04  1.541678e-07
      6      9   2   0.50000    -0.2850000   -0.1150000   9.038862e-04  9.862632e-07
      6     17   2   0.50000    -0.2850000    0.1150000   1.874504e-04  6.479276e-08
      5     14   2   0.50000     0.0850000    0.0300000   2.680627e-04  1.873879e-07
      5     15   2   0.50000     0.0850000    0.0300000   2.680627e-04  1.873879e-07
      5     16   2   0.50000     0.0850000    0.0300000   2.680627e-04  1.873879e-07
      5     18   2   0.50000     0.0850000    0.1150000   2.431434e-04  1.541678e-07
     17      2   2   0.50000     0.1150000   -0.1150000   2.431434e-04  1.541678e-07
     17     18   2   0.50000     0.1150000    0.1150000   5.042375e-05  1.012808e-08
      1     23   2   0.50000    -0.0050000   -0.1150000   1.091018e-03  2.092768e-06
      1     31   2   0.50000    -0.0050000   -0.1200000   1.015252e-03  1.866303e-06
      1     32   2   0.50000    -0.0050000    0.0600000   2.494471e-04  1.671101e-07
     19     23   2   0.50000     0.0600000   -0.1150000   2.680627e-04  1.873879e-07
     19     31   2   0.50000     0.0600000   -0.1200000   2.494471e-04  1.671101e-07
     19     32   2   0.50000     0.0600000    0.0600000   6.128906e-05  1.496315e-08
     20     23   2   0.50000     0.0600000   -0.1150000   2.680627e-04  1.873879e-07
     20     31   2   0.50000     0.0600000   -0.1200000   2.494471e-04  1.671101e-07
     20     32   2   0.50000     0.0600000    0.0600000   6.128906e-05  1.496315e-08
     10     24   2   0.50000    -0.1200000   -0.1150000   1.091018e-03  2.092768e-06
     10     30   2   0.50000    -0.1200000   -0.1150000   1.091018e-03  2.092768e-06
     31     24   2   0.50000    -0.1200000   -0.1150000   1.091018e-03  2.092768e-06
     31     30   2   0.50000    -0.1200000   -0.1150000   1.091018e-03  2.092768e-06
     32     24   2   0.50000     0.0600000   -0.1150000   2.680627e-04  1.873879e-07
     32     30   2   0.50000     0.0600000   -0.1150000   2.680627e-04  1.873879e-07
     10     40   2   0.50000    -0.1200000    0.0600000   2.494471e-04  1.671101e-07
     10     41   2   0.50000    -0.1200000    0.0600000   2.494471e-04  1.671101e-07
     10     42   2   0.50000    -0.1200000    0.0550000   1.015252e-03  1.866303e-06
     23     40   2   0.50000    -0.1150000    0.0600000   2.680627e-04  1.873879e-07
     23     41   2   0.50000    -0.1150000    0.0600000   2.680627e-04  1.873879e-07
     23     42   2   0.50000    -0.1150000    0.0550000   1.091018e-03  2.092768e-06
     32     40   2   0.50000     0.0600000    0.0600000   6.128906e-05  1.496315e-08
     32     41   2   0.50000     0.0600000    0.0600000   6.128906e-05  1.496315e-08
     32     42   2   0.50000     0.0600000    0.0550000   2.494471e-04  1.671101e-07
     22     25   2   0.50000     0.0550000   -0.1150000   1.091018e-03  2.092768e-06
     22     33   2   0.50000     0.0550000    0.1150000   2.262583e-04  1.374848e-07
     30     25   2   0.50000    -0.1150000   -0.1150000   1.172438e-03  2.346713e-06
     30     33   2   0.50000    -0.1150000    0.1150000   2.431434e-04  1.541678e-07
     22     29   2   0.50000     0.0550000   -0.1150000   1.091018e-03  2.092768e-06
     22     39   2   0.50000     0.0550000    0.1150000   2.262583e-04  1.374848e-07
     24     29   2   0.50000    -0.1150000   -0.1150000   1.172438e-03  2.346713e-06
     24     39   2   0.50000    -0.1150000    0.1150000   2.431434e-04  1.541678e-07
     23     26   2   0.50000    -0.1150000    0.0850000   1.172438e-03  2.346713e-06
     23     34   2   0.50000    -0.1150000    0.1150000   2.431434e-04  1.541678e-07
     33     26   2   0.50000     0.1150000    0.0850000   2.431434e-04  1.541678e-07
     33     34   2   0.50000     0.1150000    0.1150000   5.042375e-05  1.012808e-08
     24     27   2   0.50000    -0.1150000   -0.2850000   9.038862e-04  9.862632e-07
     34     27   2   0.50000     0.1150000   -0.2850000   1.874504e-04  6.479276e-08
     34     29   2   0.50000     0.1150000   -0.1150000   2.431434e-04  1.541678e-07
     25     28   2   0.50000    -0.1150000    0.1100000   1.091018e-03  2.092768e-06
     29     28   2   0.50000    -0.1150000    0.1100000   1.091018e-03  2.092768e-06
     25     38   2   0.50000    -0.1150000    0.1150000   2.431434e-04  1.541678e-07
     27     30   2   0.50000    -0.2850000   -0.1150000   9.038862e-04  9.862632e-07
     27     38   2   0.50000    -0.2850000    0.1150000   1.874504e-04  6.479276e-08
     26     35   2   0.50000     0.0850000    0.0300000   2.680627e-04  1.873879e-07
     26     36   2   0.50000     0.0850000    0.0300000   2.680627e-04  1.873879e-07
     26     37   2   0.50000     0.0850000    0.0300000   2.680627e-04  1.873879e-07
     26     39   2   0.50000     0.0850000    0.1150000   2.431434e-04  1.541678e-07
     38     23   2   0.50000     0.1150000   -0.1150000   2.431434e-04  1.541678e-07
     38     39   2   0.50000     0.1150000    0.1150000   5.042375e-05  1.012808e-08
     22     43   2   0.50000     0.0550000   -0.1150000   1.091018e-03  2.092768e-06
     22     51   2   0.50000     0.0550000   -0.1200000   1.015252e-03  1.866303e-06
     22     52   2   0.50000     0.0550000    0.0600000   2.494471e-04  1.671101e-07
     40     43   2   0.50000     0.0600000   -0.1150000   2.680627e-04  1.873879e-07
     40     51   2   0.50000     0.0600000   -0.1200000   2.494471e-04  1.671101e-07
     40     52   2   0.50000     0.0600000    0.0600000   6.128906e-05  1.496315e-08
     41     43   2   0.50000     0.0600000   -0.1150000   2.680627e-04  1.873879e-07
     41     51   2   0.50000     0.0600000   -0.1200000   2.494471e-04  1.671101e-07
     41     52   2   0.50000     0.0600000    0.0600000   6.128906e-05  1.496315e-08
     31     44   2   0.50000    -0.1200000   -0.1150000   1.091018e-03  2.092768e-06
     31     50   2   0.50000    -0.1200000   -0.1150000   1.091018e-03  2.092768e-06
     51     44   2   0.50000    -0.1200000   -0.1150000   1.091018e-03  2.092768e-06
     51     50   2   0.50000    -0.1200000   -0.1150000   1.091018e-03  2.092768e-06
     52     44   2   0.50000     0.0600000   -0.1150000   2.680627e-04  1.873879e-07
     52     50   2   0.50000     0.0600000   -0.1150000   2.680627e-04  1.873879e-07
     31     60   2   0.50000    -0.1200000    0.0600000   2.494471e-04  1.671101e-07
     31     61   2   0.50000    -0.1200000    0.0600000   2.494471e-04  1.671101e-07
     31     62   2   0.50000    -0.1200000    0.0550000   1.015252e-03  1.866303e-06
     43     60   2   0.50000    -0.1150000    0.0600000   2.680627e-04  1.873879e-07
     43     61   2   0.50000    -0.1150000    0.0600000   2.680627e-04  1.873879e-07
     43     62   2   0.50000    -0.1150000    0.0550000   1.091018e-03  2.092768e-06
     52     60   2   0.50000     0.0600000    0.0600000   6.128906e-05  1.496315e-08
     52     61   2   0.50000     0.0600000    0.0600000   6.128906e-05  1.496315e-08
     52     62   2   0.50000     0.0600000    0.0550000   2.494471e-04  1.671101e-07
     42     45   2   0.50000     0.0550000   -0.1150000   1.091018e-03  2.092768e-06
     42     53   2   0.50000     0.0550000    0.1150000   2.262583e-04  1.374848e-07
     50     45   2   0.50000    -0.1150000   -0.1150000   1.172438e-03  2.346713e-06
     50     53   2   0.50000    -0.1150000    0.1150000   2.431434e-04  1.541678e-07
     42     49   2   0.50000     0.0550000   -0.1150000   1.091018e-03  2.092768e-06
     42     59   2   0.50000     0.0550000    0.1150000   2.262583e-04  1.374848e-07
     44     49   2   0.50000    -0.1150000   -0.1150000   1.172438e-03  2.346713e-06
     44     59   2   0.50000    -0.1150000    0.1150000   2.431434e-04  1.541678e-07
     43     46   2   0.50000    -0.1150000    0.0850000   1.172438e-03  2.346713e-06
     43     54   2   0.50000    -0.1150000    0.1150000   2.431434e-04  1.541678e-07
     53     46   2   0.50000     0.1150000    0.0850000   2.431434e-04  1.541678e-07
     53     54   2   0.50000     0.1150000    0.1150000   5.042375e-05  1.012808e-08
     44     47   2   0.50000    -0.1150000   -0.2850000   9.038862e-04  9.862632e-07
     54     47   2   0.50000     0.1150000   -0.2850000   1.874504e-04  6.479276e-08
     54     49   2   0.50000     0.1150000   -0.1150000   2.431434e-04  1.541678e-07
     45     48   2   0.50000    -0.1150000    0.1100000   1.091018e-03  2.092768e-06
     49     48   2   0.50000    -0.1150000    0.1100000   1.091018e-03  2.092768e-06
     45     58   2   0.50000    -0.1150000    0.1150000   2.431434e-04  1.541678e-07
     47     50   2   0.50000    -0.2850000   -0.1150000   9.038862e-04  9.862632e-07
     47     58   2   0.50000    -0.2850000    0.1150000   1.874504e-04  6.479276e-08
     46     55   2   0.50000     0.0850000    0.0300000   2.680627e-04  1.873879e-07
     46     56   2   0.50000     0.0850000    0.0300000   2.680627e-04  1.873879e-07
     46     57   2   0.50000     0.0850000    0.0300000   2.680627e-04  1.873879e-07
     46     59   2   0.50000     0.0850000    0.1150000   2.431434e-04  1.541678e-07
     58     43   2   0.50000     0.1150000   -0.1150000   2.431434e-04  1.541678e-07
     58     59   2   0.50000     0.1150000    0.1150000   5.042375e-05  1.012808e-08
     42     63   2   0.50000     0.0550000   -0.1150000   1.091018e-03  2.092768e-06
     42     71   2   0.50000     0.0550000   -0.1200000   1.015252e-03  1.866303e-06
     42     72   2   0.50000     0.0550000    0.0600000   2.494471e-04  1.671101e-07
     60     63   2   0.50000     0.0600000   -0.1150000   2.680627e-04  1.873879e-07
     60     71   2   0.50000     0.0600000   -0.1200000   2.494471e-04  1.671101e-07
     60     72   2   0.50000     0.0600000    0.0600000   6.128906e-05  1.496315e-08
     61     63   2   0.50000     0.0600000   -0.1150000   2.680627e-04  1.873879e-07
     61     71   2   0.50000     0.0600000   -0.1200000   2.494471e-04  1.671101e-07
     61     72   2   0.50000     0.0600000    0.0600000   6.128906e-05  1.496315e-08
     51     64   2   0.50000    -0.1200000   -0.1150000   1.091018e-03  2.092768e-06
     51     70   2   0.50000    -0.1200000   -0.1150000   1.091018e-03  2.092768e-06
     71     64   2   0.50000    -0.1200000   -0.1150000   1.091018e-03  2.092768e-06
     71     70   2   0.50000    -0.1200000   -0.1150000   1.091018e-03  2.092768e-06
     72     64   2   0.50000     0.0600000   -0.1150000   2.680627e-04  1.873879e-07
     72     70   2   0.50000     0.0600000   -0.1150000   2.680627e-04  1.873879e-07
     51     80   2   0.50000    -0.1200000    0.0600000   2.494471e-04  1.671101e-07
     51     81   2   0.50000    -0.1200000    0.0600000   2.494471e-04  1.671101e-07
     51     82   2   0.50000    -0.1200000    0.0550000   1.015252e-03  1.866303e-06
     63     80   2   0.50000    -0.1150000    0.0600000   2.680627e-04  1.873879e-07
     63     81   2   0.50000    -0.1150000    0.0600000   2.680627e-04  1.873879e-07
     63     82   2   0.50000    -0.1150000    0.0550000   1.091018e-03  2.092768e-06
     72     80   2   0.50000     0.0600000    0.0600000   6.128906e-05  1.496315e-08
     72     81   2   0.50000     0.0600000    0.0600000   6.128906e-05  1.496315e-08
     72     82   2   0.50000     0.0600000    0.0550000   2.494471e-04  1.671101e-07
     62     65   2   0.50000     0.0550000   -0.1150000   1.091018e-03  2.092768e-06
     62     73   2   0.50000     0.0550000    0.1150000   2.262583e-04  1.374848e-07
     70     65   2   0.50000    -0.1150000   -0.1150000   1.172438e-03  2.346713e-06
     70     73   2   0.50000    -0.1150000    0.1150000   2.431434e-04  1.541678e-07
     62     69   2   0.50000     0.0550000   -0.1150000   1.091018e-03  2.092768e-06
     62     79   2   0.50000     0.0550000    0.1150000   2.262583e-04  1.374848e-07
     64     69   2   0.50000    -0.1150000   -0.1150000   1.172438e-03  2.346713e-06
     64     79   2   0.50000    -0.1150000    0.1150000   2.431434e-04  1.541678e-07
     63     66   2   0.50000    -0.1150000    0.0850000   1.172438e-03  2.346713e-06
     63     74   2   0.50000    -0.1150000    0.1150000   2.431434e-04  1.541678e-07
     73     66   2   0.50000     0.1150000    0.0850000   2.431434e-04  1.541678e-07
     73     74   2   0.50000     0.1150000    0.1150000   5.042375e-05  1.012808e-08
     64     67   2   0.50000    -0.1150000   -0.2850000   9.038862e-04  9.862632e-07
     74     67   2   0.50000     0.1150000   -0.2850000   1.874504e-04  6.479276e-08
     74     69   2   0.50000     0.1150000   -0.1150000   2.431434e-04  1.541678e-07
     65     68   2   0.50000    -0.1150000    0.1100000   1.091018e-03  2.092768e-06
     69     68   2   0.50000    -0.1150000    0.1100000   1.091018e-03  2.092768e-06
     65     78   2   0.50000    -0.1150000    0.1150000   2.431434e-04  1.541678e-07
     67     70   2   0.50000    -0.2850000   -0.1150000   9.038862e-04  9.862632e-07
     67     78   2   0.50000    -0.2850000    0.1150000   1.874504e-04  6.479276e-08
     66     75   2   0.50000     0.0850000    0.0300000   2.680627e-04  1.873879e-07
     66     76   2   0.50000     0.0850000    0.0300000   2.680627e-04  1.873879e-07
     66     77   2   0.50000     0.0850000    0.0300000   2.680627e-04  1.873879e-07
     66     79   2   0.50000     0.0850000    0.1150000   2.431434e-04  1.541678e-07
     78     63   2   0.50000     0.1150000   -0.1150000   2.431434e-04  1.541678e-07
     78     79   2   0.50000     0.1150000    0.1150000   5.042375e-05  1.012808e-08
     62     83   2   0.50000     0.0550000   -0.1150000   1.091018e-03  2.092768e-06
     62     91   2   0.50000     0.0550000   -0.1200000   1.015252e-03  1.866303e-06
     62     92   2   0.50000     0.0550000    0.0600000   2.494471e-04  1.671101e-07
     80     83   2   0.50000     0.0600000   -0.1150000   2.680627e-04  1.873879e-07
     80     91   2   0.50000     0.0600000   -0.1200000   2.494471e-04  1.671101e-07
     80     92   2   0.50000     0.0600000    0.0600000   6.128906e-05  1.496315e-08
     81     83   2   0.50000     0.0600000   -0.1150000   2.680627e-04  1.873879e-07
     81     91   2   0.50000     0.0600000   -0.1200000   2.494471e-04  1.671101e-07
     81     92   2   0.50000     0.0600000    0.0600000   6.128906e-05  1.496315e-08
     71     84   2   0.50000    -0.1200000   -0.1150000   1.091018e-03  2.092768e-06
     71     90   2   0.50000    -0.1200000   -0.1150000   1.091018e-03  2.092768e-06
     91     84   2   0.50000    -0.1200000   -0.1150000   1.091018e-03  2.092768e-06
     91     90   2   0.50000    -0.1200000   -0.1150000   1.091018e-03  2.092768e-06
     92     84   2   0.50000     0.0600000   -0.1150000   2.680627e-04  1.873879e-07
     92     90   2   0.50000     0.0600000   -0.1150000   2.680627e-04  1.873879e-07
     71    100   2   0.50000    -0.1200000    0.0600000   2.494471e-04  1.671101e-07
     71    101   2   0.50000    -0.1200000    0.0600000   2.494471e-04  1.671101e-07
     71    102   2   0.50000    -0.1200000    0.0550000   1.015252e-03  1.866303e-06
     83    100   2   0.50000    -0.1150000    0.0600000   2.680627e-04  1.873879e-07
     83    101   2   0.50000    -0.1150000    0.0600000   2.680627e-04  1.873879e-07
     83    102   2   0.50000    -0.1150000    0.0550000   1.091018e-03  2.092768e-06
     92    100   2   0.50000     0.0600000    0.0600000   6.128906e-05  1.496315e-08
     92    101   2   0.50000     0.0600000    0.0600000   6.128906e-05  1.496315e-08
     92    102   2   0.50000     0.0600000    0.0550000   2.494471e-04  1.671101e-07
     82     85   2   0.50000     0.0550000   -0.1150000   1.091018e-03  2.092768e-06
     82     93   2   0.50000     0.0550000    0.1150000   2.262583e-04  1.374848e-07
     90     85   2   0.50000    -0.1150000   -0.1150000   1.172438e-03  2.346713e-06
     90     93   2   0.50000    -0.1150000    0.1150000   2.431434e-04  1.541678e-07
     82     89   2   0.50000     0.0550000   -0.1150000   1.091018e-03  2.092768e-06
     82     99   2   0.50000     0.0550000    0.1150000   2.262583e-04  1.374848e-07
     84     89   2   0.50000    -0.1150000   -0.1150000   1.172438e-03  2.346713e-06
     84     99   2   0.50000    -0.1150000    0.1150000   2.431434e-04  1.541678e-07
     83     86   2   0.50000    -0.1150000    0.0850000   1.172438e-03  2.346713e-06
     83     94   2   0.50000    -0.1150000    0.1150000   2.431434e-04  1.541678e-07
     93     86   2   0.50000     0.1150000    0.0850000   2.431434e-04  1.541678e-07
     93     94   2   0.50000     0.1150000    0.1150000   5.042375e-05  1.012808e-08
     84     87   2   0.50000    -0.1150000   -0.2850000   9.038862e-04  9.862632e-07
     94     87   2   0.50000     0.1150000   -0.2850000   1.874504e-04  6.479276e-08
     94     89   2   0.50000     0.1150000   -0.1150000   2.431434e-04  1.541678e-07
     85     88   2   0.50000    -0.1150000    0.1100000   1.091018e-03  2.092768e-06
     89     88   2   0.50000    -0.1150000    0.1100000   1.091018e-03  2.092768e-06
     85     98   2   0.50000    -0.1150000    0.1150000   2.431434e-04  1.541678e-07
     87     90   2   0.50000    -0.2850000   -0.1150000   9.038862e-04  9.862632e-07
     87     98   2   0.50000    -0.2850000    0.1150000   1.874504e-04  6.479276e-08
     86     95   2   0.50000     0.0850000    0.0300000   2.680627e-04  1.873879e-07
     86     96   2   0.50000     0.0850000    0.0300000   2.680627e-04  1.873879e-07
     86     97   2   0.50000     0.0850000    0.0300000   2.680627e-04  1.873879e-07
     86     99   2   0.50000     0.0850000    0.1150000   2.431434e-04  1.541678e-07
     98     83   2   0.50000     0.1150000   -0.1150000   2.431434e-04  1.541678e-07
     98     99   2   0.50000     0.1150000    0.1150000   5.042375e-05  1.012808e-08
     82    103   2   0.50000     0.0550000   -0.1150000   1.091018e-03  2.092768e-06
     82    111   2   0.50000     0.0550000   -0.1200000   1.015252e-03  1.866303e-06
     82    112   2   0.50000     0.0550000    0.0600000   2.494471e-04  1.671101e-07
    100    103   2   0.50000     0.0600000   -0.1150000   2.680627e-04  1.873879e-07
    100    111   2   0.50000     0.0600000   -0.1200000   2.494471e-04  1.671101e-07
    100    112   2   0.50000     0.0600000    0.0600000   6.128906e-05  1.496315e-08
    101    103   2   0.50000     0.0600000   -0.1150000   2.680627e-04  1.873879e-07
    101    111   2   0.50000     0.0600000   -0.1200000   2.494471e-04  1.671101e-07
    101    112   2   0.50000     0.0600000    0.0600000   6.128906e-05  1.496315e-08
     91    104   2   0.50000    -0.1200000   -0.1150000   1.091018e-03  2.092768e-06
     91    110   2   0.50000    -0.1200000   -0.1150000   1.091018e-03  2.092768e-06
    111    104   2   0.50000    -0.1200000   -0.1150000   1.091018e-03  2.092768e-06
    111    110   2   0.50000    -0.1200000   -0.1150000   1.091018e-03  2.092768e-06
    112    104   2   0.50000     0.0600000   -0.1150000   2.680627e-04  1.873879e-07
    112    110   2   0.50000     0.0600000   -0.1150000   2.680627e-04  1.873879e-07
     91    120   2   0.50000    -0.1200000    0.0600000   2.494471e-04  1.671101e-07
     91    121   2   0.50000    -0.1200000    0.0600000   2.494471e-04  1.671101e-07
     91    122   2   0.50000    -0.1200000    0.0550000   1.015252e-03  1.866303e-06
    103    120   2   0.50000    -0.1150000    0.0600000   2.680627e-04  1.873879e-07
    103    121   2   0.50000    -0.1150000    0.0600000   2.680627e-04  1.873879e-07
    103    122   2   0.50000    -0.1150000    0.0550000   1.091018e-03  2.092768e-06
    112    120   2   0.50000     0.0600000    0.0600000   6.128906e-05  1.496315e-08
    112    121   2   0.50000     0.0600000    0.0600000   6.128906e-05  1.496315e-08
    112    122   2   0.50000     0.0600000    0.0550000   2.494471e-04  1.671101e-07
    102    105   2   0.50000     0.0550000   -0.1150000   1.091018e-03  2.092768e-06
    102    113   2   0.50000     0.0550000    0.1150000   2.262583e-04  1.374848e-07
    110    105   2   0.50000    -0.1150000   -0.1150000   1.172438e-03  2.346713e-06
    110    113   2   0.50000    -0.1150000    0.1150000   2.431434e-04  1.541678e-07
    102    109   2   0.50000     0.0550000   -0.1150000   1.091018e-03  2.092768e-06
    102    119   2   0.50000     0.0550000    0.1150000   2.262583e-04  1.374848e-07
    104    109   2   0.50000    -0.1150000   -0.1150000   1.172438e-03  2.346713e-06
    104    119   2   0.50000    -0.1150000    0.1150000   2.431434e-04  1.541678e-07
    103    106   2   0.50000    -0.1150000    0.0850000   1.172438e-03  2.346713e-06
    103    114   2   0.50000    -0.1150000    0.1150000   2.431434e-04  1.541678e-07
    113    106   2   0.50000     0.1150000    0.0850000   2.431434e-04  1.541678e-07
    113    114   2   0.50000     0.1150000    0.1150000   5.042375e-05  1.012808e-08
    104    107   2   0.50000    -0.1150000   -0.2850000   9.038862e-04  9.862632e-07
    114    107   2   0.50000     0.1150000   -0.2850000   1.874504e-04  6.479276e-08
    114    109   2   0.50000     0.1150000   -0.1150000   2.431434e-04  1.541678e-07
    105    108   2   0.50000    -0.1150000    0.1100000   1.091018e-03  2.092768e-06
    109    108   2   0.50000    -0.1150000    0.1100000   1.091018e-03  2.092768e-06
    105    118   2   0.50000    -0.1150000    0.1150000   2.431434e-04  1.541678e-07
    107    110   2   0.50000    -0.2850000   -0.1150000   9.038862e-04  9.862632e-07
    107    118   2   0.50000    -0.2850000    0.1150000   1.874504e-04  6.479276e-08
    106    115   2   0.50000     0.0850000    0.0300000   2.680627e-04  1.873879e-07
    106    116   2   0.50000     0.0850000    0.0300000   2.680627e-04  1.873879e-07
    106    117   2   0.50000     0.0850000    0.0300000   2.680627e-04  1.873879e-07
    106    119   2   0.50000     0.0850000    0.1150000   2.431434e-04  1.541678e-07
    118    103   2   0.50000     0.1150000   -0.1150000   2.431434e-04  1.541678e-07
    118    119   2   0.50000     0.1150000    0.1150000   5.042375e-05  1.012808e-08
    102    123   2   0.50000     0.0550000   -0.1150000   1.091018e-03  2.092768e-06
    102    131   2   0.50000     0.0550000   -0.1200000   1.015252e-03  1.866303e-06
    102    132   2   0.50000     0.0550000    0.0600000   2.494471e-04  1.671101e-07
    120    123   2   0.50000     0.0600000   -0.1150000   2.680627e-04  1.873879e-07
    120    131   2   0.50000     0.0600000   -0.1200000   2.494471e-04  1.671101e-07
    120    132   2   0.50000     0.0600000    0.0600000   6.128906e-05  1.496315e-08
    121    123   2   0.50000     0.0600000   -0.1150000   2.680627e-04  1.873879e-07
    121    131   2   0.50000     0.0600000   -0.1200000   2.494471e-04  1.671101e-07
    121    132   2   0.50000     0.0600000    0.0600000   6.128906e-05  1.496315e-08
    111    124   2   0.50000    -0.1200000   -0.1150000   1.091018e-03  2.092768e-06
    111    130   2   0.50000    -0.1200000   -0.1150000   1.091018e-03  2.092768e-06
    131    124   2   0.50000    -0.1200000   -0.1150000   1.091018e-03  2.092768e-06
    131    130   2   0.50000    -0.1200000   -0.1150000   1.091018e-03  2.092768e-06
    132    124   2   0.50000     0.0600000   -0.1150000   2.680627e-04  1.873879e-07
    132    130   2   0.50000     0.0600000   -0.1150000   2.680627e-04  1.873879e-07
    111    140   2   0.50000    -0.1200000    0.0600000   2.494471e-04  1.671101e-07
    111    141   2   0.50000    -0.1200000    0.0600000   2.494471e-04  1.671101e-07
    111    142   2   0.50000    -0.1200000    0.0550000   1.015252e-03  1.866303e-06
    123    140   2   0.50000    -0.1150000    0.0600000   2.680627e-04  1.873879e-07
    123    141   2   0.50000    -0.1150000    0.0600000   2.680627e-04  1.873879e-07
    123    142   2   0.50000    -0.1150000    0.0550000   1.091018e-03  2.092768e-06
    132    140   2   0.50000     0.0600000    0.0600000   6.128906e-05  1.496315e-08
    132    141   2   0.50000     0.0600000    0.0600000   6.128906e-05  1.496315e-08
    132    142   2   0.50000     0.0600000    0.0550000   2.494471e-04  1.671101e-07
    122    125   2   0.50000     0.0550000   -0.1150000   1.091018e-03  2.092768e-06
    122    133   2   0.50000     0.0550000    0.1150000   2.262583e-04  1.374848e-07
    130    125   2   0.50000    -0.1150000   -0.1150000   1.172438e-03  2.346713e-06
    130    133   2   0.50000    -0.1150000    0.1150000   2.431434e-04  1.541678e-07
    122    129   2   0.50000     0.0550000   -0.1150000   1.091018e-03  2.092768e-06
    122    139   2   0.50000     0.0550000    0.1150000   2.262583e-04  1.374848e-07
    124    129   2   0.50000    -0.1150000   -0.1150000   1.172438e-03  2.346713e-06
    124    139   2   0.50000    -0.1150000    0.1150000   2.431434e-04  1.541678e-07
    123    126   2   0.50000    -0.1150000    0.0850000   1.172438e-03  2.346713e-06
    123    134   2   0.50000    -0.1150000    0.1150000   2.431434e-04  1.541678e-07
    133    126   2   0.50000     0.1150000    0.0850000   2.431434e-04  1.541678e-07
    133    134   2   0.50000     0.1150000    0.1150000   5.042375e-05  1.012808e-08
    124    127   2   0.50000    -0.1150000   -0.2850000   9.038862e-04  9.862632e-07
    134    127   2   0.50000     0.1150000   -0.2850000   1.874504e-04  6.479276e-08
    134    129   2   0.50000     0.1150000   -0.1150000   2.431434e-04  1.541678e-07
    125    128   2   0.50000    -0.1150000    0.1100000   1.091018e-03  2.092768e-06
    129    128   2   0.50000    -0.1150000    0.1100000   1.091018e-03  2.092768e-06
    125    138   2   0.50000    -0.1150000    0.1150000   2.431434e-04  1.541678e-07
    127    130   2   0.50000    -0.2850000   -0.1150000   9.038862e-04  9.862632e-07
    127    138   2   0.50000    -0.2850000    0.1150000   1.874504e-04  6.479276e-08
    126    135   2   0.50000     0.0850000    0.0300000   2.680627e-04  1.873879e-07
    126    136   2   0.50000     0.0850000    0.0300000   2.680627e-04  1.873879e-07
    126    137   2   0.50000     0.0850000    0.0300000   2.680627e-04  1.873879e-07
    126    139   2   0.50000     0.0850000    0.1150000   2.431434e-04  1.541678e-07
    138    123   2   0.50000     0.1150000   -0.1150000   2.431434e-04  1.541678e-07
    138    139   2   0.50000     0.1150000    0.1150000   5.042375e-05  1.012808e-08
    122    143   2   0.50000     0.0550000   -0.1150000   1.091018e-03  2.092768e-06
    122    151   2   0.50000     0.0550000   -0.1200000   1.015252e-03  1.866303e-06
    122    152   2   0.50000     0.0550000    0.0600000   2.494471e-04  1.671101e-07
    140    143   2   0.50000     0.0600000   -0.1150000   2.680627e-04  1.873879e-07
    140    151   2   0.50000     0.0600000   -0.1200000   2.494471e-04  1.671101e-07
    140    152   2   0.50000     0.0600000    0.0600000   6.128906e-05  1.496315e-08
    141    143   2   0.50000     0.0600000   -0.1150000   2.680627e-04  1.873879e-07
    141    151   2   0.50000     0.0600000   -0.1200000   2.494471e-04  1.671101e-07
    141    152   2   0.50000     0.0600000    0.0600000   6.128906e-05  1.496315e-08
    131    144   2   0.50000    -0.1200000   -0.1150000   1.091018e-03  2.092768e-06
    131    150   2   0.50000    -0.1200000   -0.1150000   1.091018e-03  2.092768e-06
    151    144   2   0.50000    -0.1200000   -0.1150000   1.091018e-03  2.092768e-06
    151    150   2   0.50000    -0.1200000   -0.1150000   1.091018e-03  2.092768e-06
    152    144   2   0.50000     0.0600000   -0.1150000   2.680627e-04  1.873879e-07
    152    150   2   0.50000     0.0600000   -0.1150000   2.680627e-04  1.873879e-07
    131    160   2   0.50000    -0.1200000    0.0600000   2.494471e-04  1.671101e-07
    131    161   2   0.50000    -0.1200000    0.0600000   2.494471e-04  1.671101e-07
    131    162   2   0.50000    -0.1200000    0.0550000   1.015252e-03  1.866303e-06
    143    160   2   0.50000    -0.1150000    0.0600000   2.680627e-04  1.873879e-07
    143    161   2   0.50000    -0.1150000    0.0600000   2.680627e-04  1.873879e-07
    143    162   2   0.50000    -0.1150000    0.0550000   1.091018e-03  2.092768e-06
    152    160   2   0.50000     0.0600000    0.0600000   6.128906e-05  1.496315e-08
    152    161   2   0.50000     0.0600000    0.0600000   6.128906e-05  1.496315e-08
    152    162   2   0.50000     0.0600000    0.0550000   2.494471e-04  1.671101e-07
    142    145   2   0.50000     0.0550000   -0.1150000   1.091018e-03  2.092768e-06
    142    153   2   0.50000     0.0550000    0.1150000   2.262583e-04  1.374848e-07
    150    145   2   0.50000    -0.1150000   -0.1150000   1.172438e-03  2.346713e-06
    150    153   2   0.50000    -0.1150000    0.1150000   2.431434e-04  1.541678e-07
    142    149   2   0.50000     0.0550000   -0.1150000   1.091018e-03  2.092768e-06
    142    159   2   0.50000     0.0550000    0.1150000   2.262583e-04  1.374848e-07
    144    149   2   0.50000    -0.1150000   -0.1150000   1.172438e-03  2.346713e-06
    144    159   2   0.50000    -0.1150000    0.1150000   2.431434e-04  1.541678e-07
    143    146   2   0.50000    -0.1150000    0.0850000   1.172438e-03  2.346713e-06
    143    154   2   0.50000    -0.1150000    0.1150000   2.431434e-04  1.541678e-07
    153    146   2   0.50000     0.1150000    0.0850000   2.431434e-04  1.541678e-07
    153    154   2   0.50000     0.1150000    0.1150000   5.042375e-05  1.012808e-08
    144    147   2   0.50000    -0.1150000   -0.2850000   9.038862e-04  9.862632e-07
    154    147   2   0.50000     0.1150000   -0.2850000   1.874504e-04  6.479276e-08
    154    149   2   0.50000     0.1150000   -0.1150000   2.431434e-04  1.541678e-07
    145    148   2   0.50000    -0.1150000    0.1100000   1.091018e-03  2.092768e-06
    149    148   2   0.50000    -0.1150000    0.1100000   1.091018e-03  2.092768e-06
    145    158   2   0.50000    -0.1150000    0.1150000   2.431434e-04  1.541678e-07
    147    150   2   0.50000    -0.2850000   -0.1150000   9.038862e-04  9.862632e-07
    147    158   2   0.50000    -0.2850000    0.1150000   1.874504e-04  6.479276e-08
    146    155   2   0.50000     0.0850000    0.0300000   2.680627e-04  1.873879e-07
    146    156   2   0.50000     0.0850000    0.0300000   2.680627e-04  1.873879e-07
    146    157   2   0.50000     0.0850000    0.0300000   2.680627e-04  1.873879e-07
    146    159   2   0.50000     0.0850000    0.1150000   2.431434e-04  1.541678e-07
    158    143   2   0.50000     0.1150000   -0.1150000   2.431434e-04  1.541678e-07
    158    159   2   0.50000     0.1150000    0.1150000   5.042375e-05  1.012808e-08
    142    163   2   0.50000     0.0550000   -0.1150000   1.091018e-03  2.092768e-06
    142    171   2   0.50000     0.0550000   -0.1200000   1.015252e-03  1.866303e-06
    142    172   2   0.50000     0.0550000    0.0600000   2.494471e-04  1.671101e-07
    160    163   2   0.50000     0.0600000   -0.1150000   2.680627e-04  1.873879e-07
    160    171   2   0.50000     0.0600000   -0.1200000   2.494471e-04  1.671101e-07
    160    172   2   0.50000     0.0600000    0.0600000   6.128906e-05  1.496315e-08
    161    163   2   0.50000     0.0600000   -0.1150000   2.680627e-04  1.873879e-07
    161    171   2   0.50000     0.0600000   -0.1200000   2.494471e-04  1.671101e-07
    161    172   2   0.50000     0.0600000    0.0600000   6.128906e-05  1.496315e-08
    151    164   2   0.50000    -0.1200000   -0.1150000   1.091018e-03  2.092768e-06
    151    170   2   0.50000    -0.1200000   -0.1150000   1.091018e-03  2.092768e-06
    171    164   2   0.50000    -0.1200000   -0.1150000   1.091018e-03  2.092768e-06
    171    170   2   0.50000    -0.1200000   -0.1150000   1.091018e-03  2.092768e-06
    172    164   2   0.50000     0.0600000   -0.1150000   2.680627e-04  1.873879e-07
    172    170   2   0.50000     0.0600000   -0.1150000   2.680627e-04  1.873879e-07
    151    180   2   0.50000    -0.1200000    0.0600000   2.494471e-04  1.671101e-07
    151    181   2   0.50000    -0.1200000    0.0600000   2.494471e-04  1.671101e-07
    151    182   2   0.50000    -0.1200000    0.0550000   1.015252e-03  1.866303e-06
    163    180   2   0.50000    -0.1150000    0.0600000   2.680627e-04  1.873879e-07
    163    181   2   0.50000    -0.1150000    0.0600000   2.680627e-04  1.873879e-07
    163    182   2   0.50000    -0.1150000    0.0550000   1.091018e-03  2.092768e-06
    172    180   2   0.50000     0.0600000    0.0600000   6.128906e-05  1.496315e-08
    172    181   2   0.50000     0.0600000    0.0600000   6.128906e-05  1.496315e-08
    172    182   2   0.50000     0.0600000    0.0550000   2.494471e-04  1.671101e-07
    162    165   2   0.50000     0.0550000   -0.1150000   1.091018e-03  2.092768e-06
    162    173   2   0.50000     0.0550000    0.1150000   2.262583e-04  1.374848e-07
    170    165   2   0.50000    -0.1150000   -0.1150000   1.172438e-03  2.346713e-06
    170    173   2   0.50000    -0.1150000    0.1150000   2.431434e-04  1.541678e-07
    162    169   2   0.50000     0.0550000   -0.1150000   1.091018e-03  2.092768e-06
    162    179   2   0.50000     0.0550000    0.1150000   2.262583e-04  1.374848e-07
    164    169   2   0.50000    -0.1150000   -0.1150000   1.172438e-03  2.346713e-06
    164    179   2   0.50000    -0.1150000    0.1150000   2.431434e-04  1.541678e-07
    163    166   2   0.50000    -0.1150000    0.0850000   1.172438e-03  2.346713e-06
    163    174   2   0.50000    -0.1150000    0.1150000   2.431434e-04  1.541678e-07
    173    166   2   0.50000     0.1150000    0.0850000   2.431434e-04  1.541678e-07
    173    174   2   0.50000     0.1150000    0.1150000   5.042375e-05  1.012808e-08
    164    167   2   0.50000    -0.1150000   -0.2850000   9.038862e-04  9.862632e-07
    174    167   2   0.50000     0.1150000   -0.2850000   1.874504e-04  6.479276e-08
    174    169   2   0.50000     0.1150000   -0.1150000   2.431434e-04  1.541678e-07
    165    168   2   0.50000    -0.1150000    0.1100000   1.091018e-03  2.092768e-06
    169    168   2   0.50000    -0.1150000    0.1100000   1.091018e-03  2.092768e-06
    165    178   2   0.50000    -0.1150000    0.1150000   2.431434e-04  1.541678e-07
    167    170   2   0.50000    -0.2850000   -0.1150000   9.038862e-04  9.862632e-07
    167    178   2   0.50000    -0.2850000    0.1150000   1.874504e-04  6.479276e-08
    166    175   2   0.50000     0.0850000    0.0300000   2.680627e-04  1.873879e-07
    166    176   2   0.50000     0.0850000    0.0300000   2.680627e-04  1.873879e-07
    166    177   2   0.50000     0.0850000    0.0300000   2.680627e-04  1.873879e-07
    166    179   2   0.50000     0.0850000    0.1150000   2.431434e-04  1.541678e-07
    178    163   2   0.50000     0.1150000   -0.1150000   2.431434e-04  1.541678e-07
    178    179   2   0.50000     0.1150000    0.1150000   5.042375e-05  1.012808e-08
    162    183   2   0.50000     0.0550000   -0.1150000   1.091018e-03  2.092768e-06
    162    191   2   0.50000     0.0550000   -0.1200000   1.015252e-03  1.866303e-06
    162    192   2   0.50000     0.0550000    0.0600000   2.494471e-04  1.671101e-07
    180    183   2   0.50000     0.0600000   -0.1150000   2.680627e-04  1.873879e-07
    180    191   2   0.50000     0.0600000   -0.1200000   2.494471e-04  1.671101e-07
    180    192   2   0.50000     0.0600000    0.0600000   6.128906e-05  1.496315e-08
    181    183   2   0.50000     0.0600000   -0.1150000   2.680627e-04  1.873879e-07
    181    191   2   0.50000     0.0600000   -0.1200000   2.494471e-04  1.671101e-07
    181    192   2   0.50000     0.0600000    0.0600000   6.128906e-05  1.496315e-08
    171    184   2   0.50000    -0.1200000   -0.1150000   1.091018e-03  2.092768e-06
    171    190   2   0.50000    -0.1200000   -0.1150000   1.091018e-03  2.092768e-06
    191    184   2   0.50000    -0.1200000   -0.1150000   1.091018e-03  2.092768e-06
    191    190   2   0.50000    -0.1200000   -0.1150000   1.091018e-03  2.092768e-06
    192    184   2   0.50000     0.0600000   -0.1150000   2.680627e-04  1.873879e-07
    192    190   2   0.50000     0.0600000   -0.1150000   2.680627e-04  1.873879e-07
    171    200   2   0.50000    -0.1200000    0.0600000   2.494471e-04  1.671101e-07
    171    201   2   0.50000    -0.1200000    0.0600000   2.494471e-04  1.671101e-07
    171    202   2   0.50000    -0.1200000    0.0550000   1.015252e-03  1.866303e-06
    183    200   2   0.50000    -0.1150000    0.0600000   2.680627e-04  1.873879e-07
    183    201   2   0.50000    -0.1150000    0.0600000   2.680627e-04  1.873879e-07
    183    202   2   0.50000    -0.1150000    0.0550000   1.091018e-03  2.092768e-06
    192    200   2   0.50000     0.0600000    0.0600000   6.128906e-05  1.496315e-08
    192    201   2   0.50000     0.0600000    0.0600000   6.128906e-05  1.496315e-08
    192    202   2   0.50000     0.0600000    0.0550000   2.494471e-04  1.671101e-07
    182    185   2   0.50000     0.0550000   -0.1150000   1.091018e-03  2.092768e-06
    182    193   2   0.50000     0.0550000    0.1150000   2.262583e-04  1.374848e-07
    190    185   2   0.50000    -0.1150000   -0.1150000   1.172438e-03  2.346713e-06
    190    193   2   0.50000    -0.1150000    0.1150000   2.431434e-04  1.541678e-07
    182    189   2   0.50000     0.0550000   -0.1150000   1.091018e-03  2.092768e-06
    182    199   2   0.50000     0.0550000    0.1150000   2.262583e-04  1.374848e-07
    184    189   2   0.50000    -0.1150000   -0.1150000   1.172438e-03  2.346713e-06
    184    199   2   0.50000    -0.1150000    0.1150000   2.431434e-04  1.541678e-07
    183    186   2   0.50000    -0.1150000    0.0850000   1.172438e-03  2.346713e-06
    183    194   2   0.50000    -0.1150000    0.1150000   2.431434e-04  1.541678e-07
    193    186   2   0.50000     0.1150000    0.0850000   2.431434e-04  1.541678e-07
    193    194   2   0.50000     0.1150000    0.1150000   5.042375e-05  1.012808e-08
    184    187   2   0.50000    -0.1150000   -0.2850000   9.038862e-04  9.862632e-07
    194    187   2   0.50000     0.1150000   -0.2850000   1.874504e-04  6.479276e-08
    194    189   2   0.50000     0.1150000   -0.1150000   2.431434e-04  1.541678e-07
    185    188   2   0.50000    -0.1150000    0.1100000   1.091018e-03  2.092768e-06
    189    188   2   0.50000    -0.1150000    0.1100000   1.091018e-03  2.092768e-06
    185    198   2   0.50000    -0.1150000    0.1150000   2.431434e-04  1.541678e-07
    187    190   2   0.50000    -0.2850000   -0.1150000   9.038862e-04  9.862632e-07
    187    198   2   0.50000    -0.2850000    0.1150000   1.874504e-04  6.479276e-08
    186    195   2   0.50000     0.0850000    0.0300000   2.680627e-04  1.873879e-07
    186    196   2   0.50000     0.0850000    0.0300000   2.680627e-04  1.873879e-07
    186    197   2   0.50000     0.0850000    0.0300000   2.680627e-04  1.873879e-07
    186    199   2   0.50000     0.0850000    0.1150000   2.431434e-04  1.541678e-07
    198    183   2   0.50000     0.1150000   -0.1150000   2.431434e-04  1.541678e-07
    198    199   2   0.50000     0.1150000    0.1150000   5.042375e-05  1.012808e-08
    182    203   2   0.50000     0.0550000   -0.1150000   1.091018e-03  2.092768e-06
    182    211   2   0.50000     0.0550000   -0.1200000   1.015252e-03  1.866303e-06
    182    212   2   0.50000     0.0550000    0.0600000   2.494471e-04  1.671101e-07
    200    203   2   0.50000     0.0600000   -0.1150000   2.680627e-04  1.873879e-07
    200    211   2   0.50000     0.0600000   -0.1200000   2.494471e-04  1.671101e-07
    200    212   2   0.50000     0.0600000    0.0600000   6.128906e-05  1.496315e-08
    201    203   2   0.50000     0.0600000   -0.1150000   2.680627e-04  1.873879e-07
    201    211   2   0.50000     0.0600000   -0.1200000   2.494471e-04  1.671101e-07
    201    212   2   0.50000     0.0600000    0.0600000   6.128906e-05  1.496315e-08
    191    204   2   0.50000    -0.1200000   -0.1150000   1.091018e-03  2.092768e-06
    191    210   2   0.50000    -0.1200000   -0.1150000   1.091018e-03  2.092768e-06
    211    204   2   0.50000    -0.1200000   -0.1150000   1.091018e-03  2.092768e-06
    211    210   2   0.50000    -0.1200000   -0.1150000   1.091018e-03  2.092768e-06
    212    204   2   0.50000     0.0600000   -0.1150000   2.680627e-04  1.873879e-07
    212    210   2   0.50000     0.0600000   -0.1150000   2.680627e-04  1.873879e-07
    191    220   2   0.50000    -0.1200000    0.0600000   2.494471e-04  1.671101e-07
    191    221   2   0.50000    -0.1200000    0.0600000   2.494471e-04  1.671101e-07
    191    222   2   0.50000    -0.1200000    0.0550000   1.015252e-03  1.866303e-06
    203    220   2   0.50000    -0.1150000    0.0600000   2.680627e-04  1.873879e-07
    203    221   2   0.50000    -0.1150000    0.0600000   2.680627e-04  1.873879e-07
    203    222   2   0.50000    -0.1150000    0.0550000   1.091018e-03  2.092768e-06
    212    220   2   0.50000     0.0600000    0.0600000   6.128906e-05  1.496315e-08
    212    221   2   0.50000     0.0600000    0.0600000   6.128906e-05  1.496315e-08
    212    222   2   0.50000     0.0600000    0.0550000   2.494471e-04  1.671101e-07
    202    205   2   0.50000     0.0550000   -0.1150000   1.091018e-03  2.092768e-06
    202    213   2   0.50000     0.0550000    0.1150000   2.262583e-04  1.374848e-07
    210    205   2   0.50000    -0.1150000   -0.1150000   1.172438e-03  2.346713e-06
    210    213   2   0.50000    -0.1150000    0.1150000   2.431434e-04  1.541678e-07
    202    209   2   0.50000     0.0550000   -0.1150000   1.091018e-03  2.092768e-06
    202    219   2   0.50000     0.0550000    0.1150000   2.262583e-04  1.374848e-07
    204    209   2   0.50000    -0.1150000   -0.1150000   1.172438e-03  2.346713e-06
    204    219   2   0.50000    -0.1150000    0.1150000   2.431434e-04  1.541678e-07
    203    206   2   0.50000    -0.1150000    0.0850000   1.172438e-03  2.346713e-06
    203    214   2   0.50000    -0.1150000    0.1150000   2.431434e-04  1.541678e-07
    213    206   2   0.50000     0.1150000    0.0850000   2.431434e-04  1.541678e-07
    213    214   2   0.50000     0.1150000    0.1150000   5.042375e-05  1.012808e-08
    204    207   2   0.50000    -0.1150000   -0.2850000   9.038862e-04  9.862632e-07
    214    207   2   0.50000     0.1150000   -0.2850000   1.874504e-04  6.479276e-08
    214    209   2   0.50000     0.1150000   -0.1150000   2.431434e-04  1.541678e-07
    205    208   2   0.50000    -0.1150000    0.1100000   1.091018e-03  2.092768e-06
    209    208   2   0.50000    -0.1150000    0.1100000   1.091018e-03  2.092768e-06
    205    218   2   0.50000    -0.1150000    0.1150000   2.431434e-04  1.541678e-07
    207    210   2   0.50000    -0.2850000   -0.1150000   9.038862e-04  9.862632e-07
    207    218   2   0.50000    -0.2850000    0.1150000   1.874504e-04  6.479276e-08
    206    215   2   0.50000     0.0850000    0.0300000   2.680627e-04  1.873879e-07
    206    216   2   0.50000     0.0850000    0.0300000   2.680627e-04  1.873879e-07
    206    217   2   0.50000     0.0850000    0.0300000   2.680627e-04  1.873879e-07
    206    219   2   0.50000     0.0850000    0.1150000   2.431434e-04  1.541678e-07
    218    203   2   0.50000     0.1150000   -0.1150000   2.431434e-04  1.541678e-07
    218    219   2   0.50000     0.1150000    0.1150000   5.042375e-05  1.012808e-08
    202    223   2   0.50000     0.0550000   -0.1150000   1.091018e-03  2.092768e-06
    202    231   2   0.50000     0.0550000   -0.1200000   1.015252e-03  1.866303e-06
    202    232   2   0.50000     0.0550000    0.0600000   2.494471e-04  1.671101e-07
    220    223   2   0.50000     0.0600000   -0.1150000   2.680627e-04  1.873879e-07
    220    231   2   0.50000     0.0600000   -0.1200000   2.494471e-04  1.671101e-07
    220    232   2   0.50000     0.0600000    0.0600000   6.128906e-05  1.496315e-08
    221    223   2   0.50000     0.0600000   -0.1150000   2.680627e-04  1.873879e-07
    221    231   2   0.50000     0.0600000   -0.1200000   2.494471e-04  1.671101e-07
    221    232   2   0.50000     0.0600000    0.0600000   6.128906e-05  1.496315e-08
    211    224   2   0.50000    -0.1200000   -0.1150000   1.091018e-03  2.092768e-06
    211    230   2   0.50000    -0.1200000   -0.1150000   1.091018e-03  2.092768e-06
    231    224   2   0.50000    -0.1200000   -0.1150000   1.091018e-03  2.092768e-06
    231    230   2   0.50000    -0.1200000   -0.1150000   1.091018e-03  2.092768e-06
    232    224   2   0.50000     0.0600000   -0.1150000   2.680627e-04  1.873879e-07
    232    230   2   0.50000     0.0600000   -0.1150000   2.680627e-04  1.873879e-07
    211    240   2   0.50000    -0.1200000    0.0600000   2.494471e-04  1.671101e-07
    211    241   2   0.50000    -0.1200000    0.0600000   2.494471e-04  1.671101e-07
    211    242   2   0.50000    -0.1200000    0.0550000   1.015252e-03  1.866303e-06
    223    240   2   0.50000    -0.1150000    0.0600000   2.680627e-04  1.873879e-07
    223    241   2   0.50000    -0.1150000    0.0600000   2.680627e-04  1.873879e-07
    223    242   2   0.50000    -0.1150000    0.0550000   1.091018e-03  2.092768e-06
    232    240   2   0.50000     0.0600000    0.0600000   6.128906e-05  1.496315e-08
    232    241   2   0.50000     0.0600000    0.0600000   6.128906e-05  1.496315e-08
    232    242   2   0.50000     0.0600000    0.0550000   2.494471e-04  1.671101e-07
    222    225   2   0.50000     0.0550000   -0.1150000   1.091018e-03  2.092768e-06
    222    233   2   0.50000     0.0550000    0.1150000   2.262583e-04  1.374848e-07
    230    225   2   0.50000    -0.1150000   -0.1150000   1.172438e-03  2.346713e-06
    230    233   2   0.50000    -0.1150000    0.1150000   2.431434e-04  1.541678e-07
    222    229   2   0.50000     0.0550000   -0.1150000   1.091018e-03  2.092768e-06
    222    239   2   0.50000     0.0550000    0.1150000   2.262583e-04  1.374848e-07
    224    229   2   0.50000    -0.1150000   -0.1150000   1.172438e-03  2.346713e-06
    224    239   2   0.50000    -0.1150000    0.1150000   2.431434e-04  1.541678e-07
    223    226   2   0.50000    -0.1150000    0.0850000   1.172438e-03  2.346713e-06
    223    234   2   0.50000    -0.1150000    0.1150000   2.431434e-04  1.541678e-07
    233    226   2   0.50000     0.1150000    0.0850000   2.431434e-04  1.541678e-07
    233    234   2   0.50000     0.1150000    0.1150000   5.042375e-05  1.012808e-08
    224    227   2   0.50000    -0.1150000   -0.2850000   9.038862e-04  9.862632e-07
    234    227   2   0.50000     0.1150000   -0.2850000   1.874504e-04  6.479276e-08
    234    229   2   0.50000     0.1150000   -0.1150000   2.431434e-04  1.541678e-07
    225    228   2   0.50000    -0.1150000    0.1100000   1.091018e-03  2.092768e-06
    229    228   2   0.50000    -0.1150000    0.1100000   1.091018e-03  2.092768e-06
    225    238   2   0.50000    -0.1150000    0.1150000   2.431434e-04  1.541678e-07
    227    230   2   0.50000    -0.2850000   -0.1150000   9.038862e-04  9.862632e-07
    227    238   2   0.50000    -0.2850000    0.1150000   1.874504e-04  6.479276e-08
    226    235   2   0.50000     0.0850000    0.0300000   2.680627e-04  1.873879e-07
    226    236   2   0.50000     0.0850000    0.0300000   2.680627e-04  1.873879e-07
    226    237   2   0.50000     0.0850000    0.0300000   2.680627e-04  1.873879e-07
    226    239   2   0.50000     0.0850000    0.1150000   2.431434e-04  1.541678e-07
    238    223   2   0.50000     0.1150000   -0.1150000   2.431434e-04  1.541678e-07
    238    239   2   0.50000     0.1150000    0.1150000   5.042375e-05  1.012808e-08
    222    243   2   0.50000     0.0550000   -0.1150000   1.091018e-03  2.092768e-06
    222    251   2   0.50000     0.0550000   -0.1200000   1.015252e-03  1.866303e-06
    222    252   2   0.50000     0.0550000    0.0600000   2.494471e-04  1.671101e-07
    240    243   2   0.50000     0.0600000   -0.1150000   2.680627e-04  1.873879e-07
    240    251   2   0.50000     0.0600000   -0.1200000   2.494471e-04  1.671101e-07
    240    252   2   0.50000     0.0600000    0.0600000   6.128906e-05  1.496315e-08
    241    243   2   0.50000     0.0600000   -0.1150000   2.680627e-04  1.873879e-07
    241    251   2   0.50000     0.0600000   -0.1200000   2.494471e-04  1.671101e-07
    241    252   2   0.50000     0.0600000    0.0600000   6.128906e-05  1.496315e-08
    231    244   2   0.50000    -0.1200000   -0.1150000   1.091018e-03  2.092768e-06
    231    250   2   0.50000    -0.1200000   -0.1150000   1.091018e-03  2.092768e-06
    251    244   2   0.50000    -0.1200000   -0.1150000   1.091018e-03  2.092768e-06
    251    250   2   0.50000    -0.1200000   -0.1150000   1.091018e-03  2.092768e-06
    252    244   2   0.50000     0.0600000   -0.1150000   2.680627e-04  1.873879e-07
    252    250   2   0.50000     0.0600000   -0.1150000   2.680627e-04  1.873879e-07
    231    260   2   0.50000    -0.1200000    0.0600000   2.494471e-04  1.671101e-07
    231    261   2   0.50000    -0.1200000    0.0600000   2.494471e-04  1.671101e-07
    231    262   2   0.50000    -0.1200000    0.0550000   1.015252e-03  1.866303e-06
    243    260   2   0.50000    -0.1150000    0.0600000   2.680627e-04  1.873879e-07
    243    261   2   0.50000    -0.1150000    0.0600000   2.680627e-04  1.873879e-07
    243    262   2   0.50000    -0.1150000    0.0550000   1.091018e-03  2.092768e-06
    252    260   2   0.50000     0.0600000    0.0600000   6.128906e-05  1.496315e-08
    252    261   2   0.50000     0.0600000    0.0600000   6.128906e-05  1.496315e-08
    252    262   2   0.50000     0.0600000    0.0550000   2.494471e-04  1.671101e-07
    242    245   2   0.50000     0.0550000   -0.1150000   1.091018e-03  2.092768e-06
    242    253   2   0.50000     0.0550000    0.1150000   2.262583e-04  1.374848e-07
    250    245   2   0.50000    -0.1150000   -0.1150000   1.172438e-03  2.346713e-06
    250    253   2   0.50000    -0.1150000    0.1150000   2.431434e-04  1.541678e-07
    242    249   2   0.50000     0.0550000   -0.1150000   1.091018e-03  2.092768e-06
    242    259   2   0.50000     0.0550000    0.1150000   2.262583e-04  1.374848e-07
    244    249   2   0.50000    -0.1150000   -0.1150000   1.172438e-03  2.346713e-06
    244    259   2   0.50000    -0.1150000    0.1150000   2.431434e-04  1.541678e-07
    243    246   2   0.50000    -0.1150000    0.0850000   1.172438e-03  2.346713e-06
    243    254   2   0.50000    -0.1150000    0.1150000   2.431434e-04  1.541678e-07
    253    246   2   0.50000     0.1150000    0.0850000   2.431434e-04  1.541678e-07
    253    254   2   0.50000     0.1150000    0.1150000   5.042375e-05  1.012808e-08
    244    247   2   0.50000    -0.1150000   -0.2850000   9.038862e-04  9.862632e-07
    254    247   2   0.50000     0.1150000   -0.2850000   1.874504e-04  6.479276e-08
    254    249   2   0.50000     0.1150000   -0.1150000   2.431434e-04  1.541678e-07
    245    248   2   0.50000    -0.1150000    0.1100000   1.091018e-03  2.092768e-06
    249    248   2   0.50000    -0.1150000    0.1100000   1.091018e-03  2.092768e-06
    245    258   2   0.50000    -0.1150000    0.1150000   2.431434e-04  1.541678e-07
    247    250   2   0.50000    -0.2850000   -0.1150000   9.038862e-04  9.862632e-07
    247    258   2   0.50000    -0.2850000    0.1150000   1.874504e-04  6.479276e-08
    246    255   2   0.50000     0.0850000    0.0300000   2.680627e-04  1.873879e-07
    246    256   2   0.50000     0.0850000    0.0300000   2.680627e-04  1.873879e-07
    246    257   2   0.50000     0.0850000    0.0300000   2.680627e-04  1.873879e-07
    246    259   2   0.50000     0.0850000    0.1150000   2.431434e-04  1.541678e-07
    258    243   2   0.50000     0.1150000   -0.1150000   2.431434e-04  1.541678e-07
    258    259   2   0.50000     0.1150000    0.1150000   5.042375e-05  1.012808e-08
    242    263   2   0.50000     0.0550000   -0.1150000   1.091018e-03  2.092768e-06
    242    271   2   0.50000     0.0550000   -0.1200000   1.015252e-03  1.866303e-06
    242    272   2   0.50000     0.0550000    0.0600000   2.494471e-04  1.671101e-07
    260    263   2   0.50000     0.0600000   -0.1150000   2.680627e-04  1.873879e-07
    260    271   2   0.50000     0.0600000   -0.1200000   2.494471e-04  1.671101e-07
    260    272   2   0.50000     0.0600000    0.0600000   6.128906e-05  1.496315e-08
    261    263   2   0.50000     0.0600000   -0.1150000   2.680627e-04  1.873879e-07
    261    271   2   0.50000     0.0600000   -0.1200000   2.494471e-04  1.671101e-07
    261    272   2   0.50000     0.0600000    0.0600000   6.128906e-05  1.496315e-08
    251    264   2   0.50000    -0.1200000   -0.1150000   1.091018e-03  2.092768e-06
    251    270   2   0.50000    -0.1200000   -0.1150000   1.091018e-03  2.092768e-06
    271    264   2   0.50000    -0.1200000   -0.1150000   1.091018e-03  2.092768e-06
    271    270   2   0.50000    -0.1200000   -0.1150000   1.091018e-03  2.092768e-06
    272    264   2   0.50000     0.0600000   -0.1150000   2.680627e-04  1.873879e-07
    272    270   2   0.50000     0.0600000   -0.1150000   2.680627e-04  1.873879e-07
    251    280   2   0.50000    -0.1200000    0.0600000   2.494471e-04  1.671101e-07
    251    281   2   0.50000    -0.1200000    0.0600000   2.494471e-04  1.671101e-07
    251    282   2   0.50000    -0.1200000    0.0550000   1.015252e-03  1.866303e-06
    263    280   2   0.50000    -0.1150000    0.0600000   2.680627e-04  1.873879e-07
    263    281   2   0.50000    -0.1150000    0.0600000   2.680627e-04  1.873879e-07
    263    282   2   0.50000    -0.1150000    0.0550000   1.091018e-03  2.092768e-06
    272    280   2   0.50000     0.0600000    0.0600000   6.128906e-05  1.496315e-08
    272    281   2   0.50000     0.0600000    0.0600000   6.128906e-05  1.496315e-08
    272    282   2   0.50000     0.0600000    0.0550000   2.494471e-04  1.671101e-07
    262    265   2   0.50000     0.0550000   -0.1150000   1.091018e-03  2.092768e-06
    262    273   2   0.50000     0.0550000    0.1150000   2.262583e-04  1.374848e-07
    270    265   2   0.50000    -0.1150000   -0.1150000   1.172438e-03  2.346713e-06
    270    273   2   0.50000    -0.1150000    0.1150000   2.431434e-04  1.541678e-07
    262    269   2   0.50000     0.0550000   -0.1150000   1.091018e-03  2.092768e-06
    262    279   2   0.50000     0.0550000    0.1150000   2.262583e-04  1.374848e-07
    264    269   2   0.50000    -0.1150000   -0.1150000   1.172438e-03  2.346713e-06
    264    279   2   0.50000    -0.1150000    0.1150000   2.431434e-04  1.541678e-07
    263    266   2   0.50000    -0.1150000    0.0850000   1.172438e-03  2.346713e-06
    263    274   2   0.50000    -0.1150000    0.1150000   2.431434e-04  1.541678e-07
    273    266   2   0.50000     0.1150000    0.0850000   2.431434e-04  1.541678e-07
    273    274   2   0.50000     0.1150000    0.1150000   5.042375e-05  1.012808e-08
    264    267   2   0.50000    -0.1150000   -0.2850000   9.038862e-04  9.862632e-07
    274    267   2   0.50000     0.1150000   -0.2850000   1.874504e-04  6.479276e-08
    274    269   2   0.50000     0.1150000   -0.1150000   2.431434e-04  1.541678e-07
    265    268   2   0.50000    -0.1150000    0.1100000   1.091018e-03  2.092768e-06
    269    268   2   0.50000    -0.1150000    0.1100000   1.091018e-03  2.092768e-06
    265    278   2   0.50000    -0.1150000    0.1150000   2.431434e-04  1.541678e-07
    267    270   2   0.50000    -0.2850000   -0.1150000   9.038862e-04  9.862632e-07
    267    278   2   0.50000    -0.2850000    0.1150000   1.874504e-04  6.479276e-08
    266    275   2   0.50000     0.0850000    0.0300000   2.680627e-04  1.873879e-07
    266    276   2   0.50000     0.0850000    0.0300000   2.680627e-04  1.873879e-07
    266    277   2   0.50000     0.0850000    0.0300000   2.680627e-04  1.873879e-07
    266    279   2   0.50000     0.0850000    0.1150000   2.431434e-04  1.541678e-07
    278    263   2   0.50000     0.1150000   -0.1150000   2.431434e-04  1.541678e-07
    278    279   2   0.50000     0.1150000    0.1150000   5.042375e-05  1.012808e-08
    262    283   2   0.50000     0.0550000   -0.1150000   1.091018e-03  2.092768e-06
    262    291   2   0.50000     0.0550000   -0.1200000   1.015252e-03  1.866303e-06
    262    292   2   0.50000     0.0550000    0.0600000   2.494471e-04  1.671101e-07
    280    283   2   0.50000     0.0600000   -0.1150000   2.680627e-04  1.873879e-07
    280    291   2   0.50000     0.0600000   -0.1200000   2.494471e-04  1.671101e-07
    280    292   2   0.50000     0.0600000    0.0600000   6.128906e-05  1.496315e-08
    281    283   2   0.50000     0.0600000   -0.1150000   2.680627e-04  1.873879e-07
    281    291   2   0.50000     0.0600000   -0.1200000   2.494471e-04  1.671101e-07
    281    292   2   0.50000     0.0600000    0.0600000   6.128906e-05  1.496315e-08
    271    284   2   0.50000    -0.1200000   -0.1150000   1.091018e-03  2.092768e-06
    271    290   2   0.50000    -0.1200000   -0.1150000   1.091018e-03  2.092768e-06
    291    284   2   0.50000    -0.1200000   -0.1150000   1.091018e-03  2.092768e-06
    291    290   2   0.50000    -0.1200000   -0.1150000   1.091018e-03  2.092768e-06
    292    284   2   0.50000     0.0600000   -0.1150000   2.680627e-04  1.873879e-07
    292    290   2   0.50000     0.0600000   -0.1150000   2.680627e-04  1.873879e-07
    271    300   2   0.50000    -0.1200000    0.0600000   2.494471e-04  1.671101e-07
    271    301   2   0.50000    -0.1200000    0.0600000   2.494471e-04  1.671101e-07
    271    302   2   0.50000    -0.1200000    0.0550000   1.015252e-03  1.866303e-06
    283    300   2   0.50000    -0.1150000    0.0600000   2.680627e-04  1.873879e-07
    283    301   2   0.50000    -0.1150000    0.0600000   2.680627e-04  1.873879e-07
    283    302   2   0.50000    -0.1150000    0.0550000   1.091018e-03  2.092768e-06
    292    300   2   0.50000     0.0600000    0.0600000   6.128906e-05  1.496315e-08
    292    301   2   0.50000     0.0600000    0.0600000   6.128906e-05  1.496315e-08
    292    302   2   0.50000     0.0600000    0.0550000   2.494471e-04  1.671101e-07
    282    285   2   0.50000     0.0550000   -0.1150000   1.091018e-03  2.092768e-06
    282    293   2   0.50000     0.0550000    0.1150000   2.262583e-04  1.374848e-07
    290    285   2   0.50000    -0.1150000   -0.1150000   1.172438e-03  2.346713e-06
    290    293   2   0.50000    -0.1150000    0.1150000   2.431434e-04  1.541678e-07
    282    289   2   0.50000     0.0550000   -0.1150000   1.091018e-03  2.092768e-06
    282    299   2   0.50000     0.0550000    0.1150000   2.262583e-04  1.374848e-07
    284    289   2   0.50000    -0.1150000   -0.1150000   1.172438e-03  2.346713e-06
    284    299   2   0.50000    -0.1150000    0.1150000   2.431434e-04  1.541678e-07
    283    286   2   0.50000    -0.1150000    0.0850000   1.172438e-03  2.346713e-06
    283    294   2   0.50000    -0.1150000    0.1150000   2.431434e-04  1.541678e-07
    293    286   2   0.50000     0.1150000    0.0850000   2.431434e-04  1.541678e-07
    293    294   2   0.50000     0.1150000    0.1150000   5.042375e-05  1.012808e-08
    284    287   2   0.50000    -0.1150000   -0.2850000   9.038862e-04  9.862632e-07
    294    287   2   0.50000     0.1150000   -0.2850000   1.874504e-04  6.479276e-08
    294    289   2   0.50000     0.1150000   -0.1150000   2.431434e-04  1.541678e-07
    285    288   2   0.50000    -0.1150000    0.1100000   1.091018e-03  2.092768e-06
    289    288   2   0.50000    -0.1150000    0.1100000   1.091018e-03  2.092768e-06
    285    298   2   0.50000    -0.1150000    0.1150000   2.431434e-04  1.541678e-07
    287    290   2   0.50000    -0.2850000   -0.1150000   9.038862e-04  9.862632e-07
    287    298   2   0.50000    -0.2850000    0.1150000   1.874504e-04  6.479276e-08
    286    295   2   0.50000     0.0850000    0.0300000   2.680627e-04  1.873879e-07
    286    296   2   0.50000     0.0850000    0.0300000   2.680627e-04  1.873879e-07
    286    297   2   0.50000     0.0850000    0.0300000   2.680627e-04  1.873879e-07
    286    299   2   0.50000     0.0850000    0.1150000   2.431434e-04  1.541678e-07
    298    283   2   0.50000     0.1150000   -0.1150000   2.431434e-04  1.541678e-07
    298    299   2   0.50000     0.1150000    0.1150000   5.042375e-05  1.012808e-08
    282    303   2   0.50000     0.0550000   -0.1150000   1.091018e-03  2.092768e-06
    282    311   2   0.50000     0.0550000   -0.1200000   1.015252e-03  1.866303e-06
    282    312   2   0.50000     0.0550000    0.0600000   2.494471e-04  1.671101e-07
    300    303   2   0.50000     0.0600000   -0.1150000   2.680627e-04  1.873879e-07
    300    311   2   0.50000     0.0600000   -0.1200000   2.494471e-04  1.671101e-07
    300    312   2   0.50000     0.0600000    0.0600000   6.128906e-05  1.496315e-08
    301    303   2   0.50000     0.0600000   -0.1150000   2.680627e-04  1.873879e-07
    301    311   2   0.50000     0.0600000   -0.1200000   2.494471e-04  1.671101e-07
    301    312   2   0.50000     0.0600000    0.0600000   6.128906e-05  1.496315e-08
    291    304   2   0.50000    -0.1200000   -0.1150000   1.091018e-03  2.092768e-06
    291    310   2   0.50000    -0.1200000   -0.1150000   1.091018e-03  2.092768e-06
    311    304   2   0.50000    -0.1200000   -0.1150000   1.091018e-03  2.092768e-06
    311    310   2   0.50000    -0.1200000   -0.1150000   1.091018e-03  2.092768e-06
    312    304   2   0.50000     0.0600000   -0.1150000   2.680627e-04  1.873879e-07
    312    310   2   0.50000     0.0600000   -0.1150000   2.680627e-04  1.873879e-07
    291    320   2   0.50000    -0.1200000    0.0600000   2.494471e-04  1.671101e-07
    291    321   2   0.50000    -0.1200000    0.0600000   2.494471e-04  1.671101e-07
    291    322   2   0.50000    -0.1200000    0.0550000   1.015252e-03  1.866303e-06
    303    320   2   0.50000    -0.1150000    0.0600000   2.680627e-04  1.873879e-07
    303    321   2   0.50000    -0.1150000    0.0600000   2.680627e-04  1.873879e-07
    303    322   2   0.50000    -0.1150000    0.0550000   1.091018e-03  2.092768e-06
    312    320   2   0.50000     0.0600000    0.0600000   6.128906e-05  1.496315e-08
    312    321   2   0.50000     0.0600000    0.0600000   6.128906e-05  1.496315e-08
    312    322   2   0.50000     0.0600000    0.0550000   2.494471e-04  1.671101e-07
    302    305   2   0.50000     0.0550000   -0.1150000   1.091018e-03  2.092768e-06
    302    313   2   0.50000     0.0550000    0.1150000   2.262583e-04  1.374848e-07
    310    305   2   0.50000    -0.1150000   -0.1150000   1.172438e-03  2.346713e-06
    310    313   2   0.50000    -0.1150000    0.1150000   2.431434e-04  1.541678e-07
    302    309   2   0.50000     0.0550000   -0.1150000   1.091018e-03  2.092768e-06
    302    319   2   0.50000     0.0550000    0.1150000   2.262583e-04  1.374848e-07
    304    309   2   0.50000    -0.1150000   -0.1150000   1.172438e-03  2.346713e-06
    304    319   2   0.50000    -0.1150000    0.1150000   2.431434e-04  1.541678e-07
    303    306   2   0.50000    -0.1150000    0.0850000   1.172438e-03  2.346713e-06
    303    314   2   0.50000    -0.1150000    0.1150000   2.431434e-04  1.541678e-07
    313    306   2   0.50000     0.1150000    0.0850000   2.431434e-04  1.541678e-07
    313    314   2   0.50000     0.1150000    0.1150000   5.042375e-05  1.012808e-08
    304    307   2   0.50000    -0.1150000   -0.2850000   9.038862e-04  9.862632e-07
    314    307   2   0.50000     0.1150000   -0.2850000   1.874504e-04  6.479276e-08
    314    309   2   0.50000     0.1150000   -0.1150000   2.431434e-04  1.541678e-07
    305    308   2   0.50000    -0.1150000    0.1100000   1.091018e-03  2.092768e-06
    309    308   2   0.50000    -0.1150000    0.1100000   1.091018e-03  2.092768e-06
    305    318   2   0.50000    -0.1150000    0.1150000   2.431434e-04  1.541678e-07
    307    310   2   0.50000    -0.2850000   -0.1150000   9.038862e-04  9.862632e-07
    307    318   2   0.50000    -0.2850000    0.1150000   1.874504e-04  6.479276e-08
    306    315   2   0.50000     0.0850000    0.0300000   2.680627e-04  1.873879e-07
    306    316   2   0.50000     0.0850000    0.0300000   2.680627e-04  1.873879e-07
    306    317   2   0.50000     0.0850000    0.0300000   2.680627e-04  1.873879e-07
    306    319   2   0.50000     0.0850000    0.1150000   2.431434e-04  1.541678e-07
    318    303   2   0.50000     0.1150000   -0.1150000   2.431434e-04  1.541678e-07
    318    319   2   0.50000     0.1150000    0.1150000   5.042375e-05  1.012808e-08
    302    323   2   0.50000     0.0550000   -0.1150000   1.091018e-03  2.092768e-06
    302    331   2   0.50000     0.0550000   -0.1200000   1.015252e-03  1.866303e-06
    302    332   2   0.50000     0.0550000    0.0600000   2.494471e-04  1.671101e-07
    320    323   2   0.50000     0.0600000   -0.1150000   2.680627e-04  1.873879e-07
    320    331   2   0.50000     0.0600000   -0.1200000   2.494471e-04  1.671101e-07
    320    332   2   0.50000     0.0600000    0.0600000   6.128906e-05  1.496315e-08
    321    323   2   0.50000     0.0600000   -0.1150000   2.680627e-04  1.873879e-07
    321    331   2   0.50000     0.0600000   -0.1200000   2.494471e-04  1.671101e-07
    321    332   2   0.50000     0.0600000    0.0600000   6.128906e-05  1.496315e-08
    311    324   2   0.50000    -0.1200000   -0.1150000   1.091018e-03  2.092768e-06
    311    330   2   0.50000    -0.1200000   -0.1150000   1.091018e-03  2.092768e-06
    331    324   2   0.50000    -0.1200000   -0.1150000   1.091018e-03  2.092768e-06
    331    330   2   0.50000    -0.1200000   -0.1150000   1.091018e-03  2.092768e-06
    332    324   2   0.50000     0.0600000   -0.1150000   2.680627e-04  1.873879e-07
    332    330   2   0.50000     0.0600000   -0.1150000   2.680627e-04  1.873879e-07
    311    340   2   0.50000    -0.1200000    0.0600000   2.494471e-04  1.671101e-07
    311    341   2   0.50000    -0.1200000    0.0600000   2.494471e-04  1.671101e-07
    311    342   2   0.50000    -0.1200000    0.0550000   1.015252e-03  1.866303e-06
    323    340   2   0.50000    -0.1150000    0.0600000   2.680627e-04  1.873879e-07
    323    341   2   0.50000    -0.1150000    0.0600000   2.680627e-04  1.873879e-07
    323    342   2   0.50000    -0.1150000    0.0550000   1.091018e-03  2.092768e-06
    332    340   2   0.50000     0.0600000    0.0600000   6.128906e-05  1.496315e-08
    332    341   2   0.50000     0.0600000    0.0600000   6.128906e-05  1.496315e-08
    332    342   2   0.50000     0.0600000    0.0550000   2.494471e-04  1.671101e-07
    322    325   2   0.50000     0.0550000   -0.1150000   1.091018e-03  2.092768e-06
    322    333   2   0.50000     0.0550000    0.1150000   2.262583e-04  1.374848e-07
    330    325   2   0.50000    -0.1150000   -0.1150000   1.172438e-03  2.346713e-06
    330    333   2   0.50000    -0.1150000    0.1150000   2.431434e-04  1.541678e-07
    322    329   2   0.50000     0.0550000   -0.1150000   1.091018e-03  2.092768e-06
    322    339   2   0.50000     0.0550000    0.1150000   2.262583e-04  1.374848e-07
    324    329   2   0.50000    -0.1150000   -0.1150000   1.172438e-03  2.346713e-06
    324    339   2   0.50000    -0.1150000    0.1150000   2.431434e-04  1.541678e-07
    323    326   2   0.50000    -0.1150000    0.0850000   1.172438e-03  2.346713e-06
    323    334   2   0.50000    -0.1150000    0.1150000   2.431434e-04  1.541678e-07
    333    326   2   0.50000     0.1150000    0.0850000   2.431434e-04  1.541678e-07
    333    334   2   0.50000     0.1150000    0.1150000   5.042375e-05  1.012808e-08
    324    327   2   0.50000    -0.1150000   -0.2850000   9.038862e-04  9.862632e-07
    334    327   2   0.50000     0.1150000   -0.2850000   1.874504e-04  6.479276e-08
    334    329   2   0.50000     0.1150000   -0.1150000   2.431434e-04  1.541678e-07
    325    328   2   0.50000    -0.1150000    0.1100000   1.091018e-03  2.092768e-06
    329    328   2   0.50000    -0.1150000    0.1100000   1.091018e-03  2.092768e-06
    325    338   2   0.50000    -0.1150000    0.1150000   2.431434e-04  1.541678e-07
    327    330   2   0.50000    -0.2850000   -0.1150000   9.038862e-04  9.862632e-07
    327    338   2   0.50000    -0.2850000    0.1150000   1.874504e-04  6.479276e-08
    326    335   2   0.50000     0.0850000    0.0300000   2.680627e-04  1.873879e-07
    326    336   2   0.50000     0.0850000    0.0300000   2.680627e-04  1.873879e-07
    326    337   2   0.50000     0.0850000    0.0300000   2.680627e-04  1.873879e-07
    326    339   2   0.50000     0.0850000    0.1150000   2.431434e-04  1.541678e-07
    338    323   2   0.50000     0.1150000   -0.1150000   2.431434e-04  1.541678e-07
    338    339   2   0.50000     0.1150000    0.1150000   5.042375e-05  1.012808e-08
    322    343   2   0.50000     0.0550000   -0.1150000   1.091018e-03  2.092768e-06
    322    351   2   0.50000     0.0550000   -0.1200000   1.015252e-03  1.866303e-06
    322    352   2   0.50000     0.0550000    0.0600000   2.494471e-04  1.671101e-07
    340    343   2   0.50000     0.0600000   -0.1150000   2.680627e-04  1.873879e-07
    340    351   2   0.50000     0.0600000   -0.1200000   2.494471e-04  1.671101e-07
    340    352   2   0.50000     0.0600000    0.0600000   6.128906e-05  1.496315e-08
    341    343   2   0.50000     0.0600000   -0.1150000   2.680627e-04  1.873879e-07
    341    351   2   0.50000     0.0600000   -0.1200000   2.494471e-04  1.671101e-07
    341    352   2   0.50000     0.0600000    0.0600000   6.128906e-05  1.496315e-08
    331    344   2   0.50000    -0.1200000   -0.1150000   1.091018e-03  2.092768e-06
    331    350   2   0.50000    -0.1200000   -0.1150000   1.091018e-03  2.092768e-06
    351    344   2   0.50000    -0.1200000   -0.1150000   1.091018e-03  2.092768e-06
    351    350   2   0.50000    -0.1200000   -0.1150000   1.091018e-03  2.092768e-06
    352    344   2   0.50000     0.0600000   -0.1150000   2.680627e-04  1.873879e-07
    352    350   2   0.50000     0.0600000   -0.1150000   2.680627e-04  1.873879e-07
    331    360   2   0.50000    -0.1200000    0.0600000   2.494471e-04  1.671101e-07
    331    361   2   0.50000    -0.1200000    0.0600000   2.494471e-04  1.671101e-07
    331    362   2   0.50000    -0.1200000    0.0550000   1.015252e-03  1.866303e-06
    343    360   2   0.50000    -0.1150000    0.0600000   2.680627e-04  1.873879e-07
    343    361   2   0.50000    -0.1150000    0.0600000   2.680627e-04  1.873879e-07
    343    362   2   0.50000    -0.1150000    0.0550000   1.091018e-03  2.092768e-06
    352    360   2   0.50000     0.0600000    0.0600000   6.128906e-05  1.496315e-08
    352    361   2   0.50000     0.0600000    0.0600000   6.128906e-05  1.496315e-08
    352    362   2   0.50000     0.0600000    0.0550000   2.494471e-04  1.671101e-07
    342    345   2   0.50000     0.0550000   -0.1150000   1.091018e-03  2.092768e-06
    342    353   2   0.50000     0.0550000    0.1150000   2.262583e-04  1.374848e-07
    350    345   2   0.50000    -0.1150000   -0.1150000   1.172438e-03  2.346713e-06
    350    353   2   0.50000    -0.1150000    0.1150000   2.431434e-04  1.541678e-07
    342    349   2   0.50000     0.0550000   -0.1150000   1.091018e-03  2.092768e-06
    342    359   2   0.50000     0.0550000    0.1150000   2.262583e-04  1.374848e-07
    344    349   2   0.50000    -0.1150000   -0.1150000   1.172438e-03  2.346713e-06
    344    359   2   0.50000    -0.1150000    0.1150000   2.431434e-04  1.541678e-07
    343    346   2   0.50000    -0.1150000    0.0850000   1.172438e-03  2.346713e-06
    343    354   2   0.50000    -0.1150000    0.1150000   2.431434e-04  1.541678e-07
    353    346   2   0.50000     0.1150000    0.0850000   2.431434e-04  1.541678e-07
    353    354   2   0.50000     0.1150000    0.1150000   5.042375e-05  1.012808e-08
    344    347   2   0.50000    -0.1150000   -0.2850000   9.038862e-04  9.862632e-07
    354    347   2   0.50000     0.1150000   -0.2850000   1.874504e-04  6.479276e-08
    354    349   2   0.50000     0.1150000   -0.1150000   2.431434e-04  1.541678e-07
    345    348   2   0.50000    -0.1150000    0.1100000   1.091018e-03  2.092768e-06
    349    348   2   0.50000    -0.1150000    0.1100000   1.091018e-03  2.092768e-06
    345    358   2   0.50000    -0.1150000    0.1150000   2.431434e-04  1.541678e-07
    347    350   2   0.50000    -0.2850000   -0.1150000   9.038862e-04  9.862632e-07
    347    358   2   0.50000    -0.2850000    0.1150000   1.874504e-04  6.479276e-08
    346    355   2   0.50000     0.0850000    0.0300000   2.680627e-04  1.873879e-07
    346    356   2   0.50000     0.0850000    0.0300000   2.680627e-04  1.873879e-07
    346    357   2   0.50000     0.0850000    0.0300000   2.680627e-04  1.873879e-07
    346    359   2   0.50000     0.0850000    0.1150000   2.431434e-04  1.541678e-07
    358    343   2   0.50000     0.1150000   -0.1150000   2.431434e-04  1.541678e-07
    358    359   2   0.50000     0.1150000    0.1150000   5.042375e-05  1.012808e-08
    342    363   2   0.50000     0.0550000   -0.1150000   1.091018e-03  2.092768e-06
    342    371   2   0.50000     0.0550000   -0.1200000   1.015252e-03  1.866303e-06
    342    372   2   0.50000     0.0550000    0.0600000   2.494471e-04  1.671101e-07
    360    363   2   0.50000     0.0600000   -0.1150000   2.680627e-04  1.873879e-07
    360    371   2   0.50000     0.0600000   -0.1200000   2.494471e-04  1.671101e-07
    360    372   2   0.50000     0.0600000    0.0600000   6.128906e-05  1.496315e-08
    361    363   2   0.50000     0.0600000   -0.1150000   2.680627e-04  1.873879e-07
    361    371   2   0.50000     0.0600000   -0.1200000   2.494471e-04  1.671101e-07
    361    372   2   0.50000     0.0600000    0.0600000   6.128906e-05  1.496315e-08
    351    364   2   0.50000    -0.1200000   -0.1150000   1.091018e-03  2.092768e-06
    351    370   2   0.50000    -0.1200000   -0.1150000   1.091018e-03  2.092768e-06
    371    364   2   0.50000    -0.1200000   -0.1150000   1.091018e-03  2.092768e-06
    371    370   2   0.50000    -0.1200000   -0.1150000   1.091018e-03  2.092768e-06
    372    364   2   0.50000     0.0600000   -0.1150000   2.680627e-04  1.873879e-07
    372    370   2   0.50000     0.0600000   -0.1150000   2.680627e-04  1.873879e-07
    351    380   2   0.50000    -0.1200000    0.0600000   2.494471e-04  1.671101e-07
    351    381   2   0.50000    -0.1200000    0.0600000   2.494471e-04  1.671101e-07
    351    382   2   0.50000    -0.1200000    0.0550000   1.015252e-03  1.866303e-06
    363    380   2   0.50000    -0.1150000    0.0600000   2.680627e-04  1.873879e-07
    363    381   2   0.50000    -0.1150000    0.0600000   2.680627e-04  1.873879e-07
    363    382   2   0.50000    -0.1150000    0.0550000   1.091018e-03  2.092768e-06
    372    380   2   0.50000     0.0600000    0.0600000   6.128906e-05  1.496315e-08
    372    381   2   0.50000     0.0600000    0.0600000   6.128906e-05  1.496315e-08
    372    382   2   0.50000     0.0600000    0.0550000   2.494471e-04  1.671101e-07
    362    365   2   0.50000     0.0550000   -0.1150000   1.091018e-03  2.092768e-06
    362    373   2   0.50000     0.0550000    0.1150000   2.262583e-04  1.374848e-07
    370    365   2   0.50000    -0.1150000   -0.1150000   1.172438e-03  2.346713e-06
    370    373   2   0.50000    -0.1150000    0.1150000   2.431434e-04  1.541678e-07
    362    369   2   0.50000     0.0550000   -0.1150000   1.091018e-03  2.092768e-06
    362    379   2   0.50000     0.0550000    0.1150000   2.262583e-04  1.374848e-07
    364    369   2   0.50000    -0.1150000   -0.1150000   1.172438e-03  2.346713e-06
    364    379   2   0.50000    -0.1150000    0.1150000   2.431434e-04  1.541678e-07
    363    366   2   0.50000    -0.1150000    0.0850000   1.172438e-03  2.346713e-06
    363    374   2   0.50000    -0.1150000    0.1150000   2.431434e-04  1.541678e-07
    373    366   2   0.50000     0.1150000    0.0850000   2.431434e-04  1.541678e-07
    373    374   2   0.50000     0.1150000    0.1150000   5.042375e-05  1.012808e-08
    364    367   2   0.50000    -0.1150000   -0.2850000   9.038862e-04  9.862632e-07
    374    367   2   0.50000     0.1150000   -0.2850000   1.874504e-04  6.479276e-08
    374    369   2   0.50000     0.1150000   -0.1150000   2.431434e-04  1.541678e-07
    365    368   2   0.50000    -0.1150000    0.1100000   1.091018e-03  2.092768e-06
    369    368   2   0.50000    -0.1150000    0.1100000   1.091018e-03  2.092768e-06
    365    378   2   0.50000    -0.1150000    0.1150000   2.431434e-04  1.541678e-07
    367    370   2   0.50000    -0.2850000   -0.1150000   9.038862e-04  9.862632e-07
    367    378   2   0.50000    -0.2850000    0.1150000   1.874504e-04  6.479276e-08
    366    375   2   0.50000     0.0850000    0.0300000   2.680627e-04  1.873879e-07
    366    376   2   0.50000     0.0850000    0.0300000   2.680627e-04  1.873879e-07
    366    377   2   0.50000     0.0850000    0.0300000   2.680627e-04  1.873879e-07
    366    379   2   0.50000     0.0850000    0.1150000   2.431434e-04  1.541678e-07
    378    363   2   0.50000     0.1150000   -0.1150000   2.431434e-04  1.541678e-07
    378    379   2   0.50000     0.1150000    0.1150000   5.042375e-05  1.012808e-08
    362    383   2   0.50000     0.0550000   -0.1150000   1.091018e-03  2.092768e-06
    362    391   2   0.50000     0.0550000   -0.1800000   1.015252e-03  1.866303e-06
    362    392   2   0.50000     0.0550000    0.0600000   2.494471e-04  1.671101e-07
    380    383   2   0.50000     0.0600000   -0.1150000   2.680627e-04  1.873879e-07
    380    391   2   0.50000     0.0600000   -0.1800000   2.494471e-04  1.671101e-07
    380    392   2   0.50000     0.0600000    0.0600000   6.128906e-05  1.496315e-08
    381    383   2   0.50000     0.0600000   -0.1150000   2.680627e-04  1.873879e-07
    381    391   2   0.50000     0.0600000   -0.1800000   2.494471e-04  1.671101e-07
    381    392   2   0.50000     0.0600000    0.0600000   6.128906e-05  1.496315e-08
    371    384   2   0.50000    -0.1200000   -0.1150000   1.091018e-03  2.092768e-06
    371    390   2   0.50000    -0.1200000   -0.1150000   1.091018e-03  2.092768e-06
    391    384   2   0.50000    -0.1800000   -0.1150000   1.091018e-03  2.092768e-06
    391    390   2   0.50000    -0.1800000   -0.1150000   1.091018e-03  2.092768e-06
    392    384   2   0.50000     0.0600000   -0.1150000   2.680627e-04  1.873879e-07
    392    390   2   0.50000     0.0600000   -0.1150000   2.680627e-04  1.873879e-07
    371    400   2   0.50000    -0.1200000    0.0600000   2.494471e-04  1.671101e-07
    371    401   2   0.50000    -0.1200000    0.0600000   2.494471e-04  1.671101e-07
    371    402   2   0.50000    -0.1200000    0.0600000   2.494471e-04  1.671101e-07
    383    400   2   0.50000    -0.1150000    0.0600000   2.680627e-04  1.873879e-07
    383    401   2   0.50000    -0.1150000    0.0600000   2.680627e-04  1.873879e-07
    383    402   2   0.50000    -0.1150000    0.0600000   2.680627e-04  1.873879e-07
    392    400   2   0.50000     0.0600000    0.0600000   6.128906e-05  1.496315e-08
    392    401   2   0.50000     0.0600000    0.0600000   6.128906e-05  1.496315e-08
    392    402   2   0.50000     0.0600000    0.0600000   6.128906e-05  1.496315e-08
    382    385   2   0.50000     0.0550000   -0.1150000   1.091018e-03  2.092768e-06
    382    393   2   0.50000     0.0550000    0.1150000   2.262583e-04  1.374848e-07
    390    385   2   0.50000    -0.1150000   -0.1150000   1.172438e-03  2.346713e-06
    390    393   2   0.50000    -0.1150000    0.1150000   2.431434e-04  1.541678e-07
    382    389   2   0.50000     0.0550000   -0.1150000   1.091018e-03  2.092768e-06
    382    399   2   0.50000     0.0550000    0.1150000   2.262583e-04  1.374848e-07
    384    389   2   0.50000    -0.1150000   -0.1150000   1.172438e-03  2.346713e-06
    384    399   2   0.50000    -0.1150000    0.1150000   2.431434e-04  1.541678e-07
    383    386   2   0.50000    -0.1150000    0.0850000   1.172438e-03  2.346713e-06
    383    394   2   0.50000    -0.1150000    0.1150000   2.431434e-04  1.541678e-07
    393    386   2   0.50000     0.1150000    0.0850000   2.431434e-04  1.541678e-07
    393    394   2   0.50000     0.1150000    0.1150000   5.042375e-05  1.012808e-08
    384    387   2   0.50000    -0.1150000   -0.2850000   9.038862e-04  9.862632e-07
    394    387   2   0.50000     0.1150000   -0.2850000   1.874504e-04  6.479276e-08
    394    389   2   0.50000     0.1150000   -0.1150000   2.431434e-04  1.541678e-07
    385    388   2   0.50000    -0.1150000    0.1100000   1.091018e-03  2.092768e-06
    389    388   2   0.50000    -0.1150000    0.1100000   1.091018e-03  2.092768e-06
    385    398   2   0.50000    -0.1150000    0.1150000   2.431434e-04  1.541678e-07
    387    390   2   0.50000    -0.2850000   -0.1150000   9.038862e-04  9.862632e-07
    387    398   2   0.50000    -0.2850000    0.1150000   1.874504e-04  6.479276e-08
    386    395   2   0.50000     0.0850000    0.0300000   2.680627e-04  1.873879e-07
    386    396   2   0.50000     0.0850000    0.0300000   2.680627e-04  1.873879e-07
    386    397   2   0.50000     0.0850000    0.0300000   2.680627e-04  1.873879e-07
    386    399   2   0.50000     0.0850000    0.1150000   2.431434e-04  1.541678e-07
    398    383   2   0.50000     0.1150000   -0.1150000   2.431434e-04  1.541678e-07
    398    399   2   0.50000     0.1150000    0.1150000   5.042375e-05  1.012808e-08

[ angles ]
; ai  aj  ak
      2      1     10   1    112.1750    585.7600
      2      1     11   1    109.5000    292.8800
      2      1     21   1    109.5000    292.8800
     10      1     11   1    110.7000    313.8000
     10      1     21   1    110.7000    313.8000
     11      1     21   1    107.8000    276.1440
      1      2      3   1    120.0000    585.7600
      1      2      9   1    120.0000    585.7600
      3      2      9   1    120.0000    527.1840
      2      3      4   1    120.0000    527.1840
      2      3     12   1    120.0000    292.8800
      4      3     12   1    120.0000    292.8800
      3      4      5   1    120.0000    527.1840
      3      4     13   1    120.0000    292.8800
      5      4     13   1    120.0000    292.8800
      4      5      6   1    120.0000    585.7600
      4      5      8   1    120.0000    527.1840
      6      5      8   1    120.0000    585.7600
      5      6      7   1    111.0000    627.6000
      6      7     14   1    109.5000    292.8800
      6      7     15   1    109.5000    292.8800
      6      7     16   1    109.5000    292.8800
     14      7     15   1    107.8000    276.1440
     14      7     16   1    107.8000    276.1440
     15      7     16   1    107.8000    276.1440
      5      8      9   1    120.0000    527.1840
      5      8     17   1    120.0000    292.8800
      9      8     17   1    120.0000    292.8800
      2      9      8   1    120.0000    527.1840
      2      9     18   1    120.0000    292.8800
      8      9     18   1    120.0000    292.8800
      1     10     19   1    110.7000    313.8000
      1     10     20   1    110.7000    313.8000
      1     10     22   1    112.7000    488.2728
     19     10     20   1    107.8000    276.1440
     19     10     22   1    110.7000    313.8000
     20     10     22   1    110.7000    313.8000
     10     22     23   1    112.1750    585.7600
     10     22     31   1    112.7000    488.2728
     10     22     32   1    110.7000    313.8000
     23     22     31   1    112.1750    585.7600
     23     22     32   1    109.5000    292.8800
     31     22     32   1    110.7000    313.8000
     22     23     24   1    120.0000    585.7600
     22     23     30   1    120.0000    585.7600
     24     23     30   1    120.0000    527.1840
     23     24     25   1    120.0000    527.1840
     23     24     33   1    120.0000    292.8800
     25     24     33   1    120.0000    292.8800
     24     25     26   1    120.0000    527.1840
     24     25     34   1    120.0000    292.8800
     26     25     34   1    120.0000    292.8800
     25     26     27   1    120.0000    585.7600
     25     26     29   1    120.0000    527.1840
     27     26     29   1    120.0000    585.7600
     26     27     28   1    111.0000    627.6000
     27     28     35   1    109.5000    292.8800
     27     28     36   1    109.5000    292.8800
     27     28     37   1    109.5000    292.8800
     35     28     36   1    107.8000    276.1440
     35     28     37   1    107.8000    276.1440
     36     28     37   1    107.8000    276.1440
     26     29     30   1    120.0000    527.1840
     26     29     38   1    120.0000    292.8800
     30     29     38   1    120.0000    292.8800
     23     30     29   1    120.0000    527.1840
     23     30     39   1    120.0000    292.8800
     29     30     39   1    120.0000    292.8800
     22     31     40   1    110.7000    313.8000
     22     31     41   1    110.7000    313.8000
     22     31     42   1    112.7000    488.2728
     40     31     41   1    107.8000    276.1440
     40     31     42   1    110.7000    313.8000
     41     31     42   1    110.7000    313.8000
     31     42     43   1    112.1750    585.7600
     31     42     51   1    112.7000    488.2728
     31     42     52   1    110.7000    313.8000
     43     42     51   1    112.1750    585.7600
     43     42     52   1    109.5000    292.8800
     51     42     52   1    110.7000    313.8000
     42     43     44   1    120.0000    585.7600
     42     43     50   1    120.0000    585.7600
     44     43     50   1    120.0000    527.1840
     43     44     45   1    120.0000    527.1840
     43     44     53   1    120.0000    292.8800
     45     44     53   1    120.0000    292.8800
     44     45     46   1    120.0000    527.1840
     44     45     54   1    120.0000    292.8800
     46     45     54   1    120.0000    292.8800
     45     46     47   1    120.0000    585.7600
     45     46     49   1    120.0000    527.1840
     47     46     49   1    120.0000    585.7600
     46     47     48   1    111.0000    627.6000
     47     48     55   1    109.5000    292.8800
     47     48     56   1    109.5000    292.8800
     47     48     57   1    109.5000    292.8800
     55     48     56   1    107.8000    276.1440
     55     48     57   1    107.8000    276.1440
     56     48     57   1    107.8000    276.1440
     46     49     50   1    120.0000    527.1840
     46     49     58   1    120.0000    292.8800
     50     49     58   1    120.0000    292.8800
     43     50     49   1    120.0000    527.1840
     43     50     59   1    120.0000    292.8800
     49     50     59   1    120.0000    292.8800
     42     51     60   1    110.7000    313.8000
     42     51     61   1    110.7000    313.8000
     42     51     62   1    112.7000    488.2728
     60     51     61   1    107.8000    276.1440
     60     51     62   1    110.7000    313.8000
     61     51     62   1    110.7000    313.8000
     51     62     63   1    112.1750    585.7600
     51     62     71   1    112.7000    488.2728
     51     62     72   1    110.7000    313.8000
     63     62     71   1    112.1750    585.7600
     63     62     72   1    109.5000    292.8800
     71     62     72   1    110.7000    313.8000
     62     63     64   1    120.0000    585.7600
     62     63     70   1    120.0000    585.7600
     64     63     70   1    120.0000    527.1840
     63     64     65   1    120.0000    527.1840
     63     64     73   1    120.0000    292.8800
     65     64     73   1    120.0000    292.8800
     64     65     66   1    120.0000    527.1840
     64     65     74   1    120.0000    292.8800
     66     65     74   1    120.0000    292.8800
     65     66     67   1    120.0000    585.7600
     65     66     69   1    120.0000    527.1840
     67     66     69   1    120.0000    585.7600
     66     67     68   1    111.0000    627.6000
     67     68     75   1    109.5000    292.8800
     67     68     76   1    109.5000    292.8800
     67     68     77   1    109.5000    292.8800
     75     68     76   1    107.8000    276.1440
     75     68     77   1    107.8000    276.1440
     76     68     77   1    107.8000    276.1440
     66     69     70   1    120.0000    527.1840
     66     69     78   1    120.0000    292.8800
     70     69     78   1    120.0000    292.8800
     63     70     69   1    120.0000    527.1840
     63     70     79   1    120.0000    292.8800
     69     70     79   1    120.0000    292.8800
     62     71     80   1    110.7000    313.8000
     62     71     81   1    110.7000    313.8000
     62     71     82   1    112.7000    488.2728
     80     71     81   1    107.8000    276.1440
     80     71     82   1    110.7000    313.8000
     81     71     82   1    110.7000    313.8000
     71     82     83   1    112.1750    585.7600
     71     82     91   1    112.7000    488.2728
     71     82     92   1    110.7000    313.8000
     83     82     91   1    112.1750    585.7600
     83     82     92   1    109.5000    292.8800
     91     82     92   1    110.7000    313.8000
     82     83     84   1    120.0000    585.7600
     82     83     90   1    120.0000    585.7600
     84     83     90   1    120.0000    527.1840
     83     84     85   1    120.0000    527.1840
     83     84     93   1    120.0000    292.8800
     85     84     93   1    120.0000    292.8800
     84     85     86   1    120.0000    527.1840
     84     85     94   1    120.0000    292.8800
     86     85     94   1    120.0000    292.8800
     85     86     87   1    120.0000    585.7600
     85     86     89   1    120.0000    527.1840
     87     86     89   1    120.0000    585.7600
     86     87     88   1    111.0000    627.6000
     87     88     95   1    109.5000    292.8800
     87     88     96   1    109.5000    292.8800
     87     88     97   1    109.5000    292.8800
     95     88     96   1    107.8000    276.1440
     95     88     97   1    107.8000    276.1440
     96     88     97   1    107.8000    276.1440
     86     89     90   1    120.0000    527.1840
     86     89     98   1    120.0000    292.8800
     90     89     98   1    120.0000    292.8800
     83     90     89   1    120.0000    527.1840
     83     90     99   1    120.0000    292.8800
     89     90     99   1    120.0000    292.8800
     82     91    100   1    110.7000    313.8000
     82     91    101   1    110.7000    313.8000
     82     91    102   1    112.7000    488.2728
    100     91    101   1    107.8000    276.1440
    100     91    102   1    110.7000    313.8000
    101     91    102   1    110.7000    313.8000
     91    102    103   1    112.1750    585.7600
     91    102    111   1    112.7000    488.2728
     91    102    112   1    110.7000    313.8000
    103    102    111   1    112.1750    585.7600
    103    102    112   1    109.5000    292.8800
    111    102    112   1    110.7000    313.8000
    102    103    104   1    120.0000    585.7600
    102    103    110   1    120.0000    585.7600
    104    103    110   1    120.0000    527.1840
    103    104    105   1    120.0000    527.1840
    103    104    113   1    120.0000    292.8800
    105    104    113   1    120.0000    292.8800
    104    105    106   1    120.0000    527.1840
    104    105    114   1    120.0000    292.8800
    106    105    114   1    120.0000    292.8800
    105    106    107   1    120.0000    585.7600
    105    106    109   1    120.0000    527.1840
    107    106    109   1    120.0000    585.7600
    106    107    108   1    111.0000    627.6000
    107    108    115   1    109.5000    292.8800
    107    108    116   1    109.5000    292.8800
    107    108    117   1    109.5000    292.8800
    115    108    116   1    107.8000    276.1440
    115    108    117   1    107.8000    276.1440
    116    108    117   1    107.8000    276.1440
    106    109    110   1    120.0000    527.1840
    106    109    118   1    120.0000    292.8800
    110    109    118   1    120.0000    292.8800
    103    110    109   1    120.0000    527.1840
    103    110    119   1    120.0000    292.8800
    109    110    119   1    120.0000    292.8800
    102    111    120   1    110.7000    313.8000
    102    111    121   1    110.7000    313.8000
    102    111    122   1    112.7000    488.2728
    120    111    121   1    107.8000    276.1440
    120    111    122   1    110.7000    313.8000
    121    111    122   1    110.7000    313.8000
    111    122    123   1    112.1750    585.7600
    111    122    131   1    112.7000    488.2728
    111    122    132   1    110.7000    313.8000
    123    122    131   1    112.1750    585.7600
    123    122    132   1    109.5000    292.8800
    131    122    132   1    110.7000    313.8000
    122    123    124   1    120.0000    585.7600
    122    123    130   1    120.0000    585.7600
    124    123    130   1    120.0000    527.1840
    123    124    125   1    120.0000    527.1840
    123    124    133   1    120.0000    292.8800
    125    124    133   1    120.0000    292.8800
    124    125    126   1    120.0000    527.1840
    124    125    134   1    120.0000    292.8800
    126    125    134   1    120.0000    292.8800
    125    126    127   1    120.0000    585.7600
    125    126    129   1    120.0000    527.1840
    127    126    129   1    120.0000    585.7600
    126    127    128   1    111.0000    627.6000
    127    128    135   1    109.5000    292.8800
    127    128    136   1    109.5000    292.8800
    127    128    137   1    109.5000    292.8800
    135    128    136   1    107.8000    276.1440
    135    128    137   1    107.8000    276.1440
    136    128    137   1    107.8000    276.1440
    126    129    130   1    120.0000    527.1840
    126    129    138   1    120.0000    292.8800
    130    129    138   1    120.0000    292.8800
    123    130    129   1    120.0000    527.1840
    123    130    139   1    120.0000    292.8800
    129    130    139   1    120.0000    292.8800
    122    131    140   1    110.7000    313.8000
    122    131    141   1    110.7000    313.8000
    122    131    142   1    112.7000    488.2728
    140    131    141   1    107.8000    276.1440
    140    131    142   1    110.7000    313.8000
    141    131    142   1    110.7000    313.8000
    131    142    143   1    112.1750    585.7600
    131    142    151   1    112.7000    488.2728
    131    142    152   1    110.7000    313.8000
    143    142    151   1    112.1750    585.7600
    143    142    152   1    109.5000    292.8800
    151    142    152   1    110.7000    313.8000
    142    143    144   1    120.0000    585.7600
    142    143    150   1    120.0000    585.7600
    144    143    150   1    120.0000    527.1840
    143    144    145   1    120.0000    527.1840
    143    144    153   1    120.0000    292.8800
    145    144    153   1    120.0000    292.8800
    144    145    146   1    120.0000    527.1840
    144    145    154   1    120.0000    292.8800
    146    145    154   1    120.0000    292.8800
    145    146    147   1    120.0000    585.7600
    145    146    149   1    120.0000    527.1840
    147    146    149   1    120.0000    585.7600
    146    147    148   1    111.0000    627.6000
    147    148    155   1    109.5000    292.8800
    147    148    156   1    109.5000    292.8800
    147    148    157   1    109.5000    292.8800
    155    148    156   1    107.8000    276.1440
    155    148    157   1    107.8000    276.1440
    156    148    157   1    107.8000    276.1440
    146    149    150   1    120.0000    527.1840
    146    149    158   1    120.0000    292.8800
    150    149    158   1    120.0000    292.8800
    143    150    149   1    120.0000    527.1840
    143    150    159   1    120.0000    292.8800
    149    150    159   1    120.0000    292.8800
    142    151    160   1    110.7000    313.8000
    142    151    161   1    110.7000    313.8000
    142    151    162   1    112.7000    488.2728
    160    151    161   1    107.8000    276.1440
    160    151    162   1    110.7000    313.8000
    161    151    162   1    110.7000    313.8000
    151    162    163   1    112.1750    585.7600
    151    162    171   1    112.7000    488.2728
    151    162    172   1    110.7000    313.8000
    163    162    171   1    112.1750    585.7600
    163    162    172   1    109.5000    292.8800
    171    162    172   1    110.7000    313.8000
    162    163    164   1    120.0000    585.7600
    162    163    170   1    120.0000    585.7600
    164    163    170   1    120.0000    527.1840
    163    164    165   1    120.0000    527.1840
    163    164    173   1    120.0000    292.8800
    165    164    173   1    120.0000    292.8800
    164    165    166   1    120.0000    527.1840
    164    165    174   1    120.0000    292.8800
    166    165    174   1    120.0000    292.8800
    165    166    167   1    120.0000    585.7600
    165    166    169   1    120.0000    527.1840
    167    166    169   1    120.0000    585.7600
    166    167    168   1    111.0000    627.6000
    167    168    175   1    109.5000    292.8800
    167    168    176   1    109.5000    292.8800
    167    168    177   1    109.5000    292.8800
    175    168    176   1    107.8000    276.1440
    175    168    177   1    107.8000    276.1440
    176    168    177   1    107.8000    276.1440
    166    169    170   1    120.0000    527.1840
    166    169    178   1    120.0000    292.8800
    170    169    178   1    120.0000    292.8800
    163    170    169   1    120.0000    527.1840
    163    170    179   1    120.0000    292.8800
    169    170    179   1    120.0000    292.8800
    162    171    180   1    110.7000    313.8000
    162    171    181   1    110.7000    313.8000
    162    171    182   1    112.7000    488.2728
    180    171    181   1    107.8000    276.1440
    180    171    182   1    110.7000    313.8000
    181    171    182   1    110.7000    313.8000
    171    182    183   1    112.1750    585.7600
    171    182    191   1    112.7000    488.2728
    171    182    192   1    110.7000    313.8000
    183    182    191   1    112.1750    585.7600
    183    182    192   1    109.5000    292.8800
    191    182    192   1    110.7000    313.8000
    182    183    184   1    120.0000    585.7600
    182    183    190   1    120.0000    585.7600
    184    183    190   1    120.0000    527.1840
    183    184    185   1    120.0000    527.1840
    183    184    193   1    120.0000    292.8800
    185    184    193   1    120.0000    292.8800
    184    185    186   1    120.0000    527.1840
    184    185    194   1    120.0000    292.8800
    186    185    194   1    120.0000    292.8800
    185    186    187   1    120.0000    585.7600
    185    186    189   1    120.0000    527.1840
    187    186    189   1    120.0000    585.7600
    186    187    188   1    111.0000    627.6000
    187    188    195   1    109.5000    292.8800
    187    188    196   1    109.5000    292.8800
    187    188    197   1    109.5000    292.8800
    195    188    196   1    107.8000    276.1440
    195    188    197   1    107.8000    276.1440
    196    188    197   1    107.8000    276.1440
    186    189    190   1    120.0000    527.1840
    186    189    198   1    120.0000    292.8800
    190    189    198   1    120.0000    292.8800
    183    190    189   1    120.0000    527.1840
    183    190    199   1    120.0000    292.8800
    189    190    199   1    120.0000    292.8800
    182    191    200   1    110.7000    313.8000
    182    191    201   1    110.7000    313.8000
    182    191    202   1    112.7000    488.2728
    200    191    201   1    107.8000    276.1440
    200    191    202   1    110.7000    313.8000
    201    191    202   1    110.7000    313.8000
    191    202    203   1    112.1750    585.7600
    191    202    211   1    112.7000    488.2728
    191    202    212   1    110.7000    313.8000
    203    202    211   1    112.1750    585.7600
    203    202    212   1    109.5000    292.8800
    211    202    212   1    110.7000    313.8000
    202    203    204   1    120.0000    585.7600
    202    203    210   1    120.0000    585.7600
    204    203    210   1    120.0000    527.1840
    203    204    205   1    120.0000    527.1840
    203    204    213   1    120.0000    292.8800
    205    204    213   1    120.0000    292.8800
    204    205    206   1    120.0000    527.1840
    204    205    214   1    120.0000    292.8800
    206    205    214   1    120.0000    292.8800
    205    206    207   1    120.0000    585.7600
    205    206    209   1    120.0000    527.1840
    207    206    209   1    120.0000    585.7600
    206    207    208   1    111.0000    627.6000
    207    208    215   1    109.5000    292.8800
    207    208    216   1    109.5000    292.8800
    207    208    217   1    109.5000    292.8800
    215    208    216   1    107.8000    276.1440
    215    208    217   1    107.8000    276.1440
    216    208    217   1    107.8000    276.1440
    206    209    210   1    120.0000    527.1840
    206    209    218   1    120.0000    292.8800
    210    209    218   1    120.0000    292.8800
    203    210    209   1    120.0000    527.1840
    203    210    219   1    120.0000    292.8800
    209    210    219   1    120.0000    292.8800
    202    211    220   1    110.7000    313.8000
    202    211    221   1    110.7000    313.8000
    202    211    222   1    112.7000    488.2728
    220    211    221   1    107.8000    276.1440
    220    211    222   1    110.7000    313.8000
    221    211    222   1    110.7000    313.8000
    211    222    223   1    112.1750    585.7600
    211    222    231   1    112.7000    488.2728
    211    222    232   1    110.7000    313.8000
    223    222    231   1    112.1750    585.7600
    223    222    232   1    109.5000    292.8800
    231    222    232   1    110.7000    313.8000
    222    223    224   1    120.0000    585.7600
    222    223    230   1    120.0000    585.7600
    224    223    230   1    120.0000    527.1840
    223    224    225   1    120.0000    527.1840
    223    224    233   1    120.0000    292.8800
    225    224    233   1    120.0000    292.8800
    224    225    226   1    120.0000    527.1840
    224    225    234   1    120.0000    292.8800
    226    225    234   1    120.0000    292.8800
    225    226    227   1    120.0000    585.7600
    225    226    229   1    120.0000    527.1840
    227    226    229   1    120.0000    585.7600
    226    227    228   1    111.0000    627.6000
    227    228    235   1    109.5000    292.8800
    227    228    236   1    109.5000    292.8800
    227    228    237   1    109.5000    292.8800
    235    228    236   1    107.8000    276.1440
    235    228    237   1    107.8000    276.1440
    236    228    237   1    107.8000    276.1440
    226    229    230   1    120.0000    527.1840
    226    229    238   1    120.0000    292.8800
    230    229    238   1    120.0000    292.8800
    223    230    229   1    120.0000    527.1840
    223    230    239   1    120.0000    292.8800
    229    230    239   1    120.0000    292.8800
    222    231    240   1    110.7000    313.8000
    222    231    241   1    110.7000    313.8000
    222    231    242   1    112.7000    488.2728
    240    231    241   1    107.8000    276.1440
    240    231    242   1    110.7000    313.8000
    241    231    242   1    110.7000    313.8000
    231    242    243   1    112.1750    585.7600
    231    242    251   1    112.7000    488.2728
    231    242    252   1    110.7000    313.8000
    243    242    251   1    112.1750    585.7600
    243    242    252   1    109.5000    292.8800
    251    242    252   1    110.7000    313.8000
    242    243    244   1    120.0000    585.7600
    242    243    250   1    120.0000    585.7600
    244    243    250   1    120.0000    527.1840
    243    244    245   1    120.0000    527.1840
    243    244    253   1    120.0000    292.8800
    245    244    253   1    120.0000    292.8800
    244    245    246   1    120.0000    527.1840
    244    245    254   1    120.0000    292.8800
    246    245    254   1    120.0000    292.8800
    245    246    247   1    120.0000    585.7600
    245    246    249   1    120.0000    527.1840
    247    246    249   1    120.0000    585.7600
    246    247    248   1    111.0000    627.6000
    247    248    255   1    109.5000    292.8800
    247    248    256   1    109.5000    292.8800
    247    248    257   1    109.5000    292.8800
    255    248    256   1    107.8000    276.1440
    255    248    257   1    107.8000    276.1440
    256    248    257   1    107.8000    276.1440
    246    249    250   1    120.0000    527.1840
    246    249    258   1    120.0000    292.8800
    250    249    258   1    120.0000    292.8800
    243    250    249   1    120.0000    527.1840
    243    250    259   1    120.0000    292.8800
    249    250    259   1    120.0000    292.8800
    242    251    260   1    110.7000    313.8000
    242    251    261   1    110.7000    313.8000
    242    251    262   1    112.7000    488.2728
    260    251    261   1    107.8000    276.1440
    260    251    262   1    110.7000    313.8000
    261    251    262   1    110.7000    313.8000
    251    262    263   1    112.1750    585.7600
    251    262    271   1    112.7000    488.2728
    251    262    272   1    110.7000    313.8000
    263    262    271   1    112.1750    585.7600
    263    262    272   1    109.5000    292.8800
    271    262    272   1    110.7000    313.8000
    262    263    264   1    120.0000    585.7600
    262    263    270   1    120.0000    585.7600
    264    263    270   1    120.0000    527.1840
    263    264    265   1    120.0000    527.1840
    263    264    273   1    120.0000    292.8800
    265    264    273   1    120.0000    292.8800
    264    265    266   1    120.0000    527.1840
    264    265    274   1    120.0000    292.8800
    266    265    274   1    120.0000    292.8800
    265    266    267   1    120.0000    585.7600
    265    266    269   1    120.0000    527.1840
    267    266    269   1    120.0000    585.7600
    266    267    268   1    111.0000    627.6000
    267    268    275   1    109.5000    292.8800
    267    268    276   1    109.5000    292.8800
    267    268    277   1    109.5000    292.8800
    275    268    276   1    107.8000    276.1440
    275    268    277   1    107.8000    276.1440
    276    268    277   1    107.8000    276.1440
    266    269    270   1    120.0000    527.1840
    266    269    278   1    120.0000    292.8800
    270    269    278   1    120.0000    292.8800
    263    270    269   1    120.0000    527.1840
    263    270    279   1    120.0000    292.8800
    269    270    279   1    120.0000    292.8800
    262    271    280   1    110.7000    313.8000
    262    271    281   1    110.7000    313.8000
    262    271    282   1    112.7000    488.2728
    280    271    281   1    107.8000    276.1440
    280    271    282   1    110.7000    313.8000
    281    271    282   1    110.7000    313.8000
    271    282    283   1    112.1750    585.7600
    271    282    291   1    112.7000    488.2728
    271    282    292   1    110.7000    313.8000
    283    282    291   1    112.1750    585.7600
    283    282    292   1    109.5000    292.8800
    291    282    292   1    110.7000    313.8000
    282    283    284   1    120.0000    585.7600
    282    283    290   1    120.0000    585.7600
    284    283    290   1    120.0000    527.1840
    283    284    285   1    120.0000    527.1840
    283    284    293   1    120.0000    292.8800
    285    284    293   1    120.0000    292.8800
    284    285    286   1    120.0000    527.1840
    284    285    294   1    120.0000    292.8800
    286    285    294   1    120.0000    292.8800
    285    286    287   1    120.0000    585.7600
    285    286    289   1    120.0000    527.1840
    287    286    289   1    120.0000    585.7600
    286    287    288   1    111.0000    627.6000
    287    288    295   1    109.5000    292.8800
    287    288    296   1    109.5000    292.8800
    287    288    297   1    109.5000    292.8800
    295    288    296   1    107.8000    276.1440
    295    288    297   1    107.8000    276.1440
    296    288    297   1    107.8000    276.1440
    286    289    290   1    120.0000    527.1840
    286    289    298   1    120.0000    292.8800
    290    289    298   1    120.0000    292.8800
    283    290    289   1    120.0000    527.1840
    283    290    299   1    120.0000    292.8800
    289    290    299   1    120.0000    292.8800
    282    291    300   1    110.7000    313.8000
    282    291    301   1    110.7000    313.8000
    282    291    302   1    112.7000    488.2728
    300    291    301   1    107.8000    276.1440
    300    291    302   1    110.7000    313.8000
    301    291    302   1    110.7000    313.8000
    291    302    303   1    112.1750    585.7600
    291    302    311   1    112.7000    488.2728
    291    302    312   1    110.7000    313.8000
    303    302    311   1    112.1750    585.7600
    303    302    312   1    109.5000    292.8800
    311    302    312   1    110.7000    313.8000
    302    303    304   1    120.0000    585.7600
    302    303    310   1    120.0000    585.7600
    304    303    310   1    120.0000    527.1840
    303    304    305   1    120.0000    527.1840
    303    304    313   1    120.0000    292.8800
    305    304    313   1    120.0000    292.8800
    304    305    306   1    120.0000    527.1840
    304    305    314   1    120.0000    292.8800
    306    305    314   1    120.0000    292.8800
    305    306    307   1    120.0000    585.7600
    305    306    309   1    120.0000    527.1840
    307    306    309   1    120.0000    585.7600
    306    307    308   1    111.0000    627.6000
    307    308    315   1    109.5000    292.8800
    307    308    316   1    109.5000    292.8800
    307    308    317   1    109.5000    292.8800
    315    308    316   1    107.8000    276.1440
    315    308    317   1    107.8000    276.1440
    316    308    317   1    107.8000    276.1440
    306    309    310   1    120.0000    527.1840
    306    309    318   1    120.0000    292.8800
    310    309    318   1    120.0000    292.8800
    303    310    309   1    120.0000    527.1840
    303    310    319   1    120.0000    292.8800
    309    310    319   1    120.0000    292.8800
    302    311    320   1    110.7000    313.8000
    302    311    321   1    110.7000    313.8000
    302    311    322   1    112.7000    488.2728
    320    311    321   1    107.8000    276.1440
    320    311    322   1    110.7000    313.8000
    321    311    322   1    110.7000    313.8000
    311    322    323   1    112.1750    585.7600
    311    322    331   1    112.7000    488.2728
    311    322    332   1    110.7000    313.8000
    323    322    331   1    112.1750    585.7600
    323    322    332   1    109.5000    292.8800
    331    322    332   1    110.7000    313.8000
    322    323    324   1    120.0000    585.7600
    322    323    330   1    120.0000    585.7600
    324    323    330   1    120.0000    527.1840
    323    324    325   1    120.0000    527.1840
    323    324    333   1    120.0000    292.8800
    325    324    333   1    120.0000    292.8800
    324    325    326   1    120.0000    527.1840
    324    325    334   1    120.0000    292.8800
    326    325    334   1    120.0000    292.8800
    325    326    327   1    120.0000    585.7600
    325    326    329   1    120.0000    527.1840
    327    326    329   1    120.0000    585.7600
    326    327    328   1    111.0000    627.6000
    327    328    335   1    109.5000    292.8800
    327    328    336   1    109.5000    292.8800
    327    328    337   1    109.5000    292.8800
    335    328    336   1    107.8000    276.1440
    335    328    337   1    107.8000    276.1440
    336    328    337   1    107.8000    276.1440
    326    329    330   1    120.0000    527.1840
    326    329    338   1    120.0000    292.8800
    330    329    338   1    120.0000    292.8800
    323    330    329   1    120.0000    527.1840
    323    330    339   1    120.0000    292.8800
    329    330    339   1    120.0000    292.8800
    322    331    340   1    110.7000    313.8000
    322    331    341   1    110.7000    313.8000
    322    331    342   1    112.7000    488.2728
    340    331    341   1    107.8000    276.1440
    340    331    342   1    110.7000    313.8000
    341    331    342   1    110.7000    313.8000
    331    342    343   1    112.1750    585.7600
    331    342    351   1    112.7000    488.2728
    331    342    352   1    110.7000    313.8000
    343    342    351   1    112.1750    585.7600
    343    342    352   1    109.5000    292.8800
    351    342    352   1    110.7000    313.8000
    342    343    344   1    120.0000    585.7600
    342    343    350   1    120.0000    585.7600
    344    343    350   1    120.0000    527.1840
    343    344    345   1    120.0000    527.1840
    343    344    353   1    120.0000    292.8800
    345    344    353   1    120.0000    292.8800
    344    345    346   1    120.0000    527.1840
    344    345    354   1    120.0000    292.8800
    346    345    354   1    120.0000    292.8800
    345    346    347   1    120.0000    585.7600
    345    346    349   1    120.0000    527.1840
    347    346    349   1    120.0000    585.7600
    346    347    348   1    111.0000    627.6000
    347    348    355   1    109.5000    292.8800
    347    348    356   1    109.5000    292.8800
    347    348    357   1    109.5000    292.8800
    355    348    356   1    107.8000    276.1440
    355    348    357   1    107.8000    276.1440
    356    348    357   1    107.8000    276.1440
    346    349    350   1    120.0000    527.1840
    346    349    358   1    120.0000    292.8800
    350    349    358   1    120.0000    292.8800
    343    350    349   1    120.0000    527.1840
    343    350    359   1    120.0000    292.8800
    349    350    359   1    120.0000    292.8800
    342    351    360   1    110.7000    313.8000
    342    351    361   1    110.7000    313.8000
    342    351    362   1    112.7000    488.2728
    360    351    361   1    107.8000    276.1440
    360    351    362   1    110.7000    313.8000
    361    351    362   1    110.7000    313.8000
    351    362    363   1    112.1750    585.7600
    351    362    371   1    112.7000    488.2728
    351    362    372   1    110.7000    313.8000
    363    362    371   1    112.1750    585.7600
    363    362    372   1    109.5000    292.8800
    371    362    372   1    110.7000    313.8000
    362    363    364   1    120.0000    585.7600
    362    363    370   1    120.0000    585.7600
    364    363    370   1    120.0000    527.1840
    363    364    365   1    120.0000    527.1840
    363    364    373   1    120.0000    292.8800
    365    364    373   1    120.0000    292.8800
    364    365    366   1    120.0000    527.1840
    364    365    374   1    120.0000    292.8800
    366    365    374   1    120.0000    292.8800
    365    366    367   1    120.0000    585.7600
    365    366    369   1    120.0000    527.1840
    367    366    369   1    120.0000    585.7600
    366    367    368   1    111.0000    627.6000
    367    368    375   1    109.5000    292.8800
    367    368    376   1    109.5000    292.8800
    367    368    377   1    109.5000    292.8800
    375    368    376   1    107.8000    276.1440
    375    368    377   1    107.8000    276.1440
    376    368    377   1    107.8000    276.1440
    366    369    370   1    120.0000    527.1840
    366    369    378   1    120.0000    292.8800
    370    369    378   1    120.0000    292.8800
    363    370    369   1    120.0000    527.1840
    363    370    379   1    120.0000    292.8800
    369    370    379   1    120.0000    292.8800
    362    371    380   1    110.7000    313.8000
    362    371    381   1    110.7000    313.8000
    362    371    382   1    112.7000    488.2728
    380    371    381   1    107.8000    276.1440
    380    371    382   1    110.7000    313.8000
    381    371    382   1    110.7000    313.8000
    371    382    383   1    112.1750    585.7600
    371    382    391   1    112.7000    488.2728
    371    382    392   1    110.7000    313.8000
    383    382    391   1    112.1750    585.7600
    383    382    392   1    109.5000    292.8800
    391    382    392   1    110.7000    313.8000
    382    383    384   1    120.0000    585.7600
    382    383    390   1    120.0000    585.7600
    384    383    390   1    120.0000    527.1840
    383    384    385   1    120.0000    527.1840
    383    384    393   1    120.0000    292.8800
    385    384    393   1    120.0000    292.8800
    384    385    386   1    120.0000    527.1840
    384    385    394   1    120.0000    292.8800
    386    385    394   1    120.0000    292.8800
    385    386    387   1    120.0000    585.7600
    385    386    389   1    120.0000    527.1840
    387    386    389   1    120.0000    585.7600
    386    387    388   1    111.0000    627.6000
    387    388    395   1    109.5000    292.8800
    387    388    396   1    109.5000    292.8800
    387    388    397   1    109.5000    292.8800
    395    388    396   1    107.8000    276.1440
    395    388    397   1    107.8000    276.1440
    396    388    397   1    107.8000    276.1440
    386    389    390   1    120.0000    527.1840
    386    389    398   1    120.0000    292.8800
    390    389    398   1    120.0000    292.8800
    383    390    389   1    120.0000    527.1840
    383    390    399   1    120.0000    292.8800
    389    390    399   1    120.0000    292.8800
    382    391    400   1    110.7000    313.8000
    382    391    401   1    110.7000    313.8000
    382    391    402   1    110.7000    313.8000
    400    391    401   1    107.8000    276.1440
    400    391    402   1    107.8000    276.1440
    401    391    402   1    107.8000    276.1440

[ dihedrals ]
; Proper dihedrals
     10      1      2      3   5     0.00000     0.34727     0.00000  0.0
     10      1      2      9   5     0.00000     0.34727     0.00000  0.0
     11      1      2      3   5     0.00000     0.00000     0.00000  0.0
     11      1      2      9   5     0.00000     0.00000     0.00000  0.0
     21      1      2      3   5     0.00000     0.00000     0.00000  0.0
     21      1      2      9   5     0.00000     0.00000     0.00000  0.0
      2      1     10     19   5     0.00000     0.00000     3.61498  0.0
      2      1     10     20   5     0.00000     0.00000     3.61498  0.0
      2      1     10     22   5    -0.30962     3.11290    -3.95806  0.0
     11      1     10     19   5     0.00000     0.00000     1.25520  0.0
     11      1     10     20   5     0.00000     0.00000     1.25520  0.0
     11      1     10     22   5     0.00000     0.00000     1.25520  0.0
     21      1     10     19   5     0.00000     0.00000     1.25520  0.0
     21      1     10     20   5     0.00000     0.00000     1.25520  0.0
     21      1     10     22   5     0.00000     0.00000     1.25520  0.0
      1      2      3      4   5     0.00000    30.33400     0.00000  0.0
      1      2      3     12   5     0.00000    30.33400     0.00000  0.0
      9      2      3      4   5     0.00000    30.33400     0.00000  0.0
      9      2      3     12   5     0.00000    30.33400     0.00000  0.0
      1      2      9      8   5     0.00000    30.33400     0.00000  0.0
      1      2      9     18   5     0.00000    30.33400     0.00000  0.0
      3      2      9      8   5     0.00000    30.33400     0.00000  0.0
      3      2      9     18   5     0.00000    30.33400     0.00000  0.0
      2      3      4      5   5     0.00000    30.33400     0.00000  0.0
      2      3      4     13   5     0.00000    30.33400     0.00000  0.0
     12      3      4      5   5     0.00000    30.33400     0.00000  0.0
     12      3      4     13   5     0.00000    30.33400     0.00000  0.0
      3      4      5      6   5     0.00000    30.33400     0.00000  0.0
      3      4      5      8   5     0.00000    30.33400     0.00000  0.0
     13      4      5      6   5     0.00000    30.33400     0.00000  0.0
     13      4      5      8   5     0.00000    30.33400     0.00000  0.0
      4      5      6      7   5     0.00000    16.38454     0.00000  0.0
      8      5      6      7   5     0.00000    16.38454     0.00000  0.0
      4      5      8      9   5     0.00000    30.33400     0.00000  0.0
      4      5      8     17   5     0.00000    30.33400     0.00000  0.0
      6      5      8      9   5     0.00000    30.33400     0.00000  0.0
      6      5      8     17   5     0.00000    30.33400     0.00000  0.0
      5      6      7     14   5     0.00000     0.00000     0.67362  0.0
      5      6      7     15   5     0.00000     0.00000     0.67362  0.0
      5      6      7     16   5     0.00000     0.00000     0.67362  0.0
      5      8      9      2   5     0.00000    30.33400     0.00000  0.0
      5      8      9     18   5     0.00000    30.33400     0.00000  0.0
     17      8      9      2   5     0.00000    30.33400     0.00000  0.0
     17      8      9     18   5     0.00000    30.33400     0.00000  0.0
      1     10     22     23   5    -0.30962     3.11290    -3.95806  0.0
      1     10     22     31   5     4.74884    -0.63178     1.67360  0.0
      1     10     22     32   5     0.00000     0.00000     1.25520  0.0
     19     10     22     23   5     0.00000     0.00000     3.61498  0.0
     19     10     22     31   5     0.00000     0.00000     1.25520  0.0
     19     10     22     32   5     0.00000     0.00000     1.25520  0.0
     20     10     22     23   5     0.00000     0.00000     3.61498  0.0
     20     10     22     31   5     0.00000     0.00000     1.25520  0.0
     20     10     22     32   5     0.00000     0.00000     1.25520  0.0
     10     22     23     24   5     0.00000     0.34727     0.00000  0.0
     10     22     23     30   5     0.00000     0.34727     0.00000  0.0
     31     22     23     24   5     0.00000     0.34727     0.00000  0.0
     31     22     23     30   5     0.00000     0.34727     0.00000  0.0
     32     22     23     24   5     0.00000     0.00000     0.00000  0.0
     32     22     23     30   5     0.00000     0.00000     0.00000  0.0
     10     22     31     40   5     0.00000     0.00000     1.25520  0.0
     10     22     31     41   5     0.00000     0.00000     1.25520  0.0
     10     22     31     42   5     4.74884    -0.63178     1.67360  0.0
     23     22     31     40   5     0.00000     0.00000     3.61498  0.0
     23     22     31     41   5     0.00000     0.00000     3.61498  0.0
     23     22     31     42   5    -0.30962     3.11290    -3.95806  0.0
     32     22     31     40   5     0.00000     0.00000     1.25520  0.0
     32     22     31     41   5     0.00000     0.00000     1.25520  0.0
     32     22     31     42   5     0.00000     0.00000     1.25520  0.0
     22     23     24     25   5     0.00000    30.33400     0.00000  0.0
     22     23     24     33   5     0.00000    30.33400     0.00000  0.0
     30     23     24     25   5     0.00000    30.33400     0.00000  0.0
     30     23     24     33   5     0.00000    30.33400     0.00000  0.0
     22     23     30     29   5     0.00000    30.33400     0.00000  0.0
     22     23     30     39   5     0.00000    30.33400     0.00000  0.0
     24     23     30     29   5     0.00000    30.33400     0.00000  0.0
     24     23     30     39   5     0.00000    30.33400     0.00000  0.0
     23     24     25     26   5     0.00000    30.33400     0.00000  0.0
     23     24     25     34   5     0.00000    30.33400     0.00000  0.0
     33     24     25     26   5     0.00000    30.33400     0.00000  0.0
     33     24     25     34   5     0.00000    30.33400     0.00000  0.0
     24     25     26     27   5     0.00000    30.33400     0.00000  0.0
     24     25     26     29   5     0.00000    30.33400     0.00000  0.0
     34     25     26     27   5     0.00000    30.33400     0.00000  0.0
     34     25     26     29   5     0.00000    30.33400     0.00000  0.0
     25     26     27     28   5     0.00000    16.38454     0.00000  0.0
     29     26     27     28   5     0.00000    16.38454     0.00000  0.0
     25     26     29     30   5     0.00000    30.33400     0.00000  0.0
     25     26     29     38   5     0.00000    30.33400     0.00000  0.0
     27     26     29     30   5     0.00000    30.33400     0.00000  0.0
     27     26     29     38   5     0.00000    30.33400     0.00000  0.0
     26     27     28     35   5     0.00000     0.00000     0.67362  0.0
     26     27     28     36   5     0.00000     0.00000     0.67362  0.0
     26     27     28     37   5     0.00000     0.00000     0.67362  0.0
     26     29     30     23   5     0.00000    30.33400     0.00000  0.0
     26     29     30     39   5     0.00000    30.33400     0.00000  0.0
     38     29     30     23   5     0.00000    30.33400     0.00000  0.0
     38     29     30     39   5     0.00000    30.33400     0.00000  0.0
     22     31     42     43   5    -0.30962     3.11290    -3.95806  0.0
     22     31     42     51   5     4.74884    -0.63178     1.67360  0.0
     22     31     42     52   5     0.00000     0.00000     1.25520  0.0
     40     31     42     43   5     0.00000     0.00000     3.61498  0.0
     40     31     42     51   5     0.00000     0.00000     1.25520  0.0
     40     31     42     52   5     0.00000     0.00000     1.25520  0.0
     41     31     42     43   5     0.00000     0.00000     3.61498  0.0
     41     31     42     51   5     0.00000     0.00000     1.25520  0.0
     41     31     42     52   5     0.00000     0.00000     1.25520  0.0
     31     42     43     44   5     0.00000     0.34727     0.00000  0.0
     31     42     43     50   5     0.00000     0.34727     0.00000  0.0
     51     42     43     44   5     0.00000     0.34727     0.00000  0.0
     51     42     43     50   5     0.00000     0.34727     0.00000  0.0
     52     42     43     44   5     0.00000     0.00000     0.00000  0.0
     52     42     43     50   5     0.00000     0.00000     0.00000  0.0
     31     42     51     60   5     0.00000     0.00000     1.25520  0.0
     31     42     51     61   5     0.00000     0.00000     1.25520  0.0
     31     42     51     62   5     4.74884    -0.63178     1.67360  0.0
     43     42     51     60   5     0.00000     0.00000     3.61498  0.0
     43     42     51     61   5     0.00000     0.00000     3.61498  0.0
     43     42     51     62   5    -0.30962     3.11290    -3.95806  0.0
     52     42     51     60   5     0.00000     0.00000     1.25520  0.0
     52     42     51     61   5     0.00000     0.00000     1.25520  0.0
     52     42     51     62   5     0.00000     0.00000     1.25520  0.0
     42     43     44     45   5     0.00000    30.33400     0.00000  0.0
     42     43     44     53   5     0.00000    30.33400     0.00000  0.0
     50     43     44     45   5     0.00000    30.33400     0.00000  0.0
     50     43     44     53   5     0.00000    30.33400     0.00000  0.0
     42     43     50     49   5     0.00000    30.33400     0.00000  0.0
     42     43     50     59   5     0.00000    30.33400     0.00000  0.0
     44     43     50     49   5     0.00000    30.33400     0.00000  0.0
     44     43     50     59   5     0.00000    30.33400     0.00000  0.0
     43     44     45     46   5     0.00000    30.33400     0.00000  0.0
     43     44     45     54   5     0.00000    30.33400     0.00000  0.0
     53     44     45     46   5     0.00000    30.33400     0.00000  0.0
     53     44     45     54   5     0.00000    30.33400     0.00000  0.0
     44     45     46     47   5     0.00000    30.33400     0.00000  0.0
     44     45     46     49   5     0.00000    30.33400     0.00000  0.0
     54     45     46     47   5     0.00000    30.33400     0.00000  0.0
     54     45     46     49   5     0.00000    30.33400     0.00000  0.0
     45     46     47     48   5     0.00000    16.38454     0.00000  0.0
     49     46     47     48   5     0.00000    16.38454     0.00000  0.0
     45     46     49     50   5     0.00000    30.33400     0.00000  0.0
     45     46     49     58   5     0.00000    30.33400     0.00000  0.0
     47     46     49     50   5     0.00000    30.33400     0.00000  0.0
     47     46     49     58   5     0.00000    30.33400     0.00000  0.0
     46     47     48     55   5     0.00000     0.00000     0.67362  0.0
     46     47     48     56   5     0.00000     0.00000     0.67362  0.0
     46     47     48     57   5     0.00000     0.00000     0.67362  0.0
     46     49     50     43   5     0.00000    30.33400     0.00000  0.0
     46     49     50     59   5     0.00000    30.33400     0.00000  0.0
     58     49     50     43   5     0.00000    30.33400     0.00000  0.0
     58     49     50     59   5     0.00000    30.33400     0.00000  0.0
     42     51     62     63   5    -0.30962     3.11290    -3.95806  0.0
     42     51     62     71   5     4.74884    -0.63178     1.67360  0.0
     42     51     62     72   5     0.00000     0.00000     1.25520  0.0
     60     51     62     63   5     0.00000     0.00000     3.61498  0.0
     60     51     62     71   5     0.00000     0.00000     1.25520  0.0
     60     51     62     72   5     0.00000     0.00000     1.25520  0.0
     61     51     62     63   5     0.00000     0.00000     3.61498  0.0
     61     51     62     71   5     0.00000     0.00000     1.25520  0.0
     61     51     62     72   5     0.00000     0.00000     1.25520  0.0
     51     62     63     64   5     0.00000     0.34727     0.00000  0.0
     51     62     63     70   5     0.00000     0.34727     0.00000  0.0
     71     62     63     64   5     0.00000     0.34727     0.00000  0.0
     71     62     63     70   5     0.00000     0.34727     0.00000  0.0
     72     62     63     64   5     0.00000     0.00000     0.00000  0.0
     72     62     63     70   5     0.00000     0.00000     0.00000  0.0
     51     62     71     80   5     0.00000     0.00000     1.25520  0.0
     51     62     71     81   5     0.00000     0.00000     1.25520  0.0
     51     62     71     82   5     4.74884    -0.63178     1.67360  0.0
     63     62     71     80   5     0.00000     0.00000     3.61498  0.0
     63     62     71     81   5     0.00000     0.00000     3.61498  0.0
     63     62     71     82   5    -0.30962     3.11290    -3.95806  0.0
     72     62     71     80   5     0.00000     0.00000     1.25520  0.0
     72     62     71     81   5     0.00000     0.00000     1.25520  0.0
     72     62     71     82   5     0.00000     0.00000     1.25520  0.0
     62     63     64     65   5     0.00000    30.33400     0.00000  0.0
     62     63     64     73   5     0.00000    30.33400     0.00000  0.0
     70     63     64     65   5     0.00000    30.33400     0.00000  0.0
     70     63     64     73   5     0.00000    30.33400     0.00000  0.0
     62     63     70     69   5     0.00000    30.33400     0.00000  0.0
     62     63     70     79   5     0.00000    30.33400     0.00000  0.0
     64     63     70     69   5     0.00000    30.33400     0.00000  0.0
     64     63     70     79   5     0.00000    30.33400     0.00000  0.0
     63     64     65     66   5     0.00000    30.33400     0.00000  0.0
     63     64     65     74   5     0.00000    30.33400     0.00000  0.0
     73     64     65     66   5     0.00000    30.33400     0.00000  0.0
     73     64     65     74   5     0.00000    30.33400     0.00000  0.0
     64     65     66     67   5     0.00000    30.33400     0.00000  0.0
     64     65     66     69   5     0.00000    30.33400     0.00000  0.0
     74     65     66     67   5     0.00000    30.33400     0.00000  0.0
     74     65     66     69   5     0.00000    30.33400     0.00000  0.0
     65     66     67     68   5     0.00000    16.38454     0.00000  0.0
     69     66     67     68   5     0.00000    16.38454     0.00000  0.0
     65     66     69     70   5     0.00000    30.33400     0.00000  0.0
     65     66     69     78   5     0.00000    30.33400     0.00000  0.0
     67     66     69     70   5     0.00000    30.33400     0.00000  0.0
     67     66     69     78   5     0.00000    30.33400     0.00000  0.0
     66     67     68     75   5     0.00000     0.00000     0.67362  0.0
     66     67     68     76   5     0.00000     0.00000     0.67362  0.0
     66     67     68     77   5     0.00000     0.00000     0.67362  0.0
     66     69     70     63   5     0.00000    30.33400     0.00000  0.0
     66     69     70     79   5     0.00000    30.33400     0.00000  0.0
     78     69     70     63   5     0.00000    30.33400     0.00000  0.0
     78     69     70     79   5     0.00000    30.33400     0.00000  0.0
     62     71     82     83   5    -0.30962     3.11290    -3.95806  0.0
     62     71     82     91   5     4.74884    -0.63178     1.67360  0.0
     62     71     82     92   5     0.00000     0.00000     1.25520  0.0
     80     71     82     83   5     0.00000     0.00000     3.61498  0.0
     80     71     82     91   5     0.00000     0.00000     1.25520  0.0
     80     71     82     92   5     0.00000     0.00000     1.25520  0.0
     81     71     82     83   5     0.00000     0.00000     3.61498  0.0
     81     71     82     91   5     0.00000     0.00000     1.25520  0.0
     81     71     82     92   5     0.00000     0.00000     1.25520  0.0
     71     82     83     84   5     0.00000     0.34727     0.00000  0.0
     71     82     83     90   5     0.00000     0.34727     0.00000  0.0
     91     82     83     84   5     0.00000     0.34727     0.00000  0.0
     91     82     83     90   5     0.00000     0.34727     0.00000  0.0
     92     82     83     84   5     0.00000     0.00000     0.00000  0.0
     92     82     83     90   5     0.00000     0.00000     0.00000  0.0
     71     82     91    100   5     0.00000     0.00000     1.25520  0.0
     71     82     91    101   5     0.00000     0.00000     1.25520  0.0
     71     82     91    102   5     4.74884    -0.63178     1.67360  0.0
     83     82     91    100   5     0.00000     0.00000     3.61498  0.0
     83     82     91    101   5     0.00000     0.00000     3.61498  0.0
     83     82     91    102   5    -0.30962     3.11290    -3.95806  0.0
     92     82     91    100   5     0.00000     0.00000     1.25520  0.0
     92     82     91    101   5     0.00000     0.00000     1.25520  0.0
     92     82     91    102   5     0.00000     0.00000     1.25520  0.0
     82     83     84     85   5     0.00000    30.33400     0.00000  0.0
     82     83     84     93   5     0.00000    30.33400     0.00000  0.0
     90     83     84     85   5     0.00000    30.33400     0.00000  0.0
     90     83     84     93   5     0.00000    30.33400     0.00000  0.0
     82     83     90     89   5     0.00000    30.33400     0.00000  0.0
     82     83     90     99   5     0.00000    30.33400     0.00000  0.0
     84     83     90     89   5     0.00000    30.33400     0.00000  0.0
     84     83     90     99   5     0.00000    30.33400     0.00000  0.0
     83     84     85     86   5     0.00000    30.33400     0.00000  0.0
     83     84     85     94   5     0.00000    30.33400     0.00000  0.0
     93     84     85     86   5     0.00000    30.33400     0.00000  0.0
     93     84     85     94   5     0.00000    30.33400     0.00000  0.0
     84     85     86     87   5     0.00000    30.33400     0.00000  0.0
     84     85     86     89   5     0.00000    30.33400     0.00000  0.0
     94     85     86     87   5     0.00000    30.33400     0.00000  0.0
     94     85     86     89   5     0.00000    30.33400     0.00000  0.0
     85     86     87     88   5     0.00000    16.38454     0.00000  0.0
     89     86     87     88   5     0.00000    16.38454     0.00000  0.0
     85     86     89     90   5     0.00000    30.33400     0.00000  0.0
     85     86     89     98   5     0.00000    30.33400     0.00000  0.0
     87     86     89     90   5     0.00000    30.33400     0.00000  0.0
     87     86     89     98   5     0.00000    30.33400     0.00000  0.0
     86     87     88     95   5     0.00000     0.00000     0.67362  0.0
     86     87     88     96   5     0.00000     0.00000     0.67362  0.0
     86     87     88     97   5     0.00000     0.00000     0.67362  0.0
     86     89     90     83   5     0.00000    30.33400     0.00000  0.0
     86     89     90     99   5     0.00000    30.33400     0.00000  0.0
     98     89     90     83   5     0.00000    30.33400     0.00000  0.0
     98     89     90     99   5     0.00000    30.33400     0.00000  0.0
     82     91    102    103   5    -0.30962     3.11290    -3.95806  0.0
     82     91    102    111   5     4.74884    -0.63178     1.67360  0.0
     82     91    102    112   5     0.00000     0.00000     1.25520  0.0
    100     91    102    103   5     0.00000     0.00000     3.61498  0.0
    100     91    102    111   5     0.00000     0.00000     1.25520  0.0
    100     91    102    112   5     0.00000     0.00000     1.25520  0.0
    101     91    102    103   5     0.00000     0.00000     3.61498  0.0
    101     91    102    111   5     0.00000     0.00000     1.25520  0.0
    101     91    102    112   5     0.00000     0.00000     1.25520  0.0
     91    102    103    104   5     0.00000     0.34727     0.00000  0.0
     91    102    103    110   5     0.00000     0.34727     0.00000  0.0
    111    102    103    104   5     0.00000     0.34727     0.00000  0.0
    111    102    103    110   5     0.00000     0.34727     0.00000  0.0
    112    102    103    104   5     0.00000     0.00000     0.00000  0.0
    112    102    103    110   5     0.00000     0.00000     0.00000  0.0
     91    102    111    120   5     0.00000     0.00000     1.25520  0.0
     91    102    111    121   5     0.00000     0.00000     1.25520  0.0
     91    102    111    122   5     4.74884    -0.63178     1.67360  0.0
    103    102    111    120   5     0.00000     0.00000     3.61498  0.0
    103    102    111    121   5     0.00000     0.00000     3.61498  0.0
    103    102    111    122   5    -0.30962     3.11290    -3.95806  0.0
    112    102    111    120   5     0.00000     0.00000     1.25520  0.0
    112    102    111    121   5     0.00000     0.00000     1.25520  0.0
    112    102    111    122   5     0.00000     0.00000     1.25520  0.0
    102    103    104    105   5     0.00000    30.33400     0.00000  0.0
    102    103    104    113   5     0.00000    30.33400     0.00000  0.0
    110    103    104    105   5     0.00000    30.33400     0.00000  0.0
    110    103    104    113   5     0.00000    30.33400     0.00000  0.0
    102    103    110    109   5     0.00000    30.33400     0.00000  0.0
    102    103    110    119   5     0.00000    30.33400     0.00000  0.0
    104    103    110    109   5     0.00000    30.33400     0.00000  0.0
    104    103    110    119   5     0.00000    30.33400     0.00000  0.0
    103    104    105    106   5     0.00000    30.33400     0.00000  0.0
    103    104    105    114   5     0.00000    30.33400     0.00000  0.0
    113    104    105    106   5     0.00000    30.33400     0.00000  0.0
    113    104    105    114   5     0.00000    30.33400     0.00000  0.0
    104    105    106    107   5     0.00000    30.33400     0.00000  0.0
    104    105    106    109   5     0.00000    30.33400     0.00000  0.0
    114    105    106    107   5     0.00000    30.33400     0.00000  0.0
    114    105    106    109   5     0.00000    30.33400     0.00000  0.0
    105    106    107    108   5     0.00000    16.38454     0.00000  0.0
    109    106    107    108   5     0.00000    16.38454     0.00000  0.0
    105    106    109    110   5     0.00000    30.33400     0.00000  0.0
    105    106    109    118   5     0.00000    30.33400     0.00000  0.0
    107    106    109    110   5     0.00000    30.33400     0.00000  0.0
    107    106    109    118   5     0.00000    30.33400     0.00000  0.0
    106    107    108    115   5     0.00000     0.00000     0.67362  0.0
    106    107    108    116   5     0.00000     0.00000     0.67362  0.0
    106    107    108    117   5     0.00000     0.00000     0.67362  0.0
    106    109    110    103   5     0.00000    30.33400     0.00000  0.0
    106    109    110    119   5     0.00000    30.33400     0.00000  0.0
    118    109    110    103   5     0.00000    30.33400     0.00000  0.0
    118    109    110    119   5     0.00000    30.33400     0.00000  0.0
    102    111    122    123   5    -0.30962     3.11290    -3.95806  0.0
    102    111    122    131   5     4.74884    -0.63178     1.67360  0.0
    102    111    122    132   5     0.00000     0.00000     1.25520  0.0
    120    111    122    123   5     0.00000     0.00000     3.61498  0.0
    120    111    122    131   5     0.00000     0.00000     1.25520  0.0
    120    111    122    132   5     0.00000     0.00000     1.25520  0.0
    121    111    122    123   5     0.00000     0.00000     3.61498  0.0
    121    111    122    131   5     0.00000     0.00000     1.25520  0.0
    121    111    122    132   5     0.00000     0.00000     1.25520  0.0
    111    122    123    124   5     0.00000     0.34727     0.00000  0.0
    111    122    123    130   5     0.00000     0.34727     0.00000  0.0
    131    122    123    124   5     0.00000     0.34727     0.00000  0.0
    131    122    123    130   5     0.00000     0.34727     0.00000  0.0
    132    122    123    124   5     0.00000     0.00000     0.00000  0.0
    132    122    123    130   5     0.00000     0.00000     0.00000  0.0
    111    122    131    140   5     0.00000     0.00000     1.25520  0.0
    111    122    131    141   5     0.00000     0.00000     1.25520  0.0
    111    122    131    142   5     4.74884    -0.63178     1.67360  0.0
    123    122    131    140   5     0.00000     0.00000     3.61498  0.0
    123    122    131    141   5     0.00000     0.00000     3.61498  0.0
    123    122    131    142   5    -0.30962     3.11290    -3.95806  0.0
    132    122    131    140   5     0.00000     0.00000     1.25520  0.0
    132    122    131    141   5     0.00000     0.00000     1.25520  0.0
    132    122    131    142   5     0.00000     0.00000     1.25520  0.0
    122    123    124    125   5     0.00000    30.33400     0.00000  0.0
    122    123    124    133   5     0.00000    30.33400     0.00000  0.0
    130    123    124    125   5     0.00000    30.33400     0.00000  0.0
    130    123    124    133   5     0.00000    30.33400     0.00000  0.0
    122    123    130    129   5     0.00000    30.33400     0.00000  0.0
    122    123    130    139   5     0.00000    30.33400     0.00000  0.0
    124    123    130    129   5     0.00000    30.33400     0.00000  0.0
    124    123    130    139   5     0.00000    30.33400     0.00000  0.0
    123    124    125    126   5     0.00000    30.33400     0.00000  0.0
    123    124    125    134   5     0.00000    30.33400     0.00000  0.0
    133    124    125    126   5     0.00000    30.33400     0.00000  0.0
    133    124    125    134   5     0.00000    30.33400     0.00000  0.0
    124    125    126    127   5     0.00000    30.33400     0.00000  0.0
    124    125    126    129   5     0.00000    30.33400     0.00000  0.0
    134    125    126    127   5     0.00000    30.33400     0.00000  0.0
    134    125    126    129   5     0.00000    30.33400     0.00000  0.0
    125    126    127    128   5     0.00000    16.38454     0.00000  0.0
    129    126    127    128   5     0.00000    16.38454     0.00000  0.0
    125    126    129    130   5     0.00000    30.33400     0.00000  0.0
    125    126    129    138   5     0.00000    30.33400     0.00000  0.0
    127    126    129    130   5     0.00000    30.33400     0.00000  0.0
    127    126    129    138   5     0.00000    30.33400     0.00000  0.0
    126    127    128    135   5     0.00000     0.00000     0.67362  0.0
    126    127    128    136   5     0.00000     0.00000     0.67362  0.0
    126    127    128    137   5     0.00000     0.00000     0.67362  0.0
    126    129    130    123   5     0.00000    30.33400     0.00000  0.0
    126    129    130    139   5     0.00000    30.33400     0.00000  0.0
    138    129    130    123   5     0.00000    30.33400     0.00000  0.0
    138    129    130    139   5     0.00000    30.33400     0.00000  0.0
    122    131    142    143   5    -0.30962     3.11290    -3.95806  0.0
    122    131    142    151   5     4.74884    -0.63178     1.67360  0.0
    122    131    142    152   5     0.00000     0.00000     1.25520  0.0
    140    131    142    143   5     0.00000     0.00000     3.61498  0.0
    140    131    142    151   5     0.00000     0.00000     1.25520  0.0
    140    131    142    152   5     0.00000     0.00000     1.25520  0.0
    141    131    142    143   5     0.00000     0.00000     3.61498  0.0
    141    131    142    151   5     0.00000     0.00000     1.25520  0.0
    141    131    142    152   5     0.00000     0.00000     1.25520  0.0
    131    142    143    144   5     0.00000     0.34727     0.00000  0.0
    131    142    143    150   5     0.00000     0.34727     0.00000  0.0
    151    142    143    144   5     0.00000     0.34727     0.00000  0.0
    151    142    143    150   5     0.00000     0.34727     0.00000  0.0
    152    142    143    144   5     0.00000     0.00000     0.00000  0.0
    152    142    143    150   5     0.00000     0.00000     0.00000  0.0
    131    142    151    160   5     0.00000     0.00000     1.25520  0.0
    131    142    151    161   5     0.00000     0.00000     1.25520  0.0
    131    142    151    162   5     4.74884    -0.63178     1.67360  0.0
    143    142    151    160   5     0.00000     0.00000     3.61498  0.0
    143    142    151    161   5     0.00000     0.00000     3.61498  0.0
    143    142    151    162   5    -0.30962     3.11290    -3.95806  0.0
    152    142    151    160   5     0.00000     0.00000     1.25520  0.0
    152    142    151    161   5     0.00000     0.00000     1.25520  0.0
    152    142    151    162   5     0.00000     0.00000     1.25520  0.0
    142    143    144    145   5     0.00000    30.33400     0.00000  0.0
    142    143    144    153   5     0.00000    30.33400     0.00000  0.0
    150    143    144    145   5     0.00000    30.33400     0.00000  0.0
    150    143    144    153   5     0.00000    30.33400     0.00000  0.0
    142    143    150    149   5     0.00000    30.33400     0.00000  0.0
    142    143    150    159   5     0.00000    30.33400     0.00000  0.0
    144    143    150    149   5     0.00000    30.33400     0.00000  0.0
    144    143    150    159   5     0.00000    30.33400     0.00000  0.0
    143    144    145    146   5     0.00000    30.33400     0.00000  0.0
    143    144    145    154   5     0.00000    30.33400     0.00000  0.0
    153    144    145    146   5     0.00000    30.33400     0.00000  0.0
    153    144    145    154   5     0.00000    30.33400     0.00000  0.0
    144    145    146    147   5     0.00000    30.33400     0.00000  0.0
    144    145    146    149   5     0.00000    30.33400     0.00000  0.0
    154    145    146    147   5     0.00000    30.33400     0.00000  0.0
    154    145    146    149   5     0.00000    30.33400     0.00000  0.0
    145    146    147    148   5     0.00000    16.38454     0.00000  0.0
    149    146    147    148   5     0.00000    16.38454     0.00000  0.0
    145    146    149    150   5     0.00000    30.33400     0.00000  0.0
    145    146    149    158   5     0.00000    30.33400     0.00000  0.0
    147    146    149    150   5     0.00000    30.33400     0.00000  0.0
    147    146    149    158   5     0.00000    30.33400     0.00000  0.0
    146    147    148    155   5     0.00000     0.00000     0.67362  0.0
    146    147    148    156   5     0.00000     0.00000     0.67362  0.0
    146    147    148    157   5     0.00000     0.00000     0.67362  0.0
    146    149    150    143   5     0.00000    30.33400     0.00000  0.0
    146    149    150    159   5     0.00000    30.33400     0.00000  0.0
    158    149    150    143   5     0.00000    30.33400     0.00000  0.0
    158    149    150    159   5     0.00000    30.33400     0.00000  0.0
    142    151    162    163   5    -0.30962     3.11290    -3.95806  0.0
    142    151    162    171   5     4.74884    -0.63178     1.67360  0.0
    142    151    162    172   5     0.00000     0.00000     1.25520  0.0
    160    151    162    163   5     0.00000     0.00000     3.61498  0.0
    160    151    162    171   5     0.00000     0.00000     1.25520  0.0
    160    151    162    172   5     0.00000     0.00000     1.25520  0.0
    161    151    162    163   5     0.00000     0.00000     3.61498  0.0
    161    151    162    171   5     0.00000     0.00000     1.25520  0.0
    161    151    162    172   5     0.00000     0.00000     1.25520  0.0
    151    162    163    164   5     0.00000     0.34727     0.00000  0.0
    151    162    163    170   5     0.00000     0.34727     0.00000  0.0
    171    162    163    164   5     0.00000     0.34727     0.00000  0.0
    171    162    163    170   5     0.00000     0.34727     0.00000  0.0
    172    162    163    164   5     0.00000     0.00000     0.00000  0.0
    172    162    163    170   5     0.00000     0.00000     0.00000  0.0
    151    162    171    180   5     0.00000     0.00000     1.25520  0.0
    151    162    171    181   5     0.00000     0.00000     1.25520  0.0
    151    162    171    182   5     4.74884    -0.63178     1.67360  0.0
    163    162    171    180   5     0.00000     0.00000     3.61498  0.0
    163    162    171    181   5     0.00000     0.00000     3.61498  0.0
    163    162    171    182   5    -0.30962     3.11290    -3.95806  0.0
    172    162    171    180   5     0.00000     0.00000     1.25520  0.0
    172    162    171    181   5     0.00000     0.00000     1.25520  0.0
    172    162    171    182   5     0.00000     0.00000     1.25520  0.0
    162    163    164    165   5     0.00000    30.33400     0.00000  0.0
    162    163    164    173   5     0.00000    30.33400     0.00000  0.0
    170    163    164    165   5     0.00000    30.33400     0.00000  0.0
    170    163    164    173   5     0.00000    30.33400     0.00000  0.0
    162    163    170    169   5     0.00000    30.33400     0.00000  0.0
    162    163    170    179   5     0.00000    30.33400     0.00000  0.0
    164    163    170    169   5     0.00000    30.33400     0.00000  0.0
    164    163    170    179   5     0.00000    30.33400     0.00000  0.0
    163    164    165    166   5     0.00000    30.33400     0.00000  0.0
    163    164    165    174   5     0.00000    30.33400     0.00000  0.0
    173    164    165    166   5     0.00000    30.33400     0.00000  0.0
    173    164    165    174   5     0.00000    30.33400     0.00000  0.0
    164    165    166    167   5     0.00000    30.33400     0.00000  0.0
    164    165    166    169   5     0.00000    30.33400     0.00000  0.0
    174    165    166    167   5     0.00000    30.33400     0.00000  0.0
    174    165    166    169   5     0.00000    30.33400     0.00000  0.0
    165    166    167    168   5     0.00000    16.38454     0.00000  0.0
    169    166    167    168   5     0.00000    16.38454     0.00000  0.0
    165    166    169    170   5     0.00000    30.33400     0.00000  0.0
    165    166    169    178   5     0.00000    30.33400     0.00000  0.0
    167    166    169    170   5     0.00000    30.33400     0.00000  0.0
    167    166    169    178   5     0.00000    30.33400     0.00000  0.0
    166    167    168    175   5     0.00000     0.00000     0.67362  0.0
    166    167    168    176   5     0.00000     0.00000     0.67362  0.0
    166    167    168    177   5     0.00000     0.00000     0.67362  0.0
    166    169    170    163   5     0.00000    30.33400     0.00000  0.0
    166    169    170    179   5     0.00000    30.33400     0.00000  0.0
    178    169    170    163   5     0.00000    30.33400     0.00000  0.0
    178    169    170    179   5     0.00000    30.33400     0.00000  0.0
    162    171    182    183   5    -0.30962     3.11290    -3.95806  0.0
    162    171    182    191   5     4.74884    -0.63178     1.67360  0.0
    162    171    182    192   5     0.00000     0.00000     1.25520  0.0
    180    171    182    183   5     0.00000     0.00000     3.61498  0.0
    180    171    182    191   5     0.00000     0.00000     1.25520  0.0
    180    171    182    192   5     0.00000     0.00000     1.25520  0.0
    181    171    182    183   5     0.00000     0.00000     3.61498  0.0
    181    171    182    191   5     0.00000     0.00000     1.25520  0.0
    181    171    182    192   5     0.00000     0.00000     1.25520  0.0
    171    182    183    184   5     0.00000     0.34727     0.00000  0.0
    171    182    183    190   5     0.00000     0.34727     0.00000  0.0
    191    182    183    184   5     0.00000     0.34727     0.00000  0.0
    191    182    183    190   5     0.00000     0.34727     0.00000  0.0
    192    182    183    184   5     0.00000     0.00000     0.00000  0.0
    192    182    183    190   5     0.00000     0.00000     0.00000  0.0
    171    182    191    200   5     0.00000     0.00000     1.25520  0.0
    171    182    191    201   5     0.00000     0.00000     1.25520  0.0
    171    182    191    202   5     4.74884    -0.63178     1.67360  0.0
    183    182    191    200   5     0.00000     0.00000     3.61498  0.0
    183    182    191    201   5     0.00000     0.00000     3.61498  0.0
    183    182    191    202   5    -0.30962     3.11290    -3.95806  0.0
    192    182    191    200   5     0.00000     0.00000     1.25520  0.0
    192    182    191    201   5     0.00000     0.00000     1.25520  0.0
    192    182    191    202   5     0.00000     0.00000     1.25520  0.0
    182    183    184    185   5     0.00000    30.33400     0.00000  0.0
    182    183    184    193   5     0.00000    30.33400     0.00000  0.0
    190    183    184    185   5     0.00000    30.33400     0.00000  0.0
    190    183    184    193   5     0.00000    30.33400     0.00000  0.0
    182    183    190    189   5     0.00000    30.33400     0.00000  0.0
    182    183    190    199   5     0.00000    30.33400     0.00000  0.0
    184    183    190    189   5     0.00000    30.33400     0.00000  0.0
    184    183    190    199   5     0.00000    30.33400     0.00000  0.0
    183    184    185    186   5     0.00000    30.33400     0.00000  0.0
    183    184    185    194   5     0.00000    30.33400     0.00000  0.0
    193    184    185    186   5     0.00000    30.33400     0.00000  0.0
    193    184    185    194   5     0.00000    30.33400     0.00000  0.0
    184    185    186    187   5     0.00000    30.33400     0.00000  0.0
    184    185    186    189   5     0.00000    30.33400     0.00000  0.0
    194    185    186    187   5     0.00000    30.33400     0.00000  0.0
    194    185    186    189   5     0.00000    30.33400     0.00000  0.0
    185    186    187    188   5     0.00000    16.38454     0.00000  0.0
    189    186    187    188   5     0.00000    16.38454     0.00000  0.0
    185    186    189    190   5     0.00000    30.33400     0.00000  0.0
    185    186    189    198   5     0.00000    30.33400     0.00000  0.0
    187    186    189    190   5     0.00000    30.33400     0.00000  0.0
    187    186    189    198   5     0.00000    30.33400     0.00000  0.0
    186    187    188    195   5     0.00000     0.00000     0.67362  0.0
    186    187    188    196   5     0.00000     0.00000     0.67362  0.0
    186    187    188    197   5     0.00000     0.00000     0.67362  0.0
    186    189    190    183   5     0.00000    30.33400     0.00000  0.0
    186    189    190    199   5     0.00000    30.33400     0.00000  0.0
    198    189    190    183   5     0.00000    30.33400     0.00000  0.0
    198    189    190    199   5     0.00000    30.33400     0.00000  0.0
    182    191    202    203   5    -0.30962     3.11290    -3.95806  0.0
    182    191    202    211   5     4.74884    -0.63178     1.67360  0.0
    182    191    202    212   5     0.00000     0.00000     1.25520  0.0
    200    191    202    203   5     0.00000     0.00000     3.61498  0.0
    200    191    202    211   5     0.00000     0.00000     1.25520  0.0
    200    191    202    212   5     0.00000     0.00000     1.25520  0.0
    201    191    202    203   5     0.00000     0.00000     3.61498  0.0
    201    191    202    211   5     0.00000     0.00000     1.25520  0.0
    201    191    202    212   5     0.00000     0.00000     1.25520  0.0
    191    202    203    204   5     0.00000     0.34727     0.00000  0.0
    191    202    203    210   5     0.00000     0.34727     0.00000  0.0
    211    202    203    204   5     0.00000     0.34727     0.00000  0.0
    211    202    203    210   5     0.00000     0.34727     0.00000  0.0
    212    202    203    204   5     0.00000     0.00000     0.00000  0.0
    212    202    203    210   5     0.00000     0.00000     0.00000  0.0
    191    202    211    220   5     0.00000     0.00000     1.25520  0.0
    191    202    211    221   5     0.00000     0.00000     1.25520  0.0
    191    202    211    222   5     4.74884    -0.63178     1.67360  0.0
    203    202    211    220   5     0.00000     0.00000     3.61498  0.0
    203    202    211    221   5     0.00000     0.00000     3.61498  0.0
    203    202    211    222   5    -0.30962     3.11290    -3.95806  0.0
    212    202    211    220   5     0.00000     0.00000     1.25520  0.0
    212    202    211    221   5     0.00000     0.00000     1.25520  0.0
    212    202    211    222   5     0.00000     0.00000     1.25520  0.0
    202    203    204    205   5     0.00000    30.33400     0.00000  0.0
    202    203    204    213   5     0.00000    30.33400     0.00000  0.0
    210    203    204    205   5     0.00000    30.33400     0.00000  0.0
    210    203    204    213   5     0.00000    30.33400     0.00000  0.0
    202    203    210    209   5     0.00000    30.33400     0.00000  0.0
    202    203    210    219   5     0.00000    30.33400     0.00000  0.0
    204    203    210    209   5     0.00000    30.33400     0.00000  0.0
    204    203    210    219   5     0.00000    30.33400     0.00000  0.0
    203    204    205    206   5     0.00000    30.33400     0.00000  0.0
    203    204    205    214   5     0.00000    30.33400     0.00000  0.0
    213    204    205    206   5     0.00000    30.33400     0.00000  0.0
    213    204    205    214   5     0.00000    30.33400     0.00000  0.0
    204    205    206    207   5     0.00000    30.33400     0.00000  0.0
    204    205    206    209   5     0.00000    30.33400     0.00000  0.0
    214    205    206    207   5     0.00000    30.33400     0.00000  0.0
    214    205    206    209   5     0.00000    30.33400     0.00000  0.0
    205    206    207    208   5     0.00000    16.38454     0.00000  0.0
    209    206    207    208   5     0.00000    16.38454     0.00000  0.0
    205    206    209    210   5     0.00000    30.33400     0.00000  0.0
    205    206    209    218   5     0.00000    30.33400     0.00000  0.0
    207    206    209    210   5     0.00000    30.33400     0.00000  0.0
    207    206    209    218   5     0.00000    30.33400     0.00000  0.0
    206    207    208    215   5     0.00000     0.00000     0.67362  0.0
    206    207    208    216   5     0.00000     0.00000     0.67362  0.0
    206    207    208    217   5     0.00000     0.00000     0.67362  0.0
    206    209    210    203   5     0.00000    30.33400     0.00000  0.0
    206    209    210    219   5     0.00000    30.33400     0.00000  0.0
    218    209    210    203   5     0.00000    30.33400     0.00000  0.0
    218    209    210    219   5     0.00000    30.33400     0.00000  0.0
    202    211    222    223   5    -0.30962     3.11290    -3.95806  0.0
    202    211    222    231   5     4.74884    -0.63178     1.67360  0.0
    202    211    222    232   5     0.00000     0.00000     1.25520  0.0
    220    211    222    223   5     0.00000     0.00000     3.61498  0.0
    220    211    222    231   5     0.00000     0.00000     1.25520  0.0
    220    211    222    232   5     0.00000     0.00000     1.25520  0.0
    221    211    222    223   5     0.00000     0.00000     3.61498  0.0
    221    211    222    231   5     0.00000     0.00000     1.25520  0.0
    221    211    222    232   5     0.00000     0.00000     1.25520  0.0
    211    222    223    224   5     0.00000     0.34727     0.00000  0.0
    211    222    223    230   5     0.00000     0.34727     0.00000  0.0
    231    222    223    224   5     0.00000     0.34727     0.00000  0.0
    231    222    223    230   5     0.00000     0.34727     0.00000  0.0
    232    222    223    224   5     0.00000     0.00000     0.00000  0.0
    232    222    223    230   5     0.00000     0.00000     0.00000  0.0
    211    222    231    240   5     0.00000     0.00000     1.25520  0.0
    211    222    231    241   5     0.00000     0.00000     1.25520  0.0
    211    222    231    242   5     4.74884    -0.63178     1.67360  0.0
    223    222    231    240   5     0.00000     0.00000     3.61498  0.0
    223    222    231    241   5     0.00000     0.00000     3.61498  0.0
    223    222    231    242   5    -0.30962     3.11290    -3.95806  0.0
    232    222    231    240   5     0.00000     0.00000     1.25520  0.0
    232    222    231    241   5     0.00000     0.00000     1.25520  0.0
    232    222    231    242   5     0.00000     0.00000     1.25520  0.0
    222    223    224    225   5     0.00000    30.33400     0.00000  0.0
    222    223    224    233   5     0.00000    30.33400     0.00000  0.0
    230    223    224    225   5     0.00000    30.33400     0.00000  0.0
    230    223    224    233   5     0.00000    30.33400     0.00000  0.0
    222    223    230    229   5     0.00000    30.33400     0.00000  0.0
    222    223    230    239   5     0.00000    30.33400     0.00000  0.0
    224    223    230    229   5     0.00000    30.33400     0.00000  0.0
    224    223    230    239   5     0.00000    30.33400     0.00000  0.0
    223    224    225    226   5     0.00000    30.33400     0.00000  0.0
    223    224    225    234   5     0.00000    30.33400     0.00000  0.0
    233    224    225    226   5     0.00000    30.33400     0.00000  0.0
    233    224    225    234   5     0.00000    30.33400     0.00000  0.0
    224    225    226    227   5     0.00000    30.33400     0.00000  0.0
    224    225    226    229   5     0.00000    30.33400     0.00000  0.0
    234    225    226    227   5     0.00000    30.33400     0.00000  0.0
    234    225    226    229   5     0.00000    30.33400     0.00000  0.0
    225    226    227    228   5     0.00000    16.38454     0.00000  0.0
    229    226    227    228   5     0.00000    16.38454     0.00000  0.0
    225    226    229    230   5     0.00000    30.33400     0.00000  0.0
    225    226    229    238   5     0.00000    30.33400     0.00000  0.0
    227    226    229    230   5     0.00000    30.33400     0.00000  0.0
    227    226    229    238   5     0.00000    30.33400     0.00000  0.0
    226    227    228    235   5     0.00000     0.00000     0.67362  0.0
    226    227    228    236   5     0.00000     0.00000     0.67362  0.0
    226    227    228    237   5     0.00000     0.00000     0.67362  0.0
    226    229    230    223   5     0.00000    30.33400     0.00000  0.0
    226    229    230    239   5     0.00000    30.33400     0.00000  0.0
    238    229    230    223   5     0.00000    30.33400     0.00000  0.0
    238    229    230    239   5     0.00000    30.33400     0.00000  0.0
    222    231    242    243   5    -0.30962     3.11290    -3.95806  0.0
    222    231    242    251   5     4.74884    -0.63178     1.67360  0.0
    222    231    242    252   5     0.00000     0.00000     1.25520  0.0
    240    231    242    243   5     0.00000     0.00000     3.61498  0.0
    240    231    242    251   5     0.00000     0.00000     1.25520  0.0
    240    231    242    252   5     0.00000     0.00000     1.25520  0.0
    241    231    242    243   5     0.00000     0.00000     3.61498  0.0
    241    231    242    251   5     0.00000     0.00000     1.25520  0.0
    241    231    242    252   5     0.00000     0.00000     1.25520  0.0
    231    242    243    244   5     0.00000     0.34727     0.00000  0.0
    231    242    243    250   5     0.00000     0.34727     0.00000  0.0
    251    242    243    244   5     0.00000     0.34727     0.00000  0.0
    251    242    243    250   5     0.00000     0.34727     0.00000  0.0
    252    242    243    244   5     0.00000     0.00000     0.00000  0.0
    252    242    243    250   5     0.00000     0.00000     0.00000  0.0
    231    242    251    260   5     0.00000     0.00000     1.25520  0.0
    231    242    251    261   5     0.00000     0.00000     1.25520  0.0
    231    242    251    262   5     4.74884    -0.63178     1.67360  0.0
    243    242    251    260   5     0.00000     0.00000     3.61498  0.0
    243    242    251    261   5     0.00000     0.00000     3.61498  0.0
    243    242    251    262   5    -0.30962     3.11290    -3.95806  0.0
    252    242    251    260   5     0.00000     0.00000     1.25520  0.0
    252    242    251    261   5     0.00000     0.00000     1.25520  0.0
    252    242    251    262   5     0.00000     0.00000     1.25520  0.0
    242    243    244    245   5     0.00000    30.33400     0.00000  0.0
    242    243    244    253   5     0.00000    30.33400     0.00000  0.0
    250    243    244    245   5     0.00000    30.33400     0.00000  0.0
    250    243    244    253   5     0.00000    30.33400     0.00000  0.0
    242    243    250    249   5     0.00000    30.33400     0.00000  0.0
    242    243    250    259   5     0.00000    30.33400     0.00000  0.0
    244    243    250    249   5     0.00000    30.33400     0.00000  0.0
    244    243    250    259   5     0.00000    30.33400     0.00000  0.0
    243    244    245    246   5     0.00000    30.33400     0.00000  0.0
    243    244    245    254   5     0.00000    30.33400     0.00000  0.0
    253    244    245    246   5     0.00000    30.33400     0.00000  0.0
    253    244    245    254   5     0.00000    30.33400     0.00000  0.0
    244    245    246    247   5     0.00000    30.33400     0.00000  0.0
    244    245    246    249   5     0.00000    30.33400     0.00000  0.0
    254    245    246    247   5     0.00000    30.33400     0.00000  0.0
    254    245    246    249   5     0.00000    30.33400     0.00000  0.0
    245    246    247    248   5     0.00000    16.38454     0.00000  0.0
    249    246    247    248   5     0.00000    16.38454     0.00000  0.0
    245    246    249    250   5     0.00000    30.33400     0.00000  0.0
    245    246    249    258   5     0.00000    30.33400     0.00000  0.0
    247    246    249    250   5     0.00000    30.33400     0.00000  0.0
    247    246    249    258   5     0.00000    30.33400     0.00000  0.0
    246    247    248    255   5     0.00000     0.00000     0.67362  0.0
    246    247    248    256   5     0.00000     0.00000     0.67362  0.0
    246    247    248    257   5     0.00000     0.00000     0.67362  0.0
    246    249    250    243   5     0.00000    30.33400     0.00000  0.0
    246    249    250    259   5     0.00000    30.33400     0.00000  0.0
    258    249    250    243   5     0.00000    30.33400     0.00000  0.0
    258    249    250    259   5     0.00000    30.33400     0.00000  0.0
    242    251    262    263   5    -0.30962     3.11290    -3.95806  0.0
    242    251    262    271   5     4.74884    -0.63178     1.67360  0.0
    242    251    262    272   5     0.00000     0.00000     1.25520  0.0
    260    251    262    263   5     0.00000     0.00000     3.61498  0.0
    260    251    262    271   5     0.00000     0.00000     1.25520  0.0
    260    251    262    272   5     0.00000     0.00000     1.25520  0.0
    261    251    262    263   5     0.00000     0.00000     3.61498  0.0
    261    251    262    271   5     0.00000     0.00000     1.25520  0.0
    261    251    262    272   5     0.00000     0.00000     1.25520  0.0
    251    262    263    264   5     0.00000     0.34727     0.00000  0.0
    251    262    263    270   5     0.00000     0.34727     0.00000  0.0
    271    262    263    264   5     0.00000     0.34727     0.00000  0.0
    271    262    263    270   5     0.00000     0.34727     0.00000  0.0
    272    262    263    264   5     0.00000     0.00000     0.00000  0.0
    272    262    263    270   5     0.00000     0.00000     0.00000  0.0
    251    262    271    280   5     0.00000     0.00000     1.25520  0.0
    251    262    271    281   5     0.00000     0.00000     1.25520  0.0
    251    262    271    282   5     4.74884    -0.63178     1.67360  0.0
    263    262    271    280   5     0.00000     0.00000     3.61498  0.0
    263    262    271    281   5     0.00000     0.00000     3.61498  0.0
    263    262    271    282   5    -0.30962     3.11290    -3.95806  0.0
    272    262    271    280   5     0.00000     0.00000     1.25520  0.0
    272    262    271    281   5     0.00000     0.00000     1.25520  0.0
    272    262    271    282   5     0.00000     0.00000     1.25520  0.0
    262    263    264    265   5     0.00000    30.33400     0.00000  0.0
    262    263    264    273   5     0.00000    30.33400     0.00000  0.0
    270    263    264    265   5     0.00000    30.33400     0.00000  0.0
    270    263    264    273   5     0.00000    30.33400     0.00000  0.0
    262    263    270    269   5     0.00000    30.33400     0.00000  0.0
    262    263    270    279   5     0.00000    30.33400     0.00000  0.0
    264    263    270    269   5     0.00000    30.33400     0.00000  0.0
    264    263    270    279   5     0.00000    30.33400     0.00000  0.0
    263    264    265    266   5     0.00000    30.33400     0.00000  0.0
    263    264    265    274   5     0.00000    30.33400     0.00000  0.0
    273    264    265    266   5     0.00000    30.33400     0.00000  0.0
    273    264    265    274   5     0.00000    30.33400     0.00000  0.0
    264    265    266    267   5     0.00000    30.33400     0.00000  0.0
    264    265    266    269   5     0.00000    30.33400     0.00000  0.0
    274    265    266    267   5     0.00000    30.33400     0.00000  0.0
    274    265    266    269   5     0.00000    30.33400     0.00000  0.0
    265    266    267    268   5     0.00000    16.38454     0.00000  0.0
    269    266    267    268   5     0.00000    16.38454     0.00000  0.0
    265    266    269    270   5     0.00000    30.33400     0.00000  0.0
    265    266    269    278   5     0.00000    30.33400     0.00000  0.0
    267    266    269    270   5     0.00000    30.33400     0.00000  0.0
    267    266    269    278   5     0.00000    30.33400     0.00000  0.0
    266    267    268    275   5     0.00000     0.00000     0.67362  0.0
    266    267    268    276   5     0.00000     0.00000     0.67362  0.0
    266    267    268    277   5     0.00000     0.00000     0.67362  0.0
    266    269    270    263   5     0.00000    30.33400     0.00000  0.0
    266    269    270    279   5     0.00000    30.33400     0.00000  0.0
    278    269    270    263   5     0.00000    30.33400     0.00000  0.0
    278    269    270    279   5     0.00000    30.33400     0.00000  0.0
    262    271    282    283   5    -0.30962     3.11290    -3.95806  0.0
    262    271    282    291   5     4.74884    -0.63178     1.67360  0.0
    262    271    282    292   5     0.00000     0.00000     1.25520  0.0
    280    271    282    283   5     0.00000     0.00000     3.61498  0.0
    280    271    282    291   5     0.00000     0.00000     1.25520  0.0
    280    271    282    292   5     0.00000     0.00000     1.25520  0.0
    281    271    282    283   5     0.00000     0.00000     3.61498  0.0
    281    271    282    291   5     0.00000     0.00000     1.25520  0.0
    281    271    282    292   5     0.00000     0.00000     1.25520  0.0
    271    282    283    284   5     0.00000     0.34727     0.00000  0.0
    271    282    283    290   5     0.00000     0.34727     0.00000  0.0
    291    282    283    284   5     0.00000     0.34727     0.00000  0.0
    291    282    283    290   5     0.00000     0.34727     0.00000  0.0
    292    282    283    284   5     0.00000     0.00000     0.00000  0.0
    292    282    283    290   5     0.00000     0.00000     0.00000  0.0
    271    282    291    300   5     0.00000     0.00000     1.25520  0.0
    271    282    291    301   5     0.00000     0.00000     1.25520  0.0
    271    282    291    302   5     4.74884    -0.63178     1.67360  0.0
    283    282    291    300   5     0.00000     0.00000     3.61498  0.0
    283    282    291    301   5     0.00000     0.00000     3.61498  0.0
    283    282    291    302   5    -0.30962     3.11290    -3.95806  0.0
    292    282    291    300   5     0.00000     0.00000     1.25520  0.0
    292    282    291    301   5     0.00000     0.00000     1.25520  0.0
    292    282    291    302   5     0.00000     0.00000     1.25520  0.0
    282    283    284    285   5     0.00000    30.33400     0.00000  0.0
    282    283    284    293   5     0.00000    30.33400     0.00000  0.0
    290    283    284    285   5     0.00000    30.33400     0.00000  0.0
    290    283    284    293   5     0.00000    30.33400     0.00000  0.0
    282    283    290    289   5     0.00000    30.33400     0.00000  0.0
    282    283    290    299   5     0.00000    30.33400     0.00000  0.0
    284    283    290    289   5     0.00000    30.33400     0.00000  0.0
    284    283    290    299   5     0.00000    30.33400     0.00000  0.0
    283    284    285    286   5     0.00000    30.33400     0.00000  0.0
    283    284    285    294   5     0.00000    30.33400     0.00000  0.0
    293    284    285    286   5     0.00000    30.33400     0.00000  0.0
    293    284    285    294   5     0.00000    30.33400     0.00000  0.0
    284    285    286    287   5     0.00000    30.33400     0.00000  0.0
    284    285    286    289   5     0.00000    30.33400     0.00000  0.0
    294    285    286    287   5     0.00000    30.33400     0.00000  0.0
    294    285    286    289   5     0.00000    30.33400     0.00000  0.0
    285    286    287    288   5     0.00000    16.38454     0.00000  0.0
    289    286    287    288   5     0.00000    16.38454     0.00000  0.0
    285    286    289    290   5     0.00000    30.33400     0.00000  0.0
    285    286    289    298   5     0.00000    30.33400     0.00000  0.0
    287    286    289    290   5     0.00000    30.33400     0.00000  0.0
    287    286    289    298   5     0.00000    30.33400     0.00000  0.0
    286    287    288    295   5     0.00000     0.00000     0.67362  0.0
    286    287    288    296   5     0.00000     0.00000     0.67362  0.0
    286    287    288    297   5     0.00000     0.00000     0.67362  0.0
    286    289    290    283   5     0.00000    30.33400     0.00000  0.0
    286    289    290    299   5     0.00000    30.33400     0.00000  0.0
    298    289    290    283   5     0.00000    30.33400     0.00000  0.0
    298    289    290    299   5     0.00000    30.33400     0.00000  0.0
    282    291    302    303   5    -0.30962     3.11290    -3.95806  0.0
    282    291    302    311   5     4.74884    -0.63178     1.67360  0.0
    282    291    302    312   5     0.00000     0.00000     1.25520  0.0
    300    291    302    303   5     0.00000     0.00000     3.61498  0.0
    300    291    302    311   5     0.00000     0.00000     1.25520  0.0
    300    291    302    312   5     0.00000     0.00000     1.25520  0.0
    301    291    302    303   5     0.00000     0.00000     3.61498  0.0
    301    291    302    311   5     0.00000     0.00000     1.25520  0.0
    301    291    302    312   5     0.00000     0.00000     1.25520  0.0
    291    302    303    304   5     0.00000     0.34727     0.00000  0.0
    291    302    303    310   5     0.00000     0.34727     0.00000  0.0
    311    302    303    304   5     0.00000     0.34727     0.00000  0.0
    311    302    303    310   5     0.00000     0.34727     0.00000  0.0
    312    302    303    304   5     0.00000     0.00000     0.00000  0.0
    312    302    303    310   5     0.00000     0.00000     0.00000  0.0
    291    302    311    320   5     0.00000     0.00000     1.25520  0.0
    291    302    311    321   5     0.00000     0.00000     1.25520  0.0
    291    302    311    322   5     4.74884    -0.63178     1.67360  0.0
    303    302    311    320   5     0.00000     0.00000     3.61498  0.0
    303    302    311    321   5     0.00000     0.00000     3.61498  0.0
    303    302    311    322   5    -0.30962     3.11290    -3.95806  0.0
    312    302    311    320   5     0.00000     0.00000     1.25520  0.0
    312    302    311    321   5     0.00000     0.00000     1.25520  0.0
    312    302    311    322   5     0.00000     0.00000     1.25520  0.0
    302    303    304    305   5     0.00000    30.33400     0.00000  0.0
    302    303    304    313   5     0.00000    30.33400     0.00000  0.0
    310    303    304    305   5     0.00000    30.33400     0.00000  0.0
    310    303    304    313   5     0.00000    30.33400     0.00000  0.0
    302    303    310    309   5     0.00000    30.33400     0.00000  0.0
    302    303    310    319   5     0.00000    30.33400     0.00000  0.0
    304    303    310    309   5     0.00000    30.33400     0.00000  0.0
    304    303    310    319   5     0.00000    30.33400     0.00000  0.0
    303    304    305    306   5     0.00000    30.33400     0.00000  0.0
    303    304    305    314   5     0.00000    30.33400     0.00000  0.0
    313    304    305    306   5     0.00000    30.33400     0.00000  0.0
    313    304    305    314   5     0.00000    30.33400     0.00000  0.0
    304    305    306    307   5     0.00000    30.33400     0.00000  0.0
    304    305    306    309   5     0.00000    30.33400     0.00000  0.0
    314    305    306    307   5     0.00000    30.33400     0.00000  0.0
    314    305    306    309   5     0.00000    30.33400     0.00000  0.0
    305    306    307    308   5     0.00000    16.38454     0.00000  0.0
    309    306    307    308   5     0.00000    16.38454     0.00000  0.0
    305    306    309    310   5     0.00000    30.33400     0.00000  0.0
    305    306    309    318   5     0.00000    30.33400     0.00000  0.0
    307    306    309    310   5     0.00000    30.33400     0.00000  0.0
    307    306    309    318   5     0.00000    30.33400     0.00000  0.0
    306    307    308    315   5     0.00000     0.00000     0.67362  0.0
    306    307    308    316   5     0.00000     0.00000     0.67362  0.0
    306    307    308    317   5     0.00000     0.00000     0.67362  0.0
    306    309    310    303   5     0.00000    30.33400     0.00000  0.0
    306    309    310    319   5     0.00000    30.33400     0.00000  0.0
    318    309    310    303   5     0.00000    30.33400     0.00000  0.0
    318    309    310    319   5     0.00000    30.33400     0.00000  0.0
    302    311    322    323   5    -0.30962     3.11290    -3.95806  0.0
    302    311    322    331   5     4.74884    -0.63178     1.67360  0.0
    302    311    322    332   5     0.00000     0.00000     1.25520  0.0
    320    311    322    323   5     0.00000     0.00000     3.61498  0.0
    320    311    322    331   5     0.00000     0.00000     1.25520  0.0
    320    311    322    332   5     0.00000     0.00000     1.25520  0.0
    321    311    322    323   5     0.00000     0.00000     3.61498  0.0
    321    311    322    331   5     0.00000     0.00000     1.25520  0.0
    321    311    322    332   5     0.00000     0.00000     1.25520  0.0
    311    322    323    324   5     0.00000     0.34727     0.00000  0.0
    311    322    323    330   5     0.00000     0.34727     0.00000  0.0
    331    322    323    324   5     0.00000     0.34727     0.00000  0.0
    331    322    323    330   5     0.00000     0.34727     0.00000  0.0
    332    322    323    324   5     0.00000     0.00000     0.00000  0.0
    332    322    323    330   5     0.00000     0.00000     0.00000  0.0
    311    322    331    340   5     0.00000     0.00000     1.25520  0.0
    311    322    331    341   5     0.00000     0.00000     1.25520  0.0
    311    322    331    342   5     4.74884    -0.63178     1.67360  0.0
    323    322    331    340   5     0.00000     0.00000     3.61498  0.0
    323    322    331    341   5     0.00000     0.00000     3.61498  0.0
    323    322    331    342   5    -0.30962     3.11290    -3.95806  0.0
    332    322    331    340   5     0.00000     0.00000     1.25520  0.0
    332    322    331    341   5     0.00000     0.00000     1.25520  0.0
    332    322    331    342   5     0.00000     0.00000     1.25520  0.0
    322    323    324    325   5     0.00000    30.33400     0.00000  0.0
    322    323    324    333   5     0.00000    30.33400     0.00000  0.0
    330    323    324    325   5     0.00000    30.33400     0.00000  0.0
    330    323    324    333   5     0.00000    30.33400     0.00000  0.0
    322    323    330    329   5     0.00000    30.33400     0.00000  0.0
    322    323    330    339   5     0.00000    30.33400     0.00000  0.0
    324    323    330    329   5     0.00000    30.33400     0.00000  0.0
    324    323    330    339   5     0.00000    30.33400     0.00000  0.0
    323    324    325    326   5     0.00000    30.33400     0.00000  0.0
    323    324    325    334   5     0.00000    30.33400     0.00000  0.0
    333    324    325    326   5     0.00000    30.33400     0.00000  0.0
    333    324    325    334   5     0.00000    30.33400     0.00000  0.0
    324    325    326    327   5     0.00000    30.33400     0.00000  0.0
    324    325    326    329   5     0.00000    30.33400     0.00000  0.0
    334    325    326    327   5     0.00000    30.33400     0.00000  0.0
    334    325    326    329   5     0.00000    30.33400     0.00000  0.0
    325    326    327    328   5     0.00000    16.38454     0.00000  0.0
    329    326    327    328   5     0.00000    16.38454     0.00000  0.0
    325    326    329    330   5     0.00000    30.33400     0.00000  0.0
    325    326    329    338   5     0.00000    30.33400     0.00000  0.0
    327    326    329    330   5     0.00000    30.33400     0.00000  0.0
    327    326    329    338   5     0.00000    30.33400     0.00000  0.0
    326    327    328    335   5     0.00000     0.00000     0.67362  0.0
    326    327    328    336   5     0.00000     0.00000     0.67362  0.0
    326    327    328    337   5     0.00000     0.00000     0.67362  0.0
    326    329    330    323   5     0.00000    30.33400     0.00000  0.0
    326    329    330    339   5     0.00000    30.33400     0.00000  0.0
    338    329    330    323   5     0.00000    30.33400     0.00000  0.0
    338    329    330    339   5     0.00000    30.33400     0.00000  0.0
    322    331    342    343   5    -0.30962     3.11290    -3.95806  0.0
    322    331    342    351   5     4.74884    -0.63178     1.67360  0.0
    322    331    342    352   5     0.00000     0.00000     1.25520  0.0
    340    331    342    343   5     0.00000     0.00000     3.61498  0.0
    340    331    342    351   5     0.00000     0.00000     1.25520  0.0
    340    331    342    352   5     0.00000     0.00000     1.25520  0.0
    341    331    342    343   5     0.00000     0.00000     3.61498  0.0
    341    331    342    351   5     0.00000     0.00000     1.25520  0.0
    341    331    342    352   5     0.00000     0.00000     1.25520  0.0
    331    342    343    344   5     0.00000     0.34727     0.00000  0.0
    331    342    343    350   5     0.00000     0.34727     0.00000  0.0
    351    342    343    344   5     0.00000     0.34727     0.00000  0.0
    351    342    343    350   5     0.00000     0.34727     0.00000  0.0
    352    342    343    344   5     0.00000     0.00000     0.00000  0.0
    352    342    343    350   5     0.00000     0.00000     0.00000  0.0
    331    342    351    360   5     0.00000     0.00000     1.25520  0.0
    331    342    351    361   5     0.00000     0.00000     1.25520  0.0
    331    342    351    362   5     4.74884    -0.63178     1.67360  0.0
    343    342    351    360   5     0.00000     0.00000     3.61498  0.0
    343    342    351    361   5     0.00000     0.00000     3.61498  0.0
    343    342    351    362   5    -0.30962     3.11290    -3.95806  0.0
    352    342    351    360   5     0.00000     0.00000     1.25520  0.0
    352    342    351    361   5     0.00000     0.00000     1.25520  0.0
    352    342    351    362   5     0.00000     0.00000     1.25520  0.0
    342    343    344    345   5     0.00000    30.33400     0.00000  0.0
    342    343    344    353   5     0.00000    30.33400     0.00000  0.0
    350    343    344    345   5     0.00000    30.33400     0.00000  0.0
    350    343    344    353   5     0.00000    30.33400     0.00000  0.0
    342    343    350    349   5     0.00000    30.33400     0.00000  0.0
    342    343    350    359   5     0.00000    30.33400     0.00000  0.0
    344    343    350    349   5     0.00000    30.33400     0.00000  0.0
    344    343    350    359   5     0.00000    30.33400     0.00000  0.0
    343    344    345    346   5     0.00000    30.33400     0.00000  0.0
    343    344    345    354   5     0.00000    30.33400     0.00000  0.0
    353    344    345    346   5     0.00000    30.33400     0.00000  0.0
    353    344    345    354   5     0.00000    30.33400     0.00000  0.0
    344    345    346    347   5     0.00000    30.33400     0.00000  0.0
    344    345    346    349   5     0.00000    30.33400     0.00000  0.0
    354    345    346    347   5     0.00000    30.33400     0.00000  0.0
    354    345    346    349   5     0.00000    30.33400     0.00000  0.0
    345    346    347    348   5     0.00000    16.38454     0.00000  0.0
    349    346    347    348   5     0.00000    16.38454     0.00000  0.0
    345    346    349    350   5     0.00000    30.33400     0.00000  0.0
    345    346    349    358   5     0.00000    30.33400     0.00000  0.0
    347    346    349    350   5     0.00000    30.33400     0.00000  0.0
    347    346    349    358   5     0.00000    30.33400     0.00000  0.0
    346    347    348    355   5     0.00000     0.00000     0.67362  0.0
    346    347    348    356   5     0.00000     0.00000     0.67362  0.0
    346    347    348    357   5     0.00000     0.00000     0.67362  0.0
    346    349    350    343   5     0.00000    30.33400     0.00000  0.0
    346    349    350    359   5     0.00000    30.33400     0.00000  0.0
    358    349    350    343   5     0.00000    30.33400     0.00000  0.0
    358    349    350    359   5     0.00000    30.33400     0.00000  0.0
    342    351    362    363   5    -0.30962     3.11290    -3.95806  0.0
    342    351    362    371   5     4.74884    -0.63178     1.67360  0.0
    342    351    362    372   5     0.00000     0.00000     1.25520  0.0
    360    351    362    363   5     0.00000     0.00000     3.61498  0.0
    360    351    362    371   5     0.00000     0.00000     1.25520  0.0
    360    351    362    372   5     0.00000     0.00000     1.25520  0.0
    361    351    362    363   5     0.00000     0.00000     3.61498  0.0
    361    351    362    371   5     0.00000     0.00000     1.25520  0.0
    361    351    362    372   5     0.00000     0.00000     1.25520  0.0
    351    362    363    364   5     0.00000     0.34727     0.00000  0.0
    351    362    363    370   5     0.00000     0.34727     0.00000  0.0
    371    362    363    364   5     0.00000     0.34727     0.00000  0.0
    371    362    363    370   5     0.00000     0.34727     0.00000  0.0
    372    362    363    364   5     0.00000     0.00000     0.00000  0.0
    372    362    363    370   5     0.00000     0.00000     0.00000  0.0
    351    362    371    380   5     0.00000     0.00000     1.25520  0.0
    351    362    371    381   5     0.00000     0.00000     1.25520  0.0
    351    362    371    382   5     4.74884    -0.63178     1.67360  0.0
    363    362    371    380   5     0.00000     0.00000     3.61498  0.0
    363    362    371    381   5     0.00000     0.00000     3.61498  0.0
    363    362    371    382   5    -0.30962     3.11290    -3.95806  0.0
    372    362    371    380   5     0.00000     0.00000     1.25520  0.0
    372    362    371    381   5     0.00000     0.00000     1.25520  0.0
    372    362    371    382   5     0.00000     0.00000     1.25520  0.0
    362    363    364    365   5     0.00000    30.33400     0.00000  0.0
    362    363    364    373   5     0.00000    30.33400     0.00000  0.0
    370    363    364    365   5     0.00000    30.33400     0.00000  0.0
    370    363    364    373   5     0.00000    30.33400     0.00000  0.0
    362    363    370    369   5     0.00000    30.33400     0.00000  0.0
    362    363    370    379   5     0.00000    30.33400     0.00000  0.0
    364    363    370    369   5     0.00000    30.33400     0.00000  0.0
    364    363    370    379   5     0.00000    30.33400     0.00000  0.0
    363    364    365    366   5     0.00000    30.33400     0.00000  0.0
    363    364    365    374   5     0.00000    30.33400     0.00000  0.0
    373    364    365    366   5     0.00000    30.33400     0.00000  0.0
    373    364    365    374   5     0.00000    30.33400     0.00000  0.0
    364    365    366    367   5     0.00000    30.33400     0.00000  0.0
    364    365    366    369   5     0.00000    30.33400     0.00000  0.0
    374    365    366    367   5     0.00000    30.33400     0.00000  0.0
    374    365    366    369   5     0.00000    30.33400     0.00000  0.0
    365    366    367    368   5     0.00000    16.38454     0.00000  0.0
    369    366    367    368   5     0.00000    16.38454     0.00000  0.0
    365    366    369    370   5     0.00000    30.33400     0.00000  0.0
    365    366    369    378   5     0.00000    30.33400     0.00000  0.0
    367    366    369    370   5     0.00000    30.33400     0.00000  0.0
    367    366    369    378   5     0.00000    30.33400     0.00000  0.0
    366    367    368    375   5     0.00000     0.00000     0.67362  0.0
    366    367    368    376   5     0.00000     0.00000     0.67362  0.0
    366    367    368    377   5     0.00000     0.00000     0.67362  0.0
    366    369    370    363   5     0.00000    30.33400     0.00000  0.0
    366    369    370    379   5     0.00000    30.33400     0.00000  0.0
    378    369    370    363   5     0.00000    30.33400     0.00000  0.0
    378    369    370    379   5     0.00000    30.33400     0.00000  0.0
    362    371    382    383   5    -0.30962     3.11290    -3.95806  0.0
    362    371    382    391   5     4.74884    -0.63178     1.67360  0.0
    362    371    382    392   5     0.00000     0.00000     1.25520  0.0
    380    371    382    383   5     0.00000     0.00000     3.61498  0.0
    380    371    382    391   5     0.00000     0.00000     1.25520  0.0
    380    371    382    392   5     0.00000     0.00000     1.25520  0.0
    381    371    382    383   5     0.00000     0.00000     3.61498  0.0
    381    371    382    391   5     0.00000     0.00000     1.25520  0.0
    381    371    382    392   5     0.00000     0.00000     1.25520  0.0
    371    382    383    384   5     0.00000     0.34727     0.00000  0.0
    371    382    383    390   5     0.00000     0.34727     0.00000  0.0
    391    382    383    384   5     0.00000     0.34727     0.00000  0.0
    391    382    383    390   5     0.00000     0.34727     0.00000  0.0
    392    382    383    384   5     0.00000     0.00000     0.00000  0.0
    392    382    383    390   5     0.00000     0.00000     0.00000  0.0
    371    382    391    400   5     0.00000     0.00000     1.25520  0.0
    371    382    391    401   5     0.00000     0.00000     1.25520  0.0
    371    382    391    402   5     0.00000     0.00000     1.25520  0.0
    383    382    391    400   5     0.00000     0.00000     3.61498  0.0
    383    382    391    401   5     0.00000     0.00000     3.61498  0.0
    383    382    391    402   5     0.00000     0.00000     3.61498  0.0
    392    382    391    400   5     0.00000     0.00000     1.25520  0.0
    392    382    391    401   5     0.00000     0.00000     1.25520  0.0
    392    382    391    402   5     0.00000     0.00000     1.25520  0.0
    382    383    384    385   5     0.00000    30.33400     0.00000  0.0
    382    383    384    393   5     0.00000    30.33400     0.00000  0.0
    390    383    384    385   5     0.00000    30.33400     0.00000  0.0
    390    383    384    393   5     0.00000    30.33400     0.00000  0.0
    382    383    390    389   5     0.00000    30.33400     0.00000  0.0
    382    383    390    399   5     0.00000    30.33400     0.00000  0.0
    384    383    390    389   5     0.00000    30.33400     0.00000  0.0
    384    383    390    399   5     0.00000    30.33400     0.00000  0.0
    383    384    385    386   5     0.00000    30.33400     0.00000  0.0
    383    384    385    394   5     0.00000    30.33400     0.00000  0.0
    393    384    385    386   5     0.00000    30.33400     0.00000  0.0
    393    384    385    394   5     0.00000    30.33400     0.00000  0.0
    384    385    386    387   5     0.00000    30.33400     0.00000  0.0
    384    385    386    389   5     0.00000    30.33400     0.00000  0.0
    394    385    386    387   5     0.00000    30.33400     0.00000  0.0
    394    385    386    389   5     0.00000    30.33400     0.00000  0.0
    385    386    387    388   5     0.00000    16.38454     0.00000  0.0
    389    386    387    388   5     0.00000    16.38454     0.00000  0.0
    385    386    389    390   5     0.00000    30.33400     0.00000  0.0
    385    386    389    398   5     0.00000    30.33400     0.00000  0.0
    387    386    389    390   5     0.00000    30.33400     0.00000  0.0
    387    386    389    398   5     0.00000    30.33400     0.00000  0.0
    386    387    388    395   5     0.00000     0.00000     0.67362  0.0
    386    387    388    396   5     0.00000     0.00000     0.67362  0.0
    386    387    388    397   5     0.00000     0.00000     0.67362  0.0
    386    389    390    383   5     0.00000    30.33400     0.00000  0.0
    386    389    390    399   5     0.00000    30.33400     0.00000  0.0
    398    389    390    383   5     0.00000    30.33400     0.00000  0.0
    398    389    390    399   5     0.00000    30.33400     0.00000  0.0

[ dihedrals ]
; Improper dihedrals
; h   i   j   k   funct
      1      3      2      9   5     0.00000    33.47200     0.00000  0.0
      2      4      3     12   5     0.00000     9.20480     0.00000  0.0
      3      5      4     13   5     0.00000     9.20480     0.00000  0.0
      4      6      5      8   5     0.00000    33.47200     0.00000  0.0
      5      9      8     17   5     0.00000     9.20480     0.00000  0.0
      2      8      9     18   5     0.00000     9.20480     0.00000  0.0
     22     24     23     30   5     0.00000    33.47200     0.00000  0.0
     23     25     24     33   5     0.00000     9.20480     0.00000  0.0
     24     26     25     34   5     0.00000     9.20480     0.00000  0.0
     25     27     26     29   5     0.00000    33.47200     0.00000  0.0
     26     30     29     38   5     0.00000     9.20480     0.00000  0.0
     23     29     30     39   5     0.00000     9.20480     0.00000  0.0
     42     44     43     50   5     0.00000    33.47200     0.00000  0.0
     43     45     44     53   5     0.00000     9.20480     0.00000  0.0
     44     46     45     54   5     0.00000     9.20480     0.00000  0.0
     45     47     46     49   5     0.00000    33.47200     0.00000  0.0
     46     50     49     58   5     0.00000     9.20480     0.00000  0.0
     43     49     50     59   5     0.00000     9.20480     0.00000  0.0
     62     64     63     70   5     0.00000    33.47200     0.00000  0.0
     63     65     64     73   5     0.00000     9.20480     0.00000  0.0
     64     66     65     74   5     0.00000     9.20480     0.00000  0.0
     65     67     66     69   5     0.00000    33.47200     0.00000  0.0
     66     70     69     78   5     0.00000     9.20480     0.00000  0.0
     63     69     70     79   5     0.00000     9.20480     0.00000  0.0
     82     84     83     90   5     0.00000    33.47200     0.00000  0.0
     83     85     84     93   5     0.00000     9.20480     0.00000  0.0
     84     86     85     94   5     0.00000     9.20480     0.00000  0.0
     85     87     86     89   5     0.00000    33.47200     0.00000  0.0
     86     90     89     98   5     0.00000     9.20480     0.00000  0.0
     83     89     90     99   5     0.00000     9.20480     0.00000  0.0
    102    104    103    110   5     0.00000    33.47200     0.00000  0.0
    103    105    104    113   5     0.00000     9.20480     0.00000  0.0
    104    106    105    114   5     0.00000     9.20480     0.00000  0.0
    105    107    106    109   5     0.00000    33.47200     0.00000  0.0
    106    110    109    118   5     0.00000     9.20480     0.00000  0.0
    103    109    110    119   5     0.00000     9.20480     0.00000  0.0
    122    124    123    130   5     0.00000    33.47200     0.00000  0.0
    123    125    124    133   5     0.00000     9.20480     0.00000  0.0
    124    126    125    134   5     0.00000     9.20480     0.00000  0.0
    125    127    126    129   5     0.00000    33.47200     0.00000  0.0
    126    130    129    138   5     0.00000     9.20480     0.00000  0.0
    123    129    130    139   5     0.00000     9.20480     0.00000  0.0
    142    144    143    150   5     0.00000    33.47200     0.00000  0.0
    143    145    144    153   5     0.00000     9.20480     0.00000  0.0
    144    146    145    154   5     0.00000     9.20480     0.00000  0.0
    145    147    146    149   5     0.00000    33.47200     0.00000  0.0
    146    150    149    158   5     0.00000     9.20480     0.00000  0.0
    143    149    150    159   5     0.00000     9.20480     0.00000  0.0
    162    164    163    170   5     0.00000    33.47200     0.00000  0.0
    163    165    164    173   5     0.00000     9.20480     0.00000  0.0
    164    166    165    174   5     0.00000     9.20480     0.00000  0.0
    165    167    166    169   5     0.00000    33.47200     0.00000  0.0
    166    170    169    178   5     0.00000     9.20480     0.00000  0.0
    163    169    170    179   5     0.00000     9.20480     0.00000  0.0
    182    184    183    190   5     0.00000    33.47200     0.00000  0.0
    183    185    184    193   5     0.00000     9.20480     0.00000  0.0
    184    186    185    194   5     0.00000     9.20480     0.00000  0.0
    185    187    186    189   5     0.00000    33.47200     0.00000  0.0
    186    190    189    198   5     0.00000     9.20480     0.00000  0.0
    183    189    190    199   5     0.00000     9.20480     0.00000  0.0
    202    204    203    210   5     0.00000    33.47200     0.00000  0.0
    203    205    204    213   5     0.00000     9.20480     0.00000  0.0
    204    206    205    214   5     0.00000     9.20480     0.00000  0.0
    205    207    206    209   5     0.00000    33.47200     0.00000  0.0
    206    210    209    218   5     0.00000     9.20480     0.00000  0.0
    203    209    210    219   5     0.00000     9.20480     0.00000  0.0
    222    224    223    230   5     0.00000    33.47200     0.00000  0.0
    223    225    224    233   5     0.00000     9.20480     0.00000  0.0
    224    226    225    234   5     0.00000     9.20480     0.00000  0.0
    225    227    226    229   5     0.00000    33.47200     0.00000  0.0
    226    230    229    238   5     0.00000     9.20480     0.00000  0.0
    223    229    230    239   5     0.00000     9.20480     0.00000  0.0
    242    244    243    250   5     0.00000    33.47200     0.00000  0.0
    243    245    244    253   5     0.00000     9.20480     0.00000  0.0
    244    246    245    254   5     0.00000     9.20480     0.00000  0.0
    245    247    246    249   5     0.00000    33.47200     0.00000  0.0
    246    250    249    258   5     0.00000     9.20480     0.00000  0.0
    243    249    250    259   5     0.00000     9.20480     0.00000  0.0
    262    264    263    270   5     0.00000    33.47200     0.00000  0.0
    263    265    264    273   5     0.00000     9.20480     0.00000  0.0
    264    266    265    274   5     0.00000     9.20480     0.00000  0.0
    265    267    266    269   5     0.00000    33.47200     0.00000  0.0
    266    270    269    278   5     0.00000     9.20480     0.00000  0.0
    263    269    270    279   5     0.00000     9.20480     0.00000  0.0
    282    284    283    290   5     0.00000    33.47200     0.00000  0.0
    283    285    284    293   5     0.00000     9.20480     0.00000  0.0
    284    286    285    294   5     0.00000     9.20480     0.00000  0.0
    285    287    286    289   5     0.00000    33.47200     0.00000  0.0
    286    290    289    298   5     0.00000     9.20480     0.00000  0.0
    283    289    290    299   5     0.00000     9.20480     0.00000  0.0
    302    304    303    310   5     0.00000    33.47200     0.00000  0.0
    303    305    304    313   5     0.00000     9.20480     0.00000  0.0
    304    306    305    314   5     0.00000     9.20480     0.00000  0.0
    305    307    306    309   5     0.00000    33.47200     0.00000  0.0
    306    310    309    318   5     0.00000     9.20480     0.00000  0.0
    303    309    310    319   5     0.00000     9.20480     0.00000  0.0
    322    324    323    330   5     0.00000    33.47200     0.00000  0.0
    323    325    324    333   5     0.00000     9.20480     0.00000  0.0
    324    326    325    334   5     0.00000     9.20480     0.00000  0.0
    325    327    326    329   5     0.00000    33.47200     0.00000  0.0
    326    330    329    338   5     0.00000     9.20480     0.00000  0.0
    323    329    330    339   5     0.00000     9.20480     0.00000  0.0
    342    344    343    350   5     0.00000    33.47200     0.00000  0.0
    343    345    344    353   5     0.00000     9.20480     0.00000  0.0
    344    346    345    354   5     0.00000     9.20480     0.00000  0.0
    345    347    346    349   5     0.00000    33.47200     0.00000  0.0
    346    350    349    358   5     0.00000     9.20480     0.00000  0.0
    343    349    350    359   5     0.00000     9.20480     0.00000  0.0
    362    364    363    370   5     0.00000    33.47200     0.00000  0.0
    363    365    364    373   5     0.00000     9.20480     0.00000  0.0
    364    366    365    374   5     0.00000     9.20480     0.00000  0.0
    365    367    366    369   5     0.00000    33.47200     0.00000  0.0
    366    370    369    378   5     0.00000     9.20480     0.00000  0.0
    363    369    370    379   5     0.00000     9.20480     0.00000  0.0
    382    384    383    390   5     0.00000    33.47200     0.00000  0.0
    383    385    384    393   5     0.00000     9.20480     0.00000  0.0
    384    386    385    394   5     0.00000     9.20480     0.00000  0.0
    385    387    386    389   5     0.00000    33.47200     0.00000  0.0
    386    390    389    398   5     0.00000     9.20480     0.00000  0.0
    383    389    390    399   5     0.00000     9.20480     0.00000  0.0
