;
; Gromacs include topology (itp) file.
; For Molecular Group XYZ
; Force field scheme: opls2005
; Produced from DL_FIELD v4.11
;


[ moleculetype ]
; name    nrexcl
XYZ    3

[ atoms ]
; nr   type   resnr   residu    atom    cgnr    charge    mass
    1        CA    1  MOL      C1     1  -0.1150000   12.0115
    2        CA    1  MOL      C2     2  -0.1150000   12.0115
    3        CA    1  MOL      C3     3   0.1380000   12.0115
    4        CA    1  MOL      C4     4  -0.1150000   12.0115
    5        CA    1  MOL      C5     5  -0.1150000   12.0115
    6        CA    1  MOL      C6     6  -0.1150000   12.0115
    7        SY    1  MOL      S7     7   0.7840000   32.0610
    8        OY    1  MOL      O8     8  -0.5300000   15.9994
    9        OY    1  MOL      O9     9  -0.5300000   15.9994
   10        CA    1  MOL     C10    10   0.1380000   12.0115
   11        CA    1  MOL     C11    11  -0.1150000   12.0115
   12        CA    1  MOL     C12    12  -0.1150000   12.0115
   13        CA    1  MOL     C13    13   0.0850000   12.0115
   14        CA    1  MOL     C14    14  -0.1150000   12.0115
   15        CA    1  MOL     C15    15  -0.1150000   12.0115
   16        OS    1  MOL     O16    16  -0.1700000   15.9994
   17        HA    1  MOL     H17    17   0.1150000    1.0080
   18        HA    1  MOL     H18    18   0.1150000    1.0080
   19        HA    1  MOL     H19    19   0.1150000    1.0080
   20        HA    1  MOL     H20    20   0.1150000    1.0080
   21        HA    1  MOL     H21    21   0.1150000    1.0080
   22        HA    1  MOL     H22    22   0.1150000    1.0080
   23        HA    1  MOL     H23    23   0.1150000    1.0080
   24        HA    1  MOL     H24    24   0.1150000    1.0080
   25        HA    1  MOL     H25    25   0.1150000    1.0080
   26        CA    1  MOL     C26    26  -0.1150000   12.0115
   27        CA    1  MOL     C27    27  -0.1150000   12.0115
   28        CA    1  MOL     C28    28   0.1380000   12.0115
   29        CA    1  MOL     C29    29  -0.1150000   12.0115
   30        CA    1  MOL     C30    30  -0.1150000   12.0115
   31        CA    1  MOL     C31    31   0.0850000   12.0115
   32        SY    1  MOL     S32    32   0.7840000   32.0610
   33        OY    1  MOL     O33    33  -0.5300000   15.9994
   34        OY    1  MOL     O34    34  -0.5300000   15.9994
   35        CA    1  MOL     C35    35   0.1380000   12.0115
   36        CA    1  MOL     C36    36  -0.1150000   12.0115
   37        CA    1  MOL     C37    37  -0.1150000   12.0115
   38        CA    1  MOL     C38    38   0.0850000   12.0115
   39        CA    1  MOL     C39    39  -0.1150000   12.0115
   40        CA    1  MOL     C40    40  -0.1150000   12.0115
   41        OS    1  MOL     O41    41  -0.1700000   15.9994
   42        HA    1  MOL     H42    42   0.1150000    1.0080
   43        HA    1  MOL     H43    43   0.1150000    1.0080
   44        HA    1  MOL     H44    44   0.1150000    1.0080
   45        HA    1  MOL     H45    45   0.1150000    1.0080
   46        HA    1  MOL     H46    46   0.1150000    1.0080
   47        HA    1  MOL     H47    47   0.1150000    1.0080
   48        HA    1  MOL     H48    48   0.1150000    1.0080
   49        HA    1  MOL     H49    49   0.1150000    1.0080
   50        CA    1  MOL     C50    50  -0.1150000   12.0115
   51        CA    1  MOL     C51    51  -0.1150000   12.0115
   52        CA    1  MOL     C52    52   0.1380000   12.0115
   53        CA    1  MOL     C53    53  -0.1150000   12.0115
   54        CA    1  MOL     C54    54  -0.1150000   12.0115
   55        CA    1  MOL     C55    55   0.0850000   12.0115
   56        SY    1  MOL     S56    56   0.7840000   32.0610
   57        OY    1  MOL     O57    57  -0.5300000   15.9994
   58        OY    1  MOL     O58    58  -0.5300000   15.9994
   59        CA    1  MOL     C59    59   0.1380000   12.0115
   60        CA    1  MOL     C60    60  -0.1150000   12.0115
   61        CA    1  MOL     C61    61  -0.1150000   12.0115
   62        CA    1  MOL     C62    62   0.0850000   12.0115
   63        CA    1  MOL     C63    63  -0.1150000   12.0115
   64        CA    1  MOL     C64    64  -0.1150000   12.0115
   65        OS    1  MOL     O65    65  -0.1700000   15.9994
   66        HA    1  MOL     H66    66   0.1150000    1.0080
   67        HA    1  MOL     H67    67   0.1150000    1.0080
   68        HA    1  MOL     H68    68   0.1150000    1.0080
   69        HA    1  MOL     H69    69   0.1150000    1.0080
   70        HA    1  MOL     H70    70   0.1150000    1.0080
   71        HA    1  MOL     H71    71   0.1150000    1.0080
   72        HA    1  MOL     H72    72   0.1150000    1.0080
   73        HA    1  MOL     H73    73   0.1150000    1.0080
   74        CA    1  MOL     C74    74  -0.1150000   12.0115
   75        CA    1  MOL     C75    75  -0.1150000   12.0115
   76        CA    1  MOL     C76    76   0.1380000   12.0115
   77        CA    1  MOL     C77    77  -0.1150000   12.0115
   78        CA    1  MOL     C78    78  -0.1150000   12.0115
   79        CA    1  MOL     C79    79   0.0850000   12.0115
   80        SY    1  MOL     S80    80   0.7840000   32.0610
   81        OY    1  MOL     O81    81  -0.5300000   15.9994
   82        OY    1  MOL     O82    82  -0.5300000   15.9994
   83        CA    1  MOL     C83    83   0.1380000   12.0115
   84        CA    1  MOL     C84    84  -0.1150000   12.0115
   85        CA    1  MOL     C85    85  -0.1150000   12.0115
   86        CA    1  MOL     C86    86   0.0850000   12.0115
   87        CA    1  MOL     C87    87  -0.1150000   12.0115
   88        CA    1  MOL     C88    88  -0.1150000   12.0115
   89        OS    1  MOL     O89    89  -0.1700000   15.9994
   90        HA    1  MOL     H90    90   0.1150000    1.0080
   91        HA    1  MOL     H91    91   0.1150000    1.0080
   92        HA    1  MOL     H92    92   0.1150000    1.0080
   93        HA    1  MOL     H93    93   0.1150000    1.0080
   94        HA    1  MOL     H94    94   0.1150000    1.0080
   95        HA    1  MOL     H95    95   0.1150000    1.0080
   96        HA    1  MOL     H96    96   0.1150000    1.0080
   97        HA    1  MOL     H97    97   0.1150000    1.0080
   98        CA    1  MOL     C98    98  -0.1150000   12.0115
   99        CA    1  MOL     C99    99  -0.1150000   12.0115
  100        CA    1  MOL    C100   100   0.1380000   12.0115
  101        CA    1  MOL    C101   101  -0.1150000   12.0115
  102        CA    1  MOL    C102   102  -0.1150000   12.0115
  103        CA    1  MOL    C103   103   0.0850000   12.0115
  104        SY    1  MOL    S104   104   0.7840000   32.0610
  105        OY    1  MOL    O105   105  -0.5300000   15.9994
  106        OY    1  MOL    O106   106  -0.5300000   15.9994
  107        CA    1  MOL    C107   107   0.1380000   12.0115
  108        CA    1  MOL    C108   108  -0.1150000   12.0115
  109        CA    1  MOL    C109   109  -0.1150000   12.0115
  110        CA    1  MOL    C110   110   0.0850000   12.0115
  111        CA    1  MOL    C111   111  -0.1150000   12.0115
  112        CA    1  MOL    C112   112  -0.1150000   12.0115
  113        OS    1  MOL    O113   113  -0.1700000   15.9994
  114        HA    1  MOL    H114   114   0.1150000    1.0080
  115        HA    1  MOL    H115   115   0.1150000    1.0080
  116        HA    1  MOL    H116   116   0.1150000    1.0080
  117        HA    1  MOL    H117   117   0.1150000    1.0080
  118        HA    1  MOL    H118   118   0.1150000    1.0080
  119        HA    1  MOL    H119   119   0.1150000    1.0080
  120        HA    1  MOL    H120   120   0.1150000    1.0080
  121        HA    1  MOL    H121   121   0.1150000    1.0080
  122        CA    1  MOL    C122   122  -0.1150000   12.0115
  123        CA    1  MOL    C123   123  -0.1150000   12.0115
  124        CA    1  MOL    C124   124   0.1380000   12.0115
  125        CA    1  MOL    C125   125  -0.1150000   12.0115
  126        CA    1  MOL    C126   126  -0.1150000   12.0115
  127        CA    1  MOL    C127   127   0.0850000   12.0115
  128        SY    1  MOL    S128   128   0.7840000   32.0610
  129        OY    1  MOL    O129   129  -0.5300000   15.9994
  130        OY    1  MOL    O130   130  -0.5300000   15.9994
  131        CA    1  MOL    C131   131   0.1380000   12.0115
  132        CA    1  MOL    C132   132  -0.1150000   12.0115
  133        CA    1  MOL    C133   133  -0.1150000   12.0115
  134        CA    1  MOL    C134   134   0.0850000   12.0115
  135        CA    1  MOL    C135   135  -0.1150000   12.0115
  136        CA    1  MOL    C136   136  -0.1150000   12.0115
  137        OS    1  MOL    O137   137  -0.1700000   15.9994
  138        HA    1  MOL    H138   138   0.1150000    1.0080
  139        HA    1  MOL    H139   139   0.1150000    1.0080
  140        HA    1  MOL    H140   140   0.1150000    1.0080
  141        HA    1  MOL    H141   141   0.1150000    1.0080
  142        HA    1  MOL    H142   142   0.1150000    1.0080
  143        HA    1  MOL    H143   143   0.1150000    1.0080
  144        HA    1  MOL    H144   144   0.1150000    1.0080
  145        HA    1  MOL    H145   145   0.1150000    1.0080
  146        CA    1  MOL    C146   146  -0.1150000   12.0115
  147        CA    1  MOL    C147   147  -0.1150000   12.0115
  148        CA    1  MOL    C148   148   0.1380000   12.0115
  149        CA    1  MOL    C149   149  -0.1150000   12.0115
  150        CA    1  MOL    C150   150  -0.1150000   12.0115
  151        CA    1  MOL    C151   151   0.0850000   12.0115
  152        SY    1  MOL    S152   152   0.7840000   32.0610
  153        OY    1  MOL    O153   153  -0.5300000   15.9994
  154        OY    1  MOL    O154   154  -0.5300000   15.9994
  155        CA    1  MOL    C155   155   0.1380000   12.0115
  156        CA    1  MOL    C156   156  -0.1150000   12.0115
  157        CA    1  MOL    C157   157  -0.1150000   12.0115
  158        CA    1  MOL    C158   158   0.0850000   12.0115
  159        CA    1  MOL    C159   159  -0.1150000   12.0115
  160        CA    1  MOL    C160   160  -0.1150000   12.0115
  161        OS    1  MOL    O161   161  -0.1700000   15.9994
  162        HA    1  MOL    H162   162   0.1150000    1.0080
  163        HA    1  MOL    H163   163   0.1150000    1.0080
  164        HA    1  MOL    H164   164   0.1150000    1.0080
  165        HA    1  MOL    H165   165   0.1150000    1.0080
  166        HA    1  MOL    H166   166   0.1150000    1.0080
  167        HA    1  MOL    H167   167   0.1150000    1.0080
  168        HA    1  MOL    H168   168   0.1150000    1.0080
  169        HA    1  MOL    H169   169   0.1150000    1.0080
  170        CA    1  MOL    C170   170  -0.1150000   12.0115
  171        CA    1  MOL    C171   171  -0.1150000   12.0115
  172        CA    1  MOL    C172   172   0.1380000   12.0115
  173        CA    1  MOL    C173   173  -0.1150000   12.0115
  174        CA    1  MOL    C174   174  -0.1150000   12.0115
  175        CA    1  MOL    C175   175   0.0850000   12.0115
  176        SY    1  MOL    S176   176   0.7840000   32.0610
  177        OY    1  MOL    O177   177  -0.5300000   15.9994
  178        OY    1  MOL    O178   178  -0.5300000   15.9994
  179        CA    1  MOL    C179   179   0.1380000   12.0115
  180        CA    1  MOL    C180   180  -0.1150000   12.0115
  181        CA    1  MOL    C181   181  -0.1150000   12.0115
  182        CA    1  MOL    C182   182   0.0850000   12.0115
  183        CA    1  MOL    C183   183  -0.1150000   12.0115
  184        CA    1  MOL    C184   184  -0.1150000   12.0115
  185        OS    1  MOL    O185   185  -0.1700000   15.9994
  186        HA    1  MOL    H186   186   0.1150000    1.0080
  187        HA    1  MOL    H187   187   0.1150000    1.0080
  188        HA    1  MOL    H188   188   0.1150000    1.0080
  189        HA    1  MOL    H189   189   0.1150000    1.0080
  190        HA    1  MOL    H190   190   0.1150000    1.0080
  191        HA    1  MOL    H191   191   0.1150000    1.0080
  192        HA    1  MOL    H192   192   0.1150000    1.0080
  193        HA    1  MOL    H193   193   0.1150000    1.0080
  194        CA    1  MOL    C194   194  -0.1150000   12.0115
  195        CA    1  MOL    C195   195  -0.1150000   12.0115
  196        CA    1  MOL    C196   196   0.1380000   12.0115
  197        CA    1  MOL    C197   197  -0.1150000   12.0115
  198        CA    1  MOL    C198   198  -0.1150000   12.0115
  199        CA    1  MOL    C199   199   0.0850000   12.0115
  200        SY    1  MOL    S200   200   0.7840000   32.0610
  201        OY    1  MOL    O201   201  -0.5300000   15.9994
  202        OY    1  MOL    O202   202  -0.5300000   15.9994
  203        CA    1  MOL    C203   203   0.1380000   12.0115
  204        CA    1  MOL    C204   204  -0.1150000   12.0115
  205        CA    1  MOL    C205   205  -0.1150000   12.0115
  206        CA    1  MOL    C206   206   0.0850000   12.0115
  207        CA    1  MOL    C207   207  -0.1150000   12.0115
  208        CA    1  MOL    C208   208  -0.1150000   12.0115
  209        OS    1  MOL    O209   209  -0.1700000   15.9994
  210        HA    1  MOL    H210   210   0.1150000    1.0080
  211        HA    1  MOL    H211   211   0.1150000    1.0080
  212        HA    1  MOL    H212   212   0.1150000    1.0080
  213        HA    1  MOL    H213   213   0.1150000    1.0080
  214        HA    1  MOL    H214   214   0.1150000    1.0080
  215        HA    1  MOL    H215   215   0.1150000    1.0080
  216        HA    1  MOL    H216   216   0.1150000    1.0080
  217        HA    1  MOL    H217   217   0.1150000    1.0080
  218        CA    1  MOL    C218   218  -0.1150000   12.0115
  219        CA    1  MOL    C219   219  -0.1150000   12.0115
  220        CA    1  MOL    C220   220   0.1380000   12.0115
  221        CA    1  MOL    C221   221  -0.1150000   12.0115
  222        CA    1  MOL    C222   222  -0.1150000   12.0115
  223        CA    1  MOL    C223   223   0.0850000   12.0115
  224        SY    1  MOL    S224   224   0.7840000   32.0610
  225        OY    1  MOL    O225   225  -0.5300000   15.9994
  226        OY    1  MOL    O226   226  -0.5300000   15.9994
  227        CA    1  MOL    C227   227   0.1380000   12.0115
  228        CA    1  MOL    C228   228  -0.1150000   12.0115
  229        CA    1  MOL    C229   229  -0.1150000   12.0115
  230        CA    1  MOL    C230   230   0.0850000   12.0115
  231        CA    1  MOL    C231   231  -0.1150000   12.0115
  232        CA    1  MOL    C232   232  -0.1150000   12.0115
  233        OS    1  MOL    O233   233  -0.1700000   15.9994
  234        HA    1  MOL    H234   234   0.1150000    1.0080
  235        HA    1  MOL    H235   235   0.1150000    1.0080
  236        HA    1  MOL    H236   236   0.1150000    1.0080
  237        HA    1  MOL    H237   237   0.1150000    1.0080
  238        HA    1  MOL    H238   238   0.1150000    1.0080
  239        HA    1  MOL    H239   239   0.1150000    1.0080
  240        HA    1  MOL    H240   240   0.1150000    1.0080
  241        HA    1  MOL    H241   241   0.1150000    1.0080
  242        CA    1  MOL    C242   242  -0.1150000   12.0115
  243        CA    1  MOL    C243   243  -0.1150000   12.0115
  244        CA    1  MOL    C244   244   0.1380000   12.0115
  245        CA    1  MOL    C245   245  -0.1150000   12.0115
  246        CA    1  MOL    C246   246  -0.1150000   12.0115
  247        CA    1  MOL    C247   247   0.0850000   12.0115
  248        SY    1  MOL    S248   248   0.7840000   32.0610
  249        OY    1  MOL    O249   249  -0.5300000   15.9994
  250        OY    1  MOL    O250   250  -0.5300000   15.9994
  251        CA    1  MOL    C251   251   0.1380000   12.0115
  252        CA    1  MOL    C252   252  -0.1150000   12.0115
  253        CA    1  MOL    C253   253  -0.1150000   12.0115
  254        CA    1  MOL    C254   254   0.0850000   12.0115
  255        CA    1  MOL    C255   255  -0.1150000   12.0115
  256        CA    1  MOL    C256   256  -0.1150000   12.0115
  257        OS    1  MOL    O257   257  -0.1700000   15.9994
  258        HA    1  MOL    H258   258   0.1150000    1.0080
  259        HA    1  MOL    H259   259   0.1150000    1.0080
  260        HA    1  MOL    H260   260   0.1150000    1.0080
  261        HA    1  MOL    H261   261   0.1150000    1.0080
  262        HA    1  MOL    H262   262   0.1150000    1.0080
  263        HA    1  MOL    H263   263   0.1150000    1.0080
  264        HA    1  MOL    H264   264   0.1150000    1.0080
  265        HA    1  MOL    H265   265   0.1150000    1.0080
  266        CA    1  MOL    C266   266  -0.1150000   12.0115
  267        CA    1  MOL    C267   267  -0.1150000   12.0115
  268        CA    1  MOL    C268   268   0.1380000   12.0115
  269        CA    1  MOL    C269   269  -0.1150000   12.0115
  270        CA    1  MOL    C270   270  -0.1150000   12.0115
  271        CA    1  MOL    C271   271   0.0850000   12.0115
  272        SY    1  MOL    S272   272   0.7840000   32.0610
  273        OY    1  MOL    O273   273  -0.5300000   15.9994
  274        OY    1  MOL    O274   274  -0.5300000   15.9994
  275        CA    1  MOL    C275   275   0.1380000   12.0115
  276        CA    1  MOL    C276   276  -0.1150000   12.0115
  277        CA    1  MOL    C277   277  -0.1150000   12.0115
  278        CA    1  MOL    C278   278   0.0850000   12.0115
  279        CA    1  MOL    C279   279  -0.1150000   12.0115
  280        CA    1  MOL    C280   280  -0.1150000   12.0115
  281        OS    1  MOL    O281   281  -0.1700000   15.9994
  282        HA    1  MOL    H282   282   0.1150000    1.0080
  283        HA    1  MOL    H283   283   0.1150000    1.0080
  284        HA    1  MOL    H284   284   0.1150000    1.0080
  285        HA    1  MOL    H285   285   0.1150000    1.0080
  286        HA    1  MOL    H286   286   0.1150000    1.0080
  287        HA    1  MOL    H287   287   0.1150000    1.0080
  288        HA    1  MOL    H288   288   0.1150000    1.0080
  289        HA    1  MOL    H289   289   0.1150000    1.0080
  290        CA    1  MOL    C290   290  -0.1150000   12.0115
  291        CA    1  MOL    C291   291  -0.1150000   12.0115
  292        CA    1  MOL    C292   292   0.1380000   12.0115
  293        CA    1  MOL    C293   293  -0.1150000   12.0115
  294        CA    1  MOL    C294   294  -0.1150000   12.0115
  295        CA    1  MOL    C295   295   0.0850000   12.0115
  296        SY    1  MOL    S296   296   0.7840000   32.0610
  297        OY    1  MOL    O297   297  -0.5300000   15.9994
  298        OY    1  MOL    O298   298  -0.5300000   15.9994
  299        CA    1  MOL    C299   299   0.1380000   12.0115
  300        CA    1  MOL    C300   300  -0.1150000   12.0115
  301        CA    1  MOL    C301   301  -0.1150000   12.0115
  302        CA    1  MOL    C302   302   0.0850000   12.0115
  303        CA    1  MOL    C303   303  -0.1150000   12.0115
  304        CA    1  MOL    C304   304  -0.1150000   12.0115
  305        OS    1  MOL    O305   305  -0.1700000   15.9994
  306        HA    1  MOL    H306   306   0.1150000    1.0080
  307        HA    1  MOL    H307   307   0.1150000    1.0080
  308        HA    1  MOL    H308   308   0.1150000    1.0080
  309        HA    1  MOL    H309   309   0.1150000    1.0080
  310        HA    1  MOL    H310   310   0.1150000    1.0080
  311        HA    1  MOL    H311   311   0.1150000    1.0080
  312        HA    1  MOL    H312   312   0.1150000    1.0080
  313        HA    1  MOL    H313   313   0.1150000    1.0080
  314        CA    1  MOL    C314   314  -0.1150000   12.0115
  315        CA    1  MOL    C315   315  -0.1150000   12.0115
  316        CA    1  MOL    C316   316   0.1380000   12.0115
  317        CA    1  MOL    C317   317  -0.1150000   12.0115
  318        CA    1  MOL    C318   318  -0.1150000   12.0115
  319        CA    1  MOL    C319   319   0.0850000   12.0115
  320        SY    1  MOL    S320   320   0.7840000   32.0610
  321        OY    1  MOL    O321   321  -0.5300000   15.9994
  322        OY    1  MOL    O322   322  -0.5300000   15.9994
  323        CA    1  MOL    C323   323   0.1380000   12.0115
  324        CA    1  MOL    C324   324  -0.1150000   12.0115
  325        CA    1  MOL    C325   325  -0.1150000   12.0115
  326        CA    1  MOL    C326   326   0.0850000   12.0115
  327        CA    1  MOL    C327   327  -0.1150000   12.0115
  328        CA    1  MOL    C328   328  -0.1150000   12.0115
  329        OS    1  MOL    O329   329  -0.1700000   15.9994
  330        HA    1  MOL    H330   330   0.1150000    1.0080
  331        HA    1  MOL    H331   331   0.1150000    1.0080
  332        HA    1  MOL    H332   332   0.1150000    1.0080
  333        HA    1  MOL    H333   333   0.1150000    1.0080
  334        HA    1  MOL    H334   334   0.1150000    1.0080
  335        HA    1  MOL    H335   335   0.1150000    1.0080
  336        HA    1  MOL    H336   336   0.1150000    1.0080
  337        HA    1  MOL    H337   337   0.1150000    1.0080
  338        CA    1  MOL    C338   338  -0.1150000   12.0115
  339        CA    1  MOL    C339   339  -0.1150000   12.0115
  340        CA    1  MOL    C340   340   0.1380000   12.0115
  341        CA    1  MOL    C341   341  -0.1150000   12.0115
  342        CA    1  MOL    C342   342  -0.1150000   12.0115
  343        CA    1  MOL    C343   343   0.0850000   12.0115
  344        SY    1  MOL    S344   344   0.7840000   32.0610
  345        OY    1  MOL    O345   345  -0.5300000   15.9994
  346        OY    1  MOL    O346   346  -0.5300000   15.9994
  347        CA    1  MOL    C347   347   0.1380000   12.0115
  348        CA    1  MOL    C348   348  -0.1150000   12.0115
  349        CA    1  MOL    C349   349  -0.1150000   12.0115
  350        CA    1  MOL    C350   350   0.0850000   12.0115
  351        CA    1  MOL    C351   351  -0.1150000   12.0115
  352        CA    1  MOL    C352   352  -0.1150000   12.0115
  353        OS    1  MOL    O353   353  -0.1700000   15.9994
  354        HA    1  MOL    H354   354   0.1150000    1.0080
  355        HA    1  MOL    H355   355   0.1150000    1.0080
  356        HA    1  MOL    H356   356   0.1150000    1.0080
  357        HA    1  MOL    H357   357   0.1150000    1.0080
  358        HA    1  MOL    H358   358   0.1150000    1.0080
  359        HA    1  MOL    H359   359   0.1150000    1.0080
  360        HA    1  MOL    H360   360   0.1150000    1.0080
  361        HA    1  MOL    H361   361   0.1150000    1.0080
  362        CA    1  MOL    C362   362  -0.1150000   12.0115
  363        CA    1  MOL    C363   363  -0.1150000   12.0115
  364        CA    1  MOL    C364   364   0.1380000   12.0115
  365        CA    1  MOL    C365   365  -0.1150000   12.0115
  366        CA    1  MOL    C366   366  -0.1150000   12.0115
  367        CA    1  MOL    C367   367   0.0850000   12.0115
  368        SY    1  MOL    S368   368   0.7840000   32.0610
  369        OY    1  MOL    O369   369  -0.5300000   15.9994
  370        OY    1  MOL    O370   370  -0.5300000   15.9994
  371        CA    1  MOL    C371   371   0.1380000   12.0115
  372        CA    1  MOL    C372   372  -0.1150000   12.0115
  373        CA    1  MOL    C373   373  -0.1150000   12.0115
  374        CA    1  MOL    C374   374   0.0850000   12.0115
  375        CA    1  MOL    C375   375  -0.1150000   12.0115
  376        CA    1  MOL    C376   376  -0.1150000   12.0115
  377        OS    1  MOL    O377   377  -0.1700000   15.9994
  378        HA    1  MOL    H378   378   0.1150000    1.0080
  379        HA    1  MOL    H379   379   0.1150000    1.0080
  380        HA    1  MOL    H380   380   0.1150000    1.0080
  381        HA    1  MOL    H381   381   0.1150000    1.0080
  382        HA    1  MOL    H382   382   0.1150000    1.0080
  383        HA    1  MOL    H383   383   0.1150000    1.0080
  384        HA    1  MOL    H384   384   0.1150000    1.0080
  385        HA    1  MOL    H385   385   0.1150000    1.0080
  386        CA    1  MOL    C386   386  -0.1150000   12.0115
  387        CA    1  MOL    C387   387  -0.1150000   12.0115
  388        CA    1  MOL    C388   388   0.1380000   12.0115
  389        CA    1  MOL    C389   389  -0.1150000   12.0115
  390        CA    1  MOL    C390   390  -0.1150000   12.0115
  391        CA    1  MOL    C391   391   0.0850000   12.0115
  392        SY    1  MOL    S392   392   0.7840000   32.0610
  393        OY    1  MOL    O393   393  -0.5300000   15.9994
  394        OY    1  MOL    O394   394  -0.5300000   15.9994
  395        CA    1  MOL    C395   395   0.1380000   12.0115
  396        CA    1  MOL    C396   396  -0.1150000   12.0115
  397        CA    1  MOL    C397   397  -0.1150000   12.0115
  398        CA    1  MOL    C398   398   0.0850000   12.0115
  399        CA    1  MOL    C399   399  -0.1150000   12.0115
  400        CA    1  MOL    C400   400  -0.1150000   12.0115
  401        OS    1  MOL    O401   401  -0.1700000   15.9994
  402        HA    1  MOL    H402   402   0.1150000    1.0080
  403        HA    1  MOL    H403   403   0.1150000    1.0080
  404        HA    1  MOL    H404   404   0.1150000    1.0080
  405        HA    1  MOL    H405   405   0.1150000    1.0080
  406        HA    1  MOL    H406   406   0.1150000    1.0080
  407        HA    1  MOL    H407   407   0.1150000    1.0080
  408        HA    1  MOL    H408   408   0.1150000    1.0080
  409        HA    1  MOL    H409   409   0.1150000    1.0080
  410        CA    1  MOL    C410   410  -0.1150000   12.0115
  411        CA    1  MOL    C411   411  -0.1150000   12.0115
  412        CA    1  MOL    C412   412   0.1380000   12.0115
  413        CA    1  MOL    C413   413  -0.1150000   12.0115
  414        CA    1  MOL    C414   414  -0.1150000   12.0115
  415        CA    1  MOL    C415   415   0.0850000   12.0115
  416        SY    1  MOL    S416   416   0.7840000   32.0610
  417        OY    1  MOL    O417   417  -0.5300000   15.9994
  418        OY    1  MOL    O418   418  -0.5300000   15.9994
  419        CA    1  MOL    C419   419   0.1380000   12.0115
  420        CA    1  MOL    C420   420  -0.1150000   12.0115
  421        CA    1  MOL    C421   421  -0.1150000   12.0115
  422        CA    1  MOL    C422   422   0.0850000   12.0115
  423        CA    1  MOL    C423   423  -0.1150000   12.0115
  424        CA    1  MOL    C424   424  -0.1150000   12.0115
  425        OS    1  MOL    O425   425  -0.1700000   15.9994
  426        HA    1  MOL    H426   426   0.1150000    1.0080
  427        HA    1  MOL    H427   427   0.1150000    1.0080
  428        HA    1  MOL    H428   428   0.1150000    1.0080
  429        HA    1  MOL    H429   429   0.1150000    1.0080
  430        HA    1  MOL    H430   430   0.1150000    1.0080
  431        HA    1  MOL    H431   431   0.1150000    1.0080
  432        HA    1  MOL    H432   432   0.1150000    1.0080
  433        HA    1  MOL    H433   433   0.1150000    1.0080
  434        CA    1  MOL    C434   434  -0.1150000   12.0115
  435        CA    1  MOL    C435   435  -0.1150000   12.0115
  436        CA    1  MOL    C436   436   0.1380000   12.0115
  437        CA    1  MOL    C437   437  -0.1150000   12.0115
  438        CA    1  MOL    C438   438  -0.1150000   12.0115
  439        CA    1  MOL    C439   439   0.0850000   12.0115
  440        SY    1  MOL    S440   440   0.7840000   32.0610
  441        OY    1  MOL    O441   441  -0.5300000   15.9994
  442        OY    1  MOL    O442   442  -0.5300000   15.9994
  443        CA    1  MOL    C443   443   0.1380000   12.0115
  444        CA    1  MOL    C444   444  -0.1150000   12.0115
  445        CA    1  MOL    C445   445  -0.1150000   12.0115
  446        CA    1  MOL    C446   446   0.0850000   12.0115
  447        CA    1  MOL    C447   447  -0.1150000   12.0115
  448        CA    1  MOL    C448   448  -0.1150000   12.0115
  449        OS    1  MOL    O449   449  -0.1700000   15.9994
  450        HA    1  MOL    H450   450   0.1150000    1.0080
  451        HA    1  MOL    H451   451   0.1150000    1.0080
  452        HA    1  MOL    H452   452   0.1150000    1.0080
  453        HA    1  MOL    H453   453   0.1150000    1.0080
  454        HA    1  MOL    H454   454   0.1150000    1.0080
  455        HA    1  MOL    H455   455   0.1150000    1.0080
  456        HA    1  MOL    H456   456   0.1150000    1.0080
  457        HA    1  MOL    H457   457   0.1150000    1.0080
  458        CA    1  MOL    C458   458  -0.1150000   12.0115
  459        CA    1  MOL    C459   459  -0.1150000   12.0115
  460        CA    1  MOL    C460   460   0.1380000   12.0115
  461        CA    1  MOL    C461   461  -0.1150000   12.0115
  462        CA    1  MOL    C462   462  -0.1150000   12.0115
  463        CA    1  MOL    C463   463   0.0850000   12.0115
  464        SY    1  MOL    S464   464   0.7840000   32.0610
  465        OY    1  MOL    O465   465  -0.5300000   15.9994
  466        OY    1  MOL    O466   466  -0.5300000   15.9994
  467        CA    1  MOL    C467   467   0.1380000   12.0115
  468        CA    1  MOL    C468   468  -0.1150000   12.0115
  469        CA    1  MOL    C469   469  -0.1150000   12.0115
  470        CA    1  MOL    C470   470   0.1500000   12.0115
  471        CA    1  MOL    C471   471  -0.1150000   12.0115
  472        CA    1  MOL    C472   472  -0.1150000   12.0115
  473       OHP    1  MOL    O473   473  -0.5850000   15.9994
  474        HA    1  MOL    H474   474   0.1150000    1.0080
  475        HA    1  MOL    H475   475   0.1150000    1.0080
  476        HA    1  MOL    H476   476   0.1150000    1.0080
  477        HA    1  MOL    H477   477   0.1150000    1.0080
  478        HA    1  MOL    H478   478   0.1150000    1.0080
  479        HA    1  MOL    H479   479   0.1150000    1.0080
  480        HA    1  MOL    H480   480   0.1150000    1.0080
  481        HA    1  MOL    H481   481   0.1150000    1.0080
  482        HO    1  MOL    H482   482   0.4350000    1.0080

[ bonds ]
      1      2   1      0.1400 392459.2000
      1      6   1      0.1400 392459.2000
      1     17   1      0.1080 307105.6000
      2      3   1      0.1400 392459.2000
      2     18   1      0.1080 307105.6000
      3      4   1      0.1400 392459.2000
      3      7   1      0.1779 188280.0000
      4      5   1      0.1400 392459.2000
      4     19   1      0.1080 307105.6000
      5      6   1      0.1400 392459.2000
      5     20   1      0.1080 307105.6000
      6     25   1      0.1080 307105.6000
      7      8   1      0.1471 615048.0000
      7      9   1      0.1471 615048.0000
      7     10   1      0.1779 188280.0000
     10     11   1      0.1400 392459.2000
     10     15   1      0.1400 392459.2000
     11     12   1      0.1400 392459.2000
     11     21   1      0.1080 307105.6000
     12     13   1      0.1400 392459.2000
     12     22   1      0.1080 307105.6000
     13     14   1      0.1400 392459.2000
     13     16   1      0.1364 376560.0000
     14     15   1      0.1400 392459.2000
     14     23   1      0.1080 307105.6000
     15     24   1      0.1080 307105.6000
     16     31   1      0.1364 376560.0000
     26     27   1      0.1400 392459.2000
     26     31   1      0.1400 392459.2000
     26     42   1      0.1080 307105.6000
     27     28   1      0.1400 392459.2000
     27     43   1      0.1080 307105.6000
     28     29   1      0.1400 392459.2000
     28     32   1      0.1779 188280.0000
     29     30   1      0.1400 392459.2000
     29     44   1      0.1080 307105.6000
     30     31   1      0.1400 392459.2000
     30     45   1      0.1080 307105.6000
     32     33   1      0.1471 615048.0000
     32     34   1      0.1471 615048.0000
     32     35   1      0.1779 188280.0000
     35     36   1      0.1400 392459.2000
     35     40   1      0.1400 392459.2000
     36     37   1      0.1400 392459.2000
     36     46   1      0.1080 307105.6000
     37     38   1      0.1400 392459.2000
     37     47   1      0.1080 307105.6000
     38     39   1      0.1400 392459.2000
     38     41   1      0.1364 376560.0000
     39     40   1      0.1400 392459.2000
     39     48   1      0.1080 307105.6000
     40     49   1      0.1080 307105.6000
     41     55   1      0.1364 376560.0000
     50     51   1      0.1400 392459.2000
     50     55   1      0.1400 392459.2000
     50     66   1      0.1080 307105.6000
     51     52   1      0.1400 392459.2000
     51     67   1      0.1080 307105.6000
     52     53   1      0.1400 392459.2000
     52     56   1      0.1779 188280.0000
     53     54   1      0.1400 392459.2000
     53     68   1      0.1080 307105.6000
     54     55   1      0.1400 392459.2000
     54     69   1      0.1080 307105.6000
     56     57   1      0.1471 615048.0000
     56     58   1      0.1471 615048.0000
     56     59   1      0.1779 188280.0000
     59     60   1      0.1400 392459.2000
     59     64   1      0.1400 392459.2000
     60     61   1      0.1400 392459.2000
     60     70   1      0.1080 307105.6000
     61     62   1      0.1400 392459.2000
     61     71   1      0.1080 307105.6000
     62     63   1      0.1400 392459.2000
     62     65   1      0.1364 376560.0000
     63     64   1      0.1400 392459.2000
     63     72   1      0.1080 307105.6000
     64     73   1      0.1080 307105.6000
     65     79   1      0.1364 376560.0000
     74     75   1      0.1400 392459.2000
     74     79   1      0.1400 392459.2000
     74     90   1      0.1080 307105.6000
     75     76   1      0.1400 392459.2000
     75     91   1      0.1080 307105.6000
     76     77   1      0.1400 392459.2000
     76     80   1      0.1779 188280.0000
     77     78   1      0.1400 392459.2000
     77     92   1      0.1080 307105.6000
     78     79   1      0.1400 392459.2000
     78     93   1      0.1080 307105.6000
     80     81   1      0.1471 615048.0000
     80     82   1      0.1471 615048.0000
     80     83   1      0.1779 188280.0000
     83     84   1      0.1400 392459.2000
     83     88   1      0.1400 392459.2000
     84     85   1      0.1400 392459.2000
     84     94   1      0.1080 307105.6000
     85     86   1      0.1400 392459.2000
     85     95   1      0.1080 307105.6000
     86     87   1      0.1400 392459.2000
     86     89   1      0.1364 376560.0000
     87     88   1      0.1400 392459.2000
     87     96   1      0.1080 307105.6000
     88     97   1      0.1080 307105.6000
     89    103   1      0.1364 376560.0000
     98     99   1      0.1400 392459.2000
     98    103   1      0.1400 392459.2000
     98    114   1      0.1080 307105.6000
     99    100   1      0.1400 392459.2000
     99    115   1      0.1080 307105.6000
    100    101   1      0.1400 392459.2000
    100    104   1      0.1779 188280.0000
    101    102   1      0.1400 392459.2000
    101    116   1      0.1080 307105.6000
    102    103   1      0.1400 392459.2000
    102    117   1      0.1080 307105.6000
    104    105   1      0.1471 615048.0000
    104    106   1      0.1471 615048.0000
    104    107   1      0.1779 188280.0000
    107    108   1      0.1400 392459.2000
    107    112   1      0.1400 392459.2000
    108    109   1      0.1400 392459.2000
    108    118   1      0.1080 307105.6000
    109    110   1      0.1400 392459.2000
    109    119   1      0.1080 307105.6000
    110    111   1      0.1400 392459.2000
    110    113   1      0.1364 376560.0000
    111    112   1      0.1400 392459.2000
    111    120   1      0.1080 307105.6000
    112    121   1      0.1080 307105.6000
    113    127   1      0.1364 376560.0000
    122    123   1      0.1400 392459.2000
    122    127   1      0.1400 392459.2000
    122    138   1      0.1080 307105.6000
    123    124   1      0.1400 392459.2000
    123    139   1      0.1080 307105.6000
    124    125   1      0.1400 392459.2000
    124    128   1      0.1779 188280.0000
    125    126   1      0.1400 392459.2000
    125    140   1      0.1080 307105.6000
    126    127   1      0.1400 392459.2000
    126    141   1      0.1080 307105.6000
    128    129   1      0.1471 615048.0000
    128    130   1      0.1471 615048.0000
    128    131   1      0.1779 188280.0000
    131    132   1      0.1400 392459.2000
    131    136   1      0.1400 392459.2000
    132    133   1      0.1400 392459.2000
    132    142   1      0.1080 307105.6000
    133    134   1      0.1400 392459.2000
    133    143   1      0.1080 307105.6000
    134    135   1      0.1400 392459.2000
    134    137   1      0.1364 376560.0000
    135    136   1      0.1400 392459.2000
    135    144   1      0.1080 307105.6000
    136    145   1      0.1080 307105.6000
    137    151   1      0.1364 376560.0000
    146    147   1      0.1400 392459.2000
    146    151   1      0.1400 392459.2000
    146    162   1      0.1080 307105.6000
    147    148   1      0.1400 392459.2000
    147    163   1      0.1080 307105.6000
    148    149   1      0.1400 392459.2000
    148    152   1      0.1779 188280.0000
    149    150   1      0.1400 392459.2000
    149    164   1      0.1080 307105.6000
    150    151   1      0.1400 392459.2000
    150    165   1      0.1080 307105.6000
    152    153   1      0.1471 615048.0000
    152    154   1      0.1471 615048.0000
    152    155   1      0.1779 188280.0000
    155    156   1      0.1400 392459.2000
    155    160   1      0.1400 392459.2000
    156    157   1      0.1400 392459.2000
    156    166   1      0.1080 307105.6000
    157    158   1      0.1400 392459.2000
    157    167   1      0.1080 307105.6000
    158    159   1      0.1400 392459.2000
    158    161   1      0.1364 376560.0000
    159    160   1      0.1400 392459.2000
    159    168   1      0.1080 307105.6000
    160    169   1      0.1080 307105.6000
    161    175   1      0.1364 376560.0000
    170    171   1      0.1400 392459.2000
    170    175   1      0.1400 392459.2000
    170    186   1      0.1080 307105.6000
    171    172   1      0.1400 392459.2000
    171    187   1      0.1080 307105.6000
    172    173   1      0.1400 392459.2000
    172    176   1      0.1779 188280.0000
    173    174   1      0.1400 392459.2000
    173    188   1      0.1080 307105.6000
    174    175   1      0.1400 392459.2000
    174    189   1      0.1080 307105.6000
    176    177   1      0.1471 615048.0000
    176    178   1      0.1471 615048.0000
    176    179   1      0.1779 188280.0000
    179    180   1      0.1400 392459.2000
    179    184   1      0.1400 392459.2000
    180    181   1      0.1400 392459.2000
    180    190   1      0.1080 307105.6000
    181    182   1      0.1400 392459.2000
    181    191   1      0.1080 307105.6000
    182    183   1      0.1400 392459.2000
    182    185   1      0.1364 376560.0000
    183    184   1      0.1400 392459.2000
    183    192   1      0.1080 307105.6000
    184    193   1      0.1080 307105.6000
    185    199   1      0.1364 376560.0000
    194    195   1      0.1400 392459.2000
    194    199   1      0.1400 392459.2000
    194    210   1      0.1080 307105.6000
    195    196   1      0.1400 392459.2000
    195    211   1      0.1080 307105.6000
    196    197   1      0.1400 392459.2000
    196    200   1      0.1779 188280.0000
    197    198   1      0.1400 392459.2000
    197    212   1      0.1080 307105.6000
    198    199   1      0.1400 392459.2000
    198    213   1      0.1080 307105.6000
    200    201   1      0.1471 615048.0000
    200    202   1      0.1471 615048.0000
    200    203   1      0.1779 188280.0000
    203    204   1      0.1400 392459.2000
    203    208   1      0.1400 392459.2000
    204    205   1      0.1400 392459.2000
    204    214   1      0.1080 307105.6000
    205    206   1      0.1400 392459.2000
    205    215   1      0.1080 307105.6000
    206    207   1      0.1400 392459.2000
    206    209   1      0.1364 376560.0000
    207    208   1      0.1400 392459.2000
    207    216   1      0.1080 307105.6000
    208    217   1      0.1080 307105.6000
    209    223   1      0.1364 376560.0000
    218    219   1      0.1400 392459.2000
    218    223   1      0.1400 392459.2000
    218    234   1      0.1080 307105.6000
    219    220   1      0.1400 392459.2000
    219    235   1      0.1080 307105.6000
    220    221   1      0.1400 392459.2000
    220    224   1      0.1779 188280.0000
    221    222   1      0.1400 392459.2000
    221    236   1      0.1080 307105.6000
    222    223   1      0.1400 392459.2000
    222    237   1      0.1080 307105.6000
    224    225   1      0.1471 615048.0000
    224    226   1      0.1471 615048.0000
    224    227   1      0.1779 188280.0000
    227    228   1      0.1400 392459.2000
    227    232   1      0.1400 392459.2000
    228    229   1      0.1400 392459.2000
    228    238   1      0.1080 307105.6000
    229    230   1      0.1400 392459.2000
    229    239   1      0.1080 307105.6000
    230    231   1      0.1400 392459.2000
    230    233   1      0.1364 376560.0000
    231    232   1      0.1400 392459.2000
    231    240   1      0.1080 307105.6000
    232    241   1      0.1080 307105.6000
    233    247   1      0.1364 376560.0000
    242    243   1      0.1400 392459.2000
    242    247   1      0.1400 392459.2000
    242    258   1      0.1080 307105.6000
    243    244   1      0.1400 392459.2000
    243    259   1      0.1080 307105.6000
    244    245   1      0.1400 392459.2000
    244    248   1      0.1779 188280.0000
    245    246   1      0.1400 392459.2000
    245    260   1      0.1080 307105.6000
    246    247   1      0.1400 392459.2000
    246    261   1      0.1080 307105.6000
    248    249   1      0.1471 615048.0000
    248    250   1      0.1471 615048.0000
    248    251   1      0.1779 188280.0000
    251    252   1      0.1400 392459.2000
    251    256   1      0.1400 392459.2000
    252    253   1      0.1400 392459.2000
    252    262   1      0.1080 307105.6000
    253    254   1      0.1400 392459.2000
    253    263   1      0.1080 307105.6000
    254    255   1      0.1400 392459.2000
    254    257   1      0.1364 376560.0000
    255    256   1      0.1400 392459.2000
    255    264   1      0.1080 307105.6000
    256    265   1      0.1080 307105.6000
    257    271   1      0.1364 376560.0000
    266    267   1      0.1400 392459.2000
    266    271   1      0.1400 392459.2000
    266    282   1      0.1080 307105.6000
    267    268   1      0.1400 392459.2000
    267    283   1      0.1080 307105.6000
    268    269   1      0.1400 392459.2000
    268    272   1      0.1779 188280.0000
    269    270   1      0.1400 392459.2000
    269    284   1      0.1080 307105.6000
    270    271   1      0.1400 392459.2000
    270    285   1      0.1080 307105.6000
    272    273   1      0.1471 615048.0000
    272    274   1      0.1471 615048.0000
    272    275   1      0.1779 188280.0000
    275    276   1      0.1400 392459.2000
    275    280   1      0.1400 392459.2000
    276    277   1      0.1400 392459.2000
    276    286   1      0.1080 307105.6000
    277    278   1      0.1400 392459.2000
    277    287   1      0.1080 307105.6000
    278    279   1      0.1400 392459.2000
    278    281   1      0.1364 376560.0000
    279    280   1      0.1400 392459.2000
    279    288   1      0.1080 307105.6000
    280    289   1      0.1080 307105.6000
    281    295   1      0.1364 376560.0000
    290    291   1      0.1400 392459.2000
    290    295   1      0.1400 392459.2000
    290    306   1      0.1080 307105.6000
    291    292   1      0.1400 392459.2000
    291    307   1      0.1080 307105.6000
    292    293   1      0.1400 392459.2000
    292    296   1      0.1779 188280.0000
    293    294   1      0.1400 392459.2000
    293    308   1      0.1080 307105.6000
    294    295   1      0.1400 392459.2000
    294    309   1      0.1080 307105.6000
    296    297   1      0.1471 615048.0000
    296    298   1      0.1471 615048.0000
    296    299   1      0.1779 188280.0000
    299    300   1      0.1400 392459.2000
    299    304   1      0.1400 392459.2000
    300    301   1      0.1400 392459.2000
    300    310   1      0.1080 307105.6000
    301    302   1      0.1400 392459.2000
    301    311   1      0.1080 307105.6000
    302    303   1      0.1400 392459.2000
    302    305   1      0.1364 376560.0000
    303    304   1      0.1400 392459.2000
    303    312   1      0.1080 307105.6000
    304    313   1      0.1080 307105.6000
    305    319   1      0.1364 376560.0000
    314    315   1      0.1400 392459.2000
    314    319   1      0.1400 392459.2000
    314    330   1      0.1080 307105.6000
    315    316   1      0.1400 392459.2000
    315    331   1      0.1080 307105.6000
    316    317   1      0.1400 392459.2000
    316    320   1      0.1779 188280.0000
    317    318   1      0.1400 392459.2000
    317    332   1      0.1080 307105.6000
    318    319   1      0.1400 392459.2000
    318    333   1      0.1080 307105.6000
    320    321   1      0.1471 615048.0000
    320    322   1      0.1471 615048.0000
    320    323   1      0.1779 188280.0000
    323    324   1      0.1400 392459.2000
    323    328   1      0.1400 392459.2000
    324    325   1      0.1400 392459.2000
    324    334   1      0.1080 307105.6000
    325    326   1      0.1400 392459.2000
    325    335   1      0.1080 307105.6000
    326    327   1      0.1400 392459.2000
    326    329   1      0.1364 376560.0000
    327    328   1      0.1400 392459.2000
    327    336   1      0.1080 307105.6000
    328    337   1      0.1080 307105.6000
    329    343   1      0.1364 376560.0000
    338    339   1      0.1400 392459.2000
    338    343   1      0.1400 392459.2000
    338    354   1      0.1080 307105.6000
    339    340   1      0.1400 392459.2000
    339    355   1      0.1080 307105.6000
    340    341   1      0.1400 392459.2000
    340    344   1      0.1779 188280.0000
    341    342   1      0.1400 392459.2000
    341    356   1      0.1080 307105.6000
    342    343   1      0.1400 392459.2000
    342    357   1      0.1080 307105.6000
    344    345   1      0.1471 615048.0000
    344    346   1      0.1471 615048.0000
    344    347   1      0.1779 188280.0000
    347    348   1      0.1400 392459.2000
    347    352   1      0.1400 392459.2000
    348    349   1      0.1400 392459.2000
    348    358   1      0.1080 307105.6000
    349    350   1      0.1400 392459.2000
    349    359   1      0.1080 307105.6000
    350    351   1      0.1400 392459.2000
    350    353   1      0.1364 376560.0000
    351    352   1      0.1400 392459.2000
    351    360   1      0.1080 307105.6000
    352    361   1      0.1080 307105.6000
    353    367   1      0.1364 376560.0000
    362    363   1      0.1400 392459.2000
    362    367   1      0.1400 392459.2000
    362    378   1      0.1080 307105.6000
    363    364   1      0.1400 392459.2000
    363    379   1      0.1080 307105.6000
    364    365   1      0.1400 392459.2000
    364    368   1      0.1779 188280.0000
    365    366   1      0.1400 392459.2000
    365    380   1      0.1080 307105.6000
    366    367   1      0.1400 392459.2000
    366    381   1      0.1080 307105.6000
    368    369   1      0.1471 615048.0000
    368    370   1      0.1471 615048.0000
    368    371   1      0.1779 188280.0000
    371    372   1      0.1400 392459.2000
    371    376   1      0.1400 392459.2000
    372    373   1      0.1400 392459.2000
    372    382   1      0.1080 307105.6000
    373    374   1      0.1400 392459.2000
    373    383   1      0.1080 307105.6000
    374    375   1      0.1400 392459.2000
    374    377   1      0.1364 376560.0000
    375    376   1      0.1400 392459.2000
    375    384   1      0.1080 307105.6000
    376    385   1      0.1080 307105.6000
    377    391   1      0.1364 376560.0000
    386    387   1      0.1400 392459.2000
    386    391   1      0.1400 392459.2000
    386    402   1      0.1080 307105.6000
    387    388   1      0.1400 392459.2000
    387    403   1      0.1080 307105.6000
    388    389   1      0.1400 392459.2000
    388    392   1      0.1779 188280.0000
    389    390   1      0.1400 392459.2000
    389    404   1      0.1080 307105.6000
    390    391   1      0.1400 392459.2000
    390    405   1      0.1080 307105.6000
    392    393   1      0.1471 615048.0000
    392    394   1      0.1471 615048.0000
    392    395   1      0.1779 188280.0000
    395    396   1      0.1400 392459.2000
    395    400   1      0.1400 392459.2000
    396    397   1      0.1400 392459.2000
    396    406   1      0.1080 307105.6000
    397    398   1      0.1400 392459.2000
    397    407   1      0.1080 307105.6000
    398    399   1      0.1400 392459.2000
    398    401   1      0.1364 376560.0000
    399    400   1      0.1400 392459.2000
    399    408   1      0.1080 307105.6000
    400    409   1      0.1080 307105.6000
    401    415   1      0.1364 376560.0000
    410    411   1      0.1400 392459.2000
    410    415   1      0.1400 392459.2000
    410    426   1      0.1080 307105.6000
    411    412   1      0.1400 392459.2000
    411    427   1      0.1080 307105.6000
    412    413   1      0.1400 392459.2000
    412    416   1      0.1779 188280.0000
    413    414   1      0.1400 392459.2000
    413    428   1      0.1080 307105.6000
    414    415   1      0.1400 392459.2000
    414    429   1      0.1080 307105.6000
    416    417   1      0.1471 615048.0000
    416    418   1      0.1471 615048.0000
    416    419   1      0.1779 188280.0000
    419    420   1      0.1400 392459.2000
    419    424   1      0.1400 392459.2000
    420    421   1      0.1400 392459.2000
    420    430   1      0.1080 307105.6000
    421    422   1      0.1400 392459.2000
    421    431   1      0.1080 307105.6000
    422    423   1      0.1400 392459.2000
    422    425   1      0.1364 376560.0000
    423    424   1      0.1400 392459.2000
    423    432   1      0.1080 307105.6000
    424    433   1      0.1080 307105.6000
    425    439   1      0.1364 376560.0000
    434    435   1      0.1400 392459.2000
    434    439   1      0.1400 392459.2000
    434    450   1      0.1080 307105.6000
    435    436   1      0.1400 392459.2000
    435    451   1      0.1080 307105.6000
    436    437   1      0.1400 392459.2000
    436    440   1      0.1779 188280.0000
    437    438   1      0.1400 392459.2000
    437    452   1      0.1080 307105.6000
    438    439   1      0.1400 392459.2000
    438    453   1      0.1080 307105.6000
    440    441   1      0.1471 615048.0000
    440    442   1      0.1471 615048.0000
    440    443   1      0.1779 188280.0000
    443    444   1      0.1400 392459.2000
    443    448   1      0.1400 392459.2000
    444    445   1      0.1400 392459.2000
    444    454   1      0.1080 307105.6000
    445    446   1      0.1400 392459.2000
    445    455   1      0.1080 307105.6000
    446    447   1      0.1400 392459.2000
    446    449   1      0.1364 376560.0000
    447    448   1      0.1400 392459.2000
    447    456   1      0.1080 307105.6000
    448    457   1      0.1080 307105.6000
    449    463   1      0.1364 376560.0000
    458    459   1      0.1400 392459.2000
    458    463   1      0.1400 392459.2000
    458    474   1      0.1080 307105.6000
    459    460   1      0.1400 392459.2000
    459    475   1      0.1080 307105.6000
    460    461   1      0.1400 392459.2000
    460    464   1      0.1779 188280.0000
    461    462   1      0.1400 392459.2000
    461    476   1      0.1080 307105.6000
    462    463   1      0.1400 392459.2000
    462    477   1      0.1080 307105.6000
    464    465   1      0.1471 615048.0000
    464    466   1      0.1471 615048.0000
    464    467   1      0.1779 188280.0000
    467    468   1      0.1400 392459.2000
    467    472   1      0.1400 392459.2000
    468    469   1      0.1400 392459.2000
    468    478   1      0.1080 307105.6000
    469    470   1      0.1400 392459.2000
    469    479   1      0.1080 307105.6000
    470    471   1      0.1400 392459.2000
    470    473   1      0.1364 376560.0000
    471    472   1      0.1400 392459.2000
    471    480   1      0.1080 307105.6000
    472    481   1      0.1080 307105.6000
    473    482   1      0.0945 462750.4000

[ pairs ]
; ai   aj   funct   fudge_QQ  charge_i   charge_j   c6    c12
      6      3   2   0.50000    -0.1150000    0.1380000   1.172438e-03  2.346713e-06
      6     18   2   0.50000    -0.1150000    0.1150000   2.431434e-04  1.541678e-07
     17      3   2   0.50000     0.1150000    0.1380000   2.431434e-04  1.541678e-07
     17     18   2   0.50000     0.1150000    0.1150000   5.042375e-05  1.012808e-08
      2      5   2   0.50000    -0.1150000   -0.1150000   1.172438e-03  2.346713e-06
      2     25   2   0.50000    -0.1150000    0.1150000   2.431434e-04  1.541678e-07
     17      5   2   0.50000     0.1150000   -0.1150000   2.431434e-04  1.541678e-07
     17     25   2   0.50000     0.1150000    0.1150000   5.042375e-05  1.012808e-08
      1      4   2   0.50000    -0.1150000   -0.1150000   1.172438e-03  2.346713e-06
      1      7   2   0.50000    -0.1150000    0.7840000   2.215699e-03  4.434870e-06
     18      4   2   0.50000     0.1150000   -0.1150000   2.431434e-04  1.541678e-07
     18      7   2   0.50000     0.1150000    0.7840000   4.594978e-04  2.913497e-07
      2     19   2   0.50000    -0.1150000    0.1150000   2.431434e-04  1.541678e-07
      7      5   2   0.50000     0.7840000   -0.1150000   2.215699e-03  4.434870e-06
      7     19   2   0.50000     0.7840000    0.1150000   4.594978e-04  2.913497e-07
      2      8   2   0.50000    -0.1150000   -0.5300000   1.059145e-03  1.228897e-06
      2      9   2   0.50000    -0.1150000   -0.5300000   1.059145e-03  1.228897e-06
      2     10   2   0.50000    -0.1150000    0.1380000   1.172438e-03  2.346713e-06
      4      8   2   0.50000    -0.1150000   -0.5300000   1.059145e-03  1.228897e-06
      4      9   2   0.50000    -0.1150000   -0.5300000   1.059145e-03  1.228897e-06
      4     10   2   0.50000    -0.1150000    0.1380000   1.172438e-03  2.346713e-06
      3     20   2   0.50000     0.1380000    0.1150000   2.431434e-04  1.541678e-07
     19      6   2   0.50000     0.1150000   -0.1150000   2.431434e-04  1.541678e-07
     19     20   2   0.50000     0.1150000    0.1150000   5.042375e-05  1.012808e-08
      4     25   2   0.50000    -0.1150000    0.1150000   2.431434e-04  1.541678e-07
     20      1   2   0.50000     0.1150000   -0.1150000   2.431434e-04  1.541678e-07
     20     25   2   0.50000     0.1150000    0.1150000   5.042375e-05  1.012808e-08
      3     11   2   0.50000     0.1380000   -0.1150000   1.172438e-03  2.346713e-06
      3     15   2   0.50000     0.1380000   -0.1150000   1.172438e-03  2.346713e-06
      8     11   2   0.50000    -0.5300000   -0.1150000   1.059145e-03  1.228897e-06
      8     15   2   0.50000    -0.5300000   -0.1150000   1.059145e-03  1.228897e-06
      9     11   2   0.50000    -0.5300000   -0.1150000   1.059145e-03  1.228897e-06
      9     15   2   0.50000    -0.5300000   -0.1150000   1.059145e-03  1.228897e-06
      7     12   2   0.50000     0.7840000   -0.1150000   2.215699e-03  4.434870e-06
      7     21   2   0.50000     0.7840000    0.1150000   4.594978e-04  2.913497e-07
     15     12   2   0.50000    -0.1150000   -0.1150000   1.172438e-03  2.346713e-06
     15     21   2   0.50000    -0.1150000    0.1150000   2.431434e-04  1.541678e-07
      7     14   2   0.50000     0.7840000   -0.1150000   2.215699e-03  4.434870e-06
      7     24   2   0.50000     0.7840000    0.1150000   4.594978e-04  2.913497e-07
     11     14   2   0.50000    -0.1150000   -0.1150000   1.172438e-03  2.346713e-06
     11     24   2   0.50000    -0.1150000    0.1150000   2.431434e-04  1.541678e-07
     10     13   2   0.50000     0.1380000    0.0850000   1.172438e-03  2.346713e-06
     10     22   2   0.50000     0.1380000    0.1150000   2.431434e-04  1.541678e-07
     21     13   2   0.50000     0.1150000    0.0850000   2.431434e-04  1.541678e-07
     21     22   2   0.50000     0.1150000    0.1150000   5.042375e-05  1.012808e-08
     11     16   2   0.50000    -0.1150000   -0.1700000   9.038862e-04  9.862632e-07
     22     14   2   0.50000     0.1150000   -0.1150000   2.431434e-04  1.541678e-07
     22     16   2   0.50000     0.1150000   -0.1700000   1.874504e-04  6.479276e-08
     12     23   2   0.50000    -0.1150000    0.1150000   2.431434e-04  1.541678e-07
     16     15   2   0.50000    -0.1700000   -0.1150000   9.038862e-04  9.862632e-07
     16     23   2   0.50000    -0.1700000    0.1150000   1.874504e-04  6.479276e-08
     12     31   2   0.50000    -0.1150000    0.0850000   1.172438e-03  2.346713e-06
     14     31   2   0.50000    -0.1150000    0.0850000   1.172438e-03  2.346713e-06
     13     24   2   0.50000     0.0850000    0.1150000   2.431434e-04  1.541678e-07
     23     10   2   0.50000     0.1150000    0.1380000   2.431434e-04  1.541678e-07
     23     24   2   0.50000     0.1150000    0.1150000   5.042375e-05  1.012808e-08
     13     26   2   0.50000     0.0850000   -0.1150000   1.172438e-03  2.346713e-06
     13     30   2   0.50000     0.0850000   -0.1150000   1.172438e-03  2.346713e-06
     31     28   2   0.50000     0.0850000    0.1380000   1.172438e-03  2.346713e-06
     31     43   2   0.50000     0.0850000    0.1150000   2.431434e-04  1.541678e-07
     42     28   2   0.50000     0.1150000    0.1380000   2.431434e-04  1.541678e-07
     42     43   2   0.50000     0.1150000    0.1150000   5.042375e-05  1.012808e-08
     27     16   2   0.50000    -0.1150000   -0.1700000   9.038862e-04  9.862632e-07
     27     30   2   0.50000    -0.1150000   -0.1150000   1.172438e-03  2.346713e-06
     42     16   2   0.50000     0.1150000   -0.1700000   1.874504e-04  6.479276e-08
     42     30   2   0.50000     0.1150000   -0.1150000   2.431434e-04  1.541678e-07
     26     29   2   0.50000    -0.1150000   -0.1150000   1.172438e-03  2.346713e-06
     26     32   2   0.50000    -0.1150000    0.7840000   2.215699e-03  4.434870e-06
     43     29   2   0.50000     0.1150000   -0.1150000   2.431434e-04  1.541678e-07
     43     32   2   0.50000     0.1150000    0.7840000   4.594978e-04  2.913497e-07
     27     44   2   0.50000    -0.1150000    0.1150000   2.431434e-04  1.541678e-07
     32     30   2   0.50000     0.7840000   -0.1150000   2.215699e-03  4.434870e-06
     32     44   2   0.50000     0.7840000    0.1150000   4.594978e-04  2.913497e-07
     27     33   2   0.50000    -0.1150000   -0.5300000   1.059145e-03  1.228897e-06
     27     34   2   0.50000    -0.1150000   -0.5300000   1.059145e-03  1.228897e-06
     27     35   2   0.50000    -0.1150000    0.1380000   1.172438e-03  2.346713e-06
     29     33   2   0.50000    -0.1150000   -0.5300000   1.059145e-03  1.228897e-06
     29     34   2   0.50000    -0.1150000   -0.5300000   1.059145e-03  1.228897e-06
     29     35   2   0.50000    -0.1150000    0.1380000   1.172438e-03  2.346713e-06
     28     45   2   0.50000     0.1380000    0.1150000   2.431434e-04  1.541678e-07
     44     31   2   0.50000     0.1150000    0.0850000   2.431434e-04  1.541678e-07
     44     45   2   0.50000     0.1150000    0.1150000   5.042375e-05  1.012808e-08
     29     16   2   0.50000    -0.1150000   -0.1700000   9.038862e-04  9.862632e-07
     45     16   2   0.50000     0.1150000   -0.1700000   1.874504e-04  6.479276e-08
     45     26   2   0.50000     0.1150000   -0.1150000   2.431434e-04  1.541678e-07
     28     36   2   0.50000     0.1380000   -0.1150000   1.172438e-03  2.346713e-06
     28     40   2   0.50000     0.1380000   -0.1150000   1.172438e-03  2.346713e-06
     33     36   2   0.50000    -0.5300000   -0.1150000   1.059145e-03  1.228897e-06
     33     40   2   0.50000    -0.5300000   -0.1150000   1.059145e-03  1.228897e-06
     34     36   2   0.50000    -0.5300000   -0.1150000   1.059145e-03  1.228897e-06
     34     40   2   0.50000    -0.5300000   -0.1150000   1.059145e-03  1.228897e-06
     32     37   2   0.50000     0.7840000   -0.1150000   2.215699e-03  4.434870e-06
     32     46   2   0.50000     0.7840000    0.1150000   4.594978e-04  2.913497e-07
     40     37   2   0.50000    -0.1150000   -0.1150000   1.172438e-03  2.346713e-06
     40     46   2   0.50000    -0.1150000    0.1150000   2.431434e-04  1.541678e-07
     32     39   2   0.50000     0.7840000   -0.1150000   2.215699e-03  4.434870e-06
     32     49   2   0.50000     0.7840000    0.1150000   4.594978e-04  2.913497e-07
     36     39   2   0.50000    -0.1150000   -0.1150000   1.172438e-03  2.346713e-06
     36     49   2   0.50000    -0.1150000    0.1150000   2.431434e-04  1.541678e-07
     35     38   2   0.50000     0.1380000    0.0850000   1.172438e-03  2.346713e-06
     35     47   2   0.50000     0.1380000    0.1150000   2.431434e-04  1.541678e-07
     46     38   2   0.50000     0.1150000    0.0850000   2.431434e-04  1.541678e-07
     46     47   2   0.50000     0.1150000    0.1150000   5.042375e-05  1.012808e-08
     36     41   2   0.50000    -0.1150000   -0.1700000   9.038862e-04  9.862632e-07
     47     39   2   0.50000     0.1150000   -0.1150000   2.431434e-04  1.541678e-07
     47     41   2   0.50000     0.1150000   -0.1700000   1.874504e-04  6.479276e-08
     37     48   2   0.50000    -0.1150000    0.1150000   2.431434e-04  1.541678e-07
     41     40   2   0.50000    -0.1700000   -0.1150000   9.038862e-04  9.862632e-07
     41     48   2   0.50000    -0.1700000    0.1150000   1.874504e-04  6.479276e-08
     37     55   2   0.50000    -0.1150000    0.0850000   1.172438e-03  2.346713e-06
     39     55   2   0.50000    -0.1150000    0.0850000   1.172438e-03  2.346713e-06
     38     49   2   0.50000     0.0850000    0.1150000   2.431434e-04  1.541678e-07
     48     35   2   0.50000     0.1150000    0.1380000   2.431434e-04  1.541678e-07
     48     49   2   0.50000     0.1150000    0.1150000   5.042375e-05  1.012808e-08
     38     50   2   0.50000     0.0850000   -0.1150000   1.172438e-03  2.346713e-06
     38     54   2   0.50000     0.0850000   -0.1150000   1.172438e-03  2.346713e-06
     55     52   2   0.50000     0.0850000    0.1380000   1.172438e-03  2.346713e-06
     55     67   2   0.50000     0.0850000    0.1150000   2.431434e-04  1.541678e-07
     66     52   2   0.50000     0.1150000    0.1380000   2.431434e-04  1.541678e-07
     66     67   2   0.50000     0.1150000    0.1150000   5.042375e-05  1.012808e-08
     51     41   2   0.50000    -0.1150000   -0.1700000   9.038862e-04  9.862632e-07
     51     54   2   0.50000    -0.1150000   -0.1150000   1.172438e-03  2.346713e-06
     66     41   2   0.50000     0.1150000   -0.1700000   1.874504e-04  6.479276e-08
     66     54   2   0.50000     0.1150000   -0.1150000   2.431434e-04  1.541678e-07
     50     53   2   0.50000    -0.1150000   -0.1150000   1.172438e-03  2.346713e-06
     50     56   2   0.50000    -0.1150000    0.7840000   2.215699e-03  4.434870e-06
     67     53   2   0.50000     0.1150000   -0.1150000   2.431434e-04  1.541678e-07
     67     56   2   0.50000     0.1150000    0.7840000   4.594978e-04  2.913497e-07
     51     68   2   0.50000    -0.1150000    0.1150000   2.431434e-04  1.541678e-07
     56     54   2   0.50000     0.7840000   -0.1150000   2.215699e-03  4.434870e-06
     56     68   2   0.50000     0.7840000    0.1150000   4.594978e-04  2.913497e-07
     51     57   2   0.50000    -0.1150000   -0.5300000   1.059145e-03  1.228897e-06
     51     58   2   0.50000    -0.1150000   -0.5300000   1.059145e-03  1.228897e-06
     51     59   2   0.50000    -0.1150000    0.1380000   1.172438e-03  2.346713e-06
     53     57   2   0.50000    -0.1150000   -0.5300000   1.059145e-03  1.228897e-06
     53     58   2   0.50000    -0.1150000   -0.5300000   1.059145e-03  1.228897e-06
     53     59   2   0.50000    -0.1150000    0.1380000   1.172438e-03  2.346713e-06
     52     69   2   0.50000     0.1380000    0.1150000   2.431434e-04  1.541678e-07
     68     55   2   0.50000     0.1150000    0.0850000   2.431434e-04  1.541678e-07
     68     69   2   0.50000     0.1150000    0.1150000   5.042375e-05  1.012808e-08
     53     41   2   0.50000    -0.1150000   -0.1700000   9.038862e-04  9.862632e-07
     69     41   2   0.50000     0.1150000   -0.1700000   1.874504e-04  6.479276e-08
     69     50   2   0.50000     0.1150000   -0.1150000   2.431434e-04  1.541678e-07
     52     60   2   0.50000     0.1380000   -0.1150000   1.172438e-03  2.346713e-06
     52     64   2   0.50000     0.1380000   -0.1150000   1.172438e-03  2.346713e-06
     57     60   2   0.50000    -0.5300000   -0.1150000   1.059145e-03  1.228897e-06
     57     64   2   0.50000    -0.5300000   -0.1150000   1.059145e-03  1.228897e-06
     58     60   2   0.50000    -0.5300000   -0.1150000   1.059145e-03  1.228897e-06
     58     64   2   0.50000    -0.5300000   -0.1150000   1.059145e-03  1.228897e-06
     56     61   2   0.50000     0.7840000   -0.1150000   2.215699e-03  4.434870e-06
     56     70   2   0.50000     0.7840000    0.1150000   4.594978e-04  2.913497e-07
     64     61   2   0.50000    -0.1150000   -0.1150000   1.172438e-03  2.346713e-06
     64     70   2   0.50000    -0.1150000    0.1150000   2.431434e-04  1.541678e-07
     56     63   2   0.50000     0.7840000   -0.1150000   2.215699e-03  4.434870e-06
     56     73   2   0.50000     0.7840000    0.1150000   4.594978e-04  2.913497e-07
     60     63   2   0.50000    -0.1150000   -0.1150000   1.172438e-03  2.346713e-06
     60     73   2   0.50000    -0.1150000    0.1150000   2.431434e-04  1.541678e-07
     59     62   2   0.50000     0.1380000    0.0850000   1.172438e-03  2.346713e-06
     59     71   2   0.50000     0.1380000    0.1150000   2.431434e-04  1.541678e-07
     70     62   2   0.50000     0.1150000    0.0850000   2.431434e-04  1.541678e-07
     70     71   2   0.50000     0.1150000    0.1150000   5.042375e-05  1.012808e-08
     60     65   2   0.50000    -0.1150000   -0.1700000   9.038862e-04  9.862632e-07
     71     63   2   0.50000     0.1150000   -0.1150000   2.431434e-04  1.541678e-07
     71     65   2   0.50000     0.1150000   -0.1700000   1.874504e-04  6.479276e-08
     61     72   2   0.50000    -0.1150000    0.1150000   2.431434e-04  1.541678e-07
     65     64   2   0.50000    -0.1700000   -0.1150000   9.038862e-04  9.862632e-07
     65     72   2   0.50000    -0.1700000    0.1150000   1.874504e-04  6.479276e-08
     61     79   2   0.50000    -0.1150000    0.0850000   1.172438e-03  2.346713e-06
     63     79   2   0.50000    -0.1150000    0.0850000   1.172438e-03  2.346713e-06
     62     73   2   0.50000     0.0850000    0.1150000   2.431434e-04  1.541678e-07
     72     59   2   0.50000     0.1150000    0.1380000   2.431434e-04  1.541678e-07
     72     73   2   0.50000     0.1150000    0.1150000   5.042375e-05  1.012808e-08
     62     74   2   0.50000     0.0850000   -0.1150000   1.172438e-03  2.346713e-06
     62     78   2   0.50000     0.0850000   -0.1150000   1.172438e-03  2.346713e-06
     79     76   2   0.50000     0.0850000    0.1380000   1.172438e-03  2.346713e-06
     79     91   2   0.50000     0.0850000    0.1150000   2.431434e-04  1.541678e-07
     90     76   2   0.50000     0.1150000    0.1380000   2.431434e-04  1.541678e-07
     90     91   2   0.50000     0.1150000    0.1150000   5.042375e-05  1.012808e-08
     75     65   2   0.50000    -0.1150000   -0.1700000   9.038862e-04  9.862632e-07
     75     78   2   0.50000    -0.1150000   -0.1150000   1.172438e-03  2.346713e-06
     90     65   2   0.50000     0.1150000   -0.1700000   1.874504e-04  6.479276e-08
     90     78   2   0.50000     0.1150000   -0.1150000   2.431434e-04  1.541678e-07
     74     77   2   0.50000    -0.1150000   -0.1150000   1.172438e-03  2.346713e-06
     74     80   2   0.50000    -0.1150000    0.7840000   2.215699e-03  4.434870e-06
     91     77   2   0.50000     0.1150000   -0.1150000   2.431434e-04  1.541678e-07
     91     80   2   0.50000     0.1150000    0.7840000   4.594978e-04  2.913497e-07
     75     92   2   0.50000    -0.1150000    0.1150000   2.431434e-04  1.541678e-07
     80     78   2   0.50000     0.7840000   -0.1150000   2.215699e-03  4.434870e-06
     80     92   2   0.50000     0.7840000    0.1150000   4.594978e-04  2.913497e-07
     75     81   2   0.50000    -0.1150000   -0.5300000   1.059145e-03  1.228897e-06
     75     82   2   0.50000    -0.1150000   -0.5300000   1.059145e-03  1.228897e-06
     75     83   2   0.50000    -0.1150000    0.1380000   1.172438e-03  2.346713e-06
     77     81   2   0.50000    -0.1150000   -0.5300000   1.059145e-03  1.228897e-06
     77     82   2   0.50000    -0.1150000   -0.5300000   1.059145e-03  1.228897e-06
     77     83   2   0.50000    -0.1150000    0.1380000   1.172438e-03  2.346713e-06
     76     93   2   0.50000     0.1380000    0.1150000   2.431434e-04  1.541678e-07
     92     79   2   0.50000     0.1150000    0.0850000   2.431434e-04  1.541678e-07
     92     93   2   0.50000     0.1150000    0.1150000   5.042375e-05  1.012808e-08
     77     65   2   0.50000    -0.1150000   -0.1700000   9.038862e-04  9.862632e-07
     93     65   2   0.50000     0.1150000   -0.1700000   1.874504e-04  6.479276e-08
     93     74   2   0.50000     0.1150000   -0.1150000   2.431434e-04  1.541678e-07
     76     84   2   0.50000     0.1380000   -0.1150000   1.172438e-03  2.346713e-06
     76     88   2   0.50000     0.1380000   -0.1150000   1.172438e-03  2.346713e-06
     81     84   2   0.50000    -0.5300000   -0.1150000   1.059145e-03  1.228897e-06
     81     88   2   0.50000    -0.5300000   -0.1150000   1.059145e-03  1.228897e-06
     82     84   2   0.50000    -0.5300000   -0.1150000   1.059145e-03  1.228897e-06
     82     88   2   0.50000    -0.5300000   -0.1150000   1.059145e-03  1.228897e-06
     80     85   2   0.50000     0.7840000   -0.1150000   2.215699e-03  4.434870e-06
     80     94   2   0.50000     0.7840000    0.1150000   4.594978e-04  2.913497e-07
     88     85   2   0.50000    -0.1150000   -0.1150000   1.172438e-03  2.346713e-06
     88     94   2   0.50000    -0.1150000    0.1150000   2.431434e-04  1.541678e-07
     80     87   2   0.50000     0.7840000   -0.1150000   2.215699e-03  4.434870e-06
     80     97   2   0.50000     0.7840000    0.1150000   4.594978e-04  2.913497e-07
     84     87   2   0.50000    -0.1150000   -0.1150000   1.172438e-03  2.346713e-06
     84     97   2   0.50000    -0.1150000    0.1150000   2.431434e-04  1.541678e-07
     83     86   2   0.50000     0.1380000    0.0850000   1.172438e-03  2.346713e-06
     83     95   2   0.50000     0.1380000    0.1150000   2.431434e-04  1.541678e-07
     94     86   2   0.50000     0.1150000    0.0850000   2.431434e-04  1.541678e-07
     94     95   2   0.50000     0.1150000    0.1150000   5.042375e-05  1.012808e-08
     84     89   2   0.50000    -0.1150000   -0.1700000   9.038862e-04  9.862632e-07
     95     87   2   0.50000     0.1150000   -0.1150000   2.431434e-04  1.541678e-07
     95     89   2   0.50000     0.1150000   -0.1700000   1.874504e-04  6.479276e-08
     85     96   2   0.50000    -0.1150000    0.1150000   2.431434e-04  1.541678e-07
     89     88   2   0.50000    -0.1700000   -0.1150000   9.038862e-04  9.862632e-07
     89     96   2   0.50000    -0.1700000    0.1150000   1.874504e-04  6.479276e-08
     85    103   2   0.50000    -0.1150000    0.0850000   1.172438e-03  2.346713e-06
     87    103   2   0.50000    -0.1150000    0.0850000   1.172438e-03  2.346713e-06
     86     97   2   0.50000     0.0850000    0.1150000   2.431434e-04  1.541678e-07
     96     83   2   0.50000     0.1150000    0.1380000   2.431434e-04  1.541678e-07
     96     97   2   0.50000     0.1150000    0.1150000   5.042375e-05  1.012808e-08
     86     98   2   0.50000     0.0850000   -0.1150000   1.172438e-03  2.346713e-06
     86    102   2   0.50000     0.0850000   -0.1150000   1.172438e-03  2.346713e-06
    103    100   2   0.50000     0.0850000    0.1380000   1.172438e-03  2.346713e-06
    103    115   2   0.50000     0.0850000    0.1150000   2.431434e-04  1.541678e-07
    114    100   2   0.50000     0.1150000    0.1380000   2.431434e-04  1.541678e-07
    114    115   2   0.50000     0.1150000    0.1150000   5.042375e-05  1.012808e-08
     99     89   2   0.50000    -0.1150000   -0.1700000   9.038862e-04  9.862632e-07
     99    102   2   0.50000    -0.1150000   -0.1150000   1.172438e-03  2.346713e-06
    114     89   2   0.50000     0.1150000   -0.1700000   1.874504e-04  6.479276e-08
    114    102   2   0.50000     0.1150000   -0.1150000   2.431434e-04  1.541678e-07
     98    101   2   0.50000    -0.1150000   -0.1150000   1.172438e-03  2.346713e-06
     98    104   2   0.50000    -0.1150000    0.7840000   2.215699e-03  4.434870e-06
    115    101   2   0.50000     0.1150000   -0.1150000   2.431434e-04  1.541678e-07
    115    104   2   0.50000     0.1150000    0.7840000   4.594978e-04  2.913497e-07
     99    116   2   0.50000    -0.1150000    0.1150000   2.431434e-04  1.541678e-07
    104    102   2   0.50000     0.7840000   -0.1150000   2.215699e-03  4.434870e-06
    104    116   2   0.50000     0.7840000    0.1150000   4.594978e-04  2.913497e-07
     99    105   2   0.50000    -0.1150000   -0.5300000   1.059145e-03  1.228897e-06
     99    106   2   0.50000    -0.1150000   -0.5300000   1.059145e-03  1.228897e-06
     99    107   2   0.50000    -0.1150000    0.1380000   1.172438e-03  2.346713e-06
    101    105   2   0.50000    -0.1150000   -0.5300000   1.059145e-03  1.228897e-06
    101    106   2   0.50000    -0.1150000   -0.5300000   1.059145e-03  1.228897e-06
    101    107   2   0.50000    -0.1150000    0.1380000   1.172438e-03  2.346713e-06
    100    117   2   0.50000     0.1380000    0.1150000   2.431434e-04  1.541678e-07
    116    103   2   0.50000     0.1150000    0.0850000   2.431434e-04  1.541678e-07
    116    117   2   0.50000     0.1150000    0.1150000   5.042375e-05  1.012808e-08
    101     89   2   0.50000    -0.1150000   -0.1700000   9.038862e-04  9.862632e-07
    117     89   2   0.50000     0.1150000   -0.1700000   1.874504e-04  6.479276e-08
    117     98   2   0.50000     0.1150000   -0.1150000   2.431434e-04  1.541678e-07
    100    108   2   0.50000     0.1380000   -0.1150000   1.172438e-03  2.346713e-06
    100    112   2   0.50000     0.1380000   -0.1150000   1.172438e-03  2.346713e-06
    105    108   2   0.50000    -0.5300000   -0.1150000   1.059145e-03  1.228897e-06
    105    112   2   0.50000    -0.5300000   -0.1150000   1.059145e-03  1.228897e-06
    106    108   2   0.50000    -0.5300000   -0.1150000   1.059145e-03  1.228897e-06
    106    112   2   0.50000    -0.5300000   -0.1150000   1.059145e-03  1.228897e-06
    104    109   2   0.50000     0.7840000   -0.1150000   2.215699e-03  4.434870e-06
    104    118   2   0.50000     0.7840000    0.1150000   4.594978e-04  2.913497e-07
    112    109   2   0.50000    -0.1150000   -0.1150000   1.172438e-03  2.346713e-06
    112    118   2   0.50000    -0.1150000    0.1150000   2.431434e-04  1.541678e-07
    104    111   2   0.50000     0.7840000   -0.1150000   2.215699e-03  4.434870e-06
    104    121   2   0.50000     0.7840000    0.1150000   4.594978e-04  2.913497e-07
    108    111   2   0.50000    -0.1150000   -0.1150000   1.172438e-03  2.346713e-06
    108    121   2   0.50000    -0.1150000    0.1150000   2.431434e-04  1.541678e-07
    107    110   2   0.50000     0.1380000    0.0850000   1.172438e-03  2.346713e-06
    107    119   2   0.50000     0.1380000    0.1150000   2.431434e-04  1.541678e-07
    118    110   2   0.50000     0.1150000    0.0850000   2.431434e-04  1.541678e-07
    118    119   2   0.50000     0.1150000    0.1150000   5.042375e-05  1.012808e-08
    108    113   2   0.50000    -0.1150000   -0.1700000   9.038862e-04  9.862632e-07
    119    111   2   0.50000     0.1150000   -0.1150000   2.431434e-04  1.541678e-07
    119    113   2   0.50000     0.1150000   -0.1700000   1.874504e-04  6.479276e-08
    109    120   2   0.50000    -0.1150000    0.1150000   2.431434e-04  1.541678e-07
    113    112   2   0.50000    -0.1700000   -0.1150000   9.038862e-04  9.862632e-07
    113    120   2   0.50000    -0.1700000    0.1150000   1.874504e-04  6.479276e-08
    109    127   2   0.50000    -0.1150000    0.0850000   1.172438e-03  2.346713e-06
    111    127   2   0.50000    -0.1150000    0.0850000   1.172438e-03  2.346713e-06
    110    121   2   0.50000     0.0850000    0.1150000   2.431434e-04  1.541678e-07
    120    107   2   0.50000     0.1150000    0.1380000   2.431434e-04  1.541678e-07
    120    121   2   0.50000     0.1150000    0.1150000   5.042375e-05  1.012808e-08
    110    122   2   0.50000     0.0850000   -0.1150000   1.172438e-03  2.346713e-06
    110    126   2   0.50000     0.0850000   -0.1150000   1.172438e-03  2.346713e-06
    127    124   2   0.50000     0.0850000    0.1380000   1.172438e-03  2.346713e-06
    127    139   2   0.50000     0.0850000    0.1150000   2.431434e-04  1.541678e-07
    138    124   2   0.50000     0.1150000    0.1380000   2.431434e-04  1.541678e-07
    138    139   2   0.50000     0.1150000    0.1150000   5.042375e-05  1.012808e-08
    123    113   2   0.50000    -0.1150000   -0.1700000   9.038862e-04  9.862632e-07
    123    126   2   0.50000    -0.1150000   -0.1150000   1.172438e-03  2.346713e-06
    138    113   2   0.50000     0.1150000   -0.1700000   1.874504e-04  6.479276e-08
    138    126   2   0.50000     0.1150000   -0.1150000   2.431434e-04  1.541678e-07
    122    125   2   0.50000    -0.1150000   -0.1150000   1.172438e-03  2.346713e-06
    122    128   2   0.50000    -0.1150000    0.7840000   2.215699e-03  4.434870e-06
    139    125   2   0.50000     0.1150000   -0.1150000   2.431434e-04  1.541678e-07
    139    128   2   0.50000     0.1150000    0.7840000   4.594978e-04  2.913497e-07
    123    140   2   0.50000    -0.1150000    0.1150000   2.431434e-04  1.541678e-07
    128    126   2   0.50000     0.7840000   -0.1150000   2.215699e-03  4.434870e-06
    128    140   2   0.50000     0.7840000    0.1150000   4.594978e-04  2.913497e-07
    123    129   2   0.50000    -0.1150000   -0.5300000   1.059145e-03  1.228897e-06
    123    130   2   0.50000    -0.1150000   -0.5300000   1.059145e-03  1.228897e-06
    123    131   2   0.50000    -0.1150000    0.1380000   1.172438e-03  2.346713e-06
    125    129   2   0.50000    -0.1150000   -0.5300000   1.059145e-03  1.228897e-06
    125    130   2   0.50000    -0.1150000   -0.5300000   1.059145e-03  1.228897e-06
    125    131   2   0.50000    -0.1150000    0.1380000   1.172438e-03  2.346713e-06
    124    141   2   0.50000     0.1380000    0.1150000   2.431434e-04  1.541678e-07
    140    127   2   0.50000     0.1150000    0.0850000   2.431434e-04  1.541678e-07
    140    141   2   0.50000     0.1150000    0.1150000   5.042375e-05  1.012808e-08
    125    113   2   0.50000    -0.1150000   -0.1700000   9.038862e-04  9.862632e-07
    141    113   2   0.50000     0.1150000   -0.1700000   1.874504e-04  6.479276e-08
    141    122   2   0.50000     0.1150000   -0.1150000   2.431434e-04  1.541678e-07
    124    132   2   0.50000     0.1380000   -0.1150000   1.172438e-03  2.346713e-06
    124    136   2   0.50000     0.1380000   -0.1150000   1.172438e-03  2.346713e-06
    129    132   2   0.50000    -0.5300000   -0.1150000   1.059145e-03  1.228897e-06
    129    136   2   0.50000    -0.5300000   -0.1150000   1.059145e-03  1.228897e-06
    130    132   2   0.50000    -0.5300000   -0.1150000   1.059145e-03  1.228897e-06
    130    136   2   0.50000    -0.5300000   -0.1150000   1.059145e-03  1.228897e-06
    128    133   2   0.50000     0.7840000   -0.1150000   2.215699e-03  4.434870e-06
    128    142   2   0.50000     0.7840000    0.1150000   4.594978e-04  2.913497e-07
    136    133   2   0.50000    -0.1150000   -0.1150000   1.172438e-03  2.346713e-06
    136    142   2   0.50000    -0.1150000    0.1150000   2.431434e-04  1.541678e-07
    128    135   2   0.50000     0.7840000   -0.1150000   2.215699e-03  4.434870e-06
    128    145   2   0.50000     0.7840000    0.1150000   4.594978e-04  2.913497e-07
    132    135   2   0.50000    -0.1150000   -0.1150000   1.172438e-03  2.346713e-06
    132    145   2   0.50000    -0.1150000    0.1150000   2.431434e-04  1.541678e-07
    131    134   2   0.50000     0.1380000    0.0850000   1.172438e-03  2.346713e-06
    131    143   2   0.50000     0.1380000    0.1150000   2.431434e-04  1.541678e-07
    142    134   2   0.50000     0.1150000    0.0850000   2.431434e-04  1.541678e-07
    142    143   2   0.50000     0.1150000    0.1150000   5.042375e-05  1.012808e-08
    132    137   2   0.50000    -0.1150000   -0.1700000   9.038862e-04  9.862632e-07
    143    135   2   0.50000     0.1150000   -0.1150000   2.431434e-04  1.541678e-07
    143    137   2   0.50000     0.1150000   -0.1700000   1.874504e-04  6.479276e-08
    133    144   2   0.50000    -0.1150000    0.1150000   2.431434e-04  1.541678e-07
    137    136   2   0.50000    -0.1700000   -0.1150000   9.038862e-04  9.862632e-07
    137    144   2   0.50000    -0.1700000    0.1150000   1.874504e-04  6.479276e-08
    133    151   2   0.50000    -0.1150000    0.0850000   1.172438e-03  2.346713e-06
    135    151   2   0.50000    -0.1150000    0.0850000   1.172438e-03  2.346713e-06
    134    145   2   0.50000     0.0850000    0.1150000   2.431434e-04  1.541678e-07
    144    131   2   0.50000     0.1150000    0.1380000   2.431434e-04  1.541678e-07
    144    145   2   0.50000     0.1150000    0.1150000   5.042375e-05  1.012808e-08
    134    146   2   0.50000     0.0850000   -0.1150000   1.172438e-03  2.346713e-06
    134    150   2   0.50000     0.0850000   -0.1150000   1.172438e-03  2.346713e-06
    151    148   2   0.50000     0.0850000    0.1380000   1.172438e-03  2.346713e-06
    151    163   2   0.50000     0.0850000    0.1150000   2.431434e-04  1.541678e-07
    162    148   2   0.50000     0.1150000    0.1380000   2.431434e-04  1.541678e-07
    162    163   2   0.50000     0.1150000    0.1150000   5.042375e-05  1.012808e-08
    147    137   2   0.50000    -0.1150000   -0.1700000   9.038862e-04  9.862632e-07
    147    150   2   0.50000    -0.1150000   -0.1150000   1.172438e-03  2.346713e-06
    162    137   2   0.50000     0.1150000   -0.1700000   1.874504e-04  6.479276e-08
    162    150   2   0.50000     0.1150000   -0.1150000   2.431434e-04  1.541678e-07
    146    149   2   0.50000    -0.1150000   -0.1150000   1.172438e-03  2.346713e-06
    146    152   2   0.50000    -0.1150000    0.7840000   2.215699e-03  4.434870e-06
    163    149   2   0.50000     0.1150000   -0.1150000   2.431434e-04  1.541678e-07
    163    152   2   0.50000     0.1150000    0.7840000   4.594978e-04  2.913497e-07
    147    164   2   0.50000    -0.1150000    0.1150000   2.431434e-04  1.541678e-07
    152    150   2   0.50000     0.7840000   -0.1150000   2.215699e-03  4.434870e-06
    152    164   2   0.50000     0.7840000    0.1150000   4.594978e-04  2.913497e-07
    147    153   2   0.50000    -0.1150000   -0.5300000   1.059145e-03  1.228897e-06
    147    154   2   0.50000    -0.1150000   -0.5300000   1.059145e-03  1.228897e-06
    147    155   2   0.50000    -0.1150000    0.1380000   1.172438e-03  2.346713e-06
    149    153   2   0.50000    -0.1150000   -0.5300000   1.059145e-03  1.228897e-06
    149    154   2   0.50000    -0.1150000   -0.5300000   1.059145e-03  1.228897e-06
    149    155   2   0.50000    -0.1150000    0.1380000   1.172438e-03  2.346713e-06
    148    165   2   0.50000     0.1380000    0.1150000   2.431434e-04  1.541678e-07
    164    151   2   0.50000     0.1150000    0.0850000   2.431434e-04  1.541678e-07
    164    165   2   0.50000     0.1150000    0.1150000   5.042375e-05  1.012808e-08
    149    137   2   0.50000    -0.1150000   -0.1700000   9.038862e-04  9.862632e-07
    165    137   2   0.50000     0.1150000   -0.1700000   1.874504e-04  6.479276e-08
    165    146   2   0.50000     0.1150000   -0.1150000   2.431434e-04  1.541678e-07
    148    156   2   0.50000     0.1380000   -0.1150000   1.172438e-03  2.346713e-06
    148    160   2   0.50000     0.1380000   -0.1150000   1.172438e-03  2.346713e-06
    153    156   2   0.50000    -0.5300000   -0.1150000   1.059145e-03  1.228897e-06
    153    160   2   0.50000    -0.5300000   -0.1150000   1.059145e-03  1.228897e-06
    154    156   2   0.50000    -0.5300000   -0.1150000   1.059145e-03  1.228897e-06
    154    160   2   0.50000    -0.5300000   -0.1150000   1.059145e-03  1.228897e-06
    152    157   2   0.50000     0.7840000   -0.1150000   2.215699e-03  4.434870e-06
    152    166   2   0.50000     0.7840000    0.1150000   4.594978e-04  2.913497e-07
    160    157   2   0.50000    -0.1150000   -0.1150000   1.172438e-03  2.346713e-06
    160    166   2   0.50000    -0.1150000    0.1150000   2.431434e-04  1.541678e-07
    152    159   2   0.50000     0.7840000   -0.1150000   2.215699e-03  4.434870e-06
    152    169   2   0.50000     0.7840000    0.1150000   4.594978e-04  2.913497e-07
    156    159   2   0.50000    -0.1150000   -0.1150000   1.172438e-03  2.346713e-06
    156    169   2   0.50000    -0.1150000    0.1150000   2.431434e-04  1.541678e-07
    155    158   2   0.50000     0.1380000    0.0850000   1.172438e-03  2.346713e-06
    155    167   2   0.50000     0.1380000    0.1150000   2.431434e-04  1.541678e-07
    166    158   2   0.50000     0.1150000    0.0850000   2.431434e-04  1.541678e-07
    166    167   2   0.50000     0.1150000    0.1150000   5.042375e-05  1.012808e-08
    156    161   2   0.50000    -0.1150000   -0.1700000   9.038862e-04  9.862632e-07
    167    159   2   0.50000     0.1150000   -0.1150000   2.431434e-04  1.541678e-07
    167    161   2   0.50000     0.1150000   -0.1700000   1.874504e-04  6.479276e-08
    157    168   2   0.50000    -0.1150000    0.1150000   2.431434e-04  1.541678e-07
    161    160   2   0.50000    -0.1700000   -0.1150000   9.038862e-04  9.862632e-07
    161    168   2   0.50000    -0.1700000    0.1150000   1.874504e-04  6.479276e-08
    157    175   2   0.50000    -0.1150000    0.0850000   1.172438e-03  2.346713e-06
    159    175   2   0.50000    -0.1150000    0.0850000   1.172438e-03  2.346713e-06
    158    169   2   0.50000     0.0850000    0.1150000   2.431434e-04  1.541678e-07
    168    155   2   0.50000     0.1150000    0.1380000   2.431434e-04  1.541678e-07
    168    169   2   0.50000     0.1150000    0.1150000   5.042375e-05  1.012808e-08
    158    170   2   0.50000     0.0850000   -0.1150000   1.172438e-03  2.346713e-06
    158    174   2   0.50000     0.0850000   -0.1150000   1.172438e-03  2.346713e-06
    175    172   2   0.50000     0.0850000    0.1380000   1.172438e-03  2.346713e-06
    175    187   2   0.50000     0.0850000    0.1150000   2.431434e-04  1.541678e-07
    186    172   2   0.50000     0.1150000    0.1380000   2.431434e-04  1.541678e-07
    186    187   2   0.50000     0.1150000    0.1150000   5.042375e-05  1.012808e-08
    171    161   2   0.50000    -0.1150000   -0.1700000   9.038862e-04  9.862632e-07
    171    174   2   0.50000    -0.1150000   -0.1150000   1.172438e-03  2.346713e-06
    186    161   2   0.50000     0.1150000   -0.1700000   1.874504e-04  6.479276e-08
    186    174   2   0.50000     0.1150000   -0.1150000   2.431434e-04  1.541678e-07
    170    173   2   0.50000    -0.1150000   -0.1150000   1.172438e-03  2.346713e-06
    170    176   2   0.50000    -0.1150000    0.7840000   2.215699e-03  4.434870e-06
    187    173   2   0.50000     0.1150000   -0.1150000   2.431434e-04  1.541678e-07
    187    176   2   0.50000     0.1150000    0.7840000   4.594978e-04  2.913497e-07
    171    188   2   0.50000    -0.1150000    0.1150000   2.431434e-04  1.541678e-07
    176    174   2   0.50000     0.7840000   -0.1150000   2.215699e-03  4.434870e-06
    176    188   2   0.50000     0.7840000    0.1150000   4.594978e-04  2.913497e-07
    171    177   2   0.50000    -0.1150000   -0.5300000   1.059145e-03  1.228897e-06
    171    178   2   0.50000    -0.1150000   -0.5300000   1.059145e-03  1.228897e-06
    171    179   2   0.50000    -0.1150000    0.1380000   1.172438e-03  2.346713e-06
    173    177   2   0.50000    -0.1150000   -0.5300000   1.059145e-03  1.228897e-06
    173    178   2   0.50000    -0.1150000   -0.5300000   1.059145e-03  1.228897e-06
    173    179   2   0.50000    -0.1150000    0.1380000   1.172438e-03  2.346713e-06
    172    189   2   0.50000     0.1380000    0.1150000   2.431434e-04  1.541678e-07
    188    175   2   0.50000     0.1150000    0.0850000   2.431434e-04  1.541678e-07
    188    189   2   0.50000     0.1150000    0.1150000   5.042375e-05  1.012808e-08
    173    161   2   0.50000    -0.1150000   -0.1700000   9.038862e-04  9.862632e-07
    189    161   2   0.50000     0.1150000   -0.1700000   1.874504e-04  6.479276e-08
    189    170   2   0.50000     0.1150000   -0.1150000   2.431434e-04  1.541678e-07
    172    180   2   0.50000     0.1380000   -0.1150000   1.172438e-03  2.346713e-06
    172    184   2   0.50000     0.1380000   -0.1150000   1.172438e-03  2.346713e-06
    177    180   2   0.50000    -0.5300000   -0.1150000   1.059145e-03  1.228897e-06
    177    184   2   0.50000    -0.5300000   -0.1150000   1.059145e-03  1.228897e-06
    178    180   2   0.50000    -0.5300000   -0.1150000   1.059145e-03  1.228897e-06
    178    184   2   0.50000    -0.5300000   -0.1150000   1.059145e-03  1.228897e-06
    176    181   2   0.50000     0.7840000   -0.1150000   2.215699e-03  4.434870e-06
    176    190   2   0.50000     0.7840000    0.1150000   4.594978e-04  2.913497e-07
    184    181   2   0.50000    -0.1150000   -0.1150000   1.172438e-03  2.346713e-06
    184    190   2   0.50000    -0.1150000    0.1150000   2.431434e-04  1.541678e-07
    176    183   2   0.50000     0.7840000   -0.1150000   2.215699e-03  4.434870e-06
    176    193   2   0.50000     0.7840000    0.1150000   4.594978e-04  2.913497e-07
    180    183   2   0.50000    -0.1150000   -0.1150000   1.172438e-03  2.346713e-06
    180    193   2   0.50000    -0.1150000    0.1150000   2.431434e-04  1.541678e-07
    179    182   2   0.50000     0.1380000    0.0850000   1.172438e-03  2.346713e-06
    179    191   2   0.50000     0.1380000    0.1150000   2.431434e-04  1.541678e-07
    190    182   2   0.50000     0.1150000    0.0850000   2.431434e-04  1.541678e-07
    190    191   2   0.50000     0.1150000    0.1150000   5.042375e-05  1.012808e-08
    180    185   2   0.50000    -0.1150000   -0.1700000   9.038862e-04  9.862632e-07
    191    183   2   0.50000     0.1150000   -0.1150000   2.431434e-04  1.541678e-07
    191    185   2   0.50000     0.1150000   -0.1700000   1.874504e-04  6.479276e-08
    181    192   2   0.50000    -0.1150000    0.1150000   2.431434e-04  1.541678e-07
    185    184   2   0.50000    -0.1700000   -0.1150000   9.038862e-04  9.862632e-07
    185    192   2   0.50000    -0.1700000    0.1150000   1.874504e-04  6.479276e-08
    181    199   2   0.50000    -0.1150000    0.0850000   1.172438e-03  2.346713e-06
    183    199   2   0.50000    -0.1150000    0.0850000   1.172438e-03  2.346713e-06
    182    193   2   0.50000     0.0850000    0.1150000   2.431434e-04  1.541678e-07
    192    179   2   0.50000     0.1150000    0.1380000   2.431434e-04  1.541678e-07
    192    193   2   0.50000     0.1150000    0.1150000   5.042375e-05  1.012808e-08
    182    194   2   0.50000     0.0850000   -0.1150000   1.172438e-03  2.346713e-06
    182    198   2   0.50000     0.0850000   -0.1150000   1.172438e-03  2.346713e-06
    199    196   2   0.50000     0.0850000    0.1380000   1.172438e-03  2.346713e-06
    199    211   2   0.50000     0.0850000    0.1150000   2.431434e-04  1.541678e-07
    210    196   2   0.50000     0.1150000    0.1380000   2.431434e-04  1.541678e-07
    210    211   2   0.50000     0.1150000    0.1150000   5.042375e-05  1.012808e-08
    195    185   2   0.50000    -0.1150000   -0.1700000   9.038862e-04  9.862632e-07
    195    198   2   0.50000    -0.1150000   -0.1150000   1.172438e-03  2.346713e-06
    210    185   2   0.50000     0.1150000   -0.1700000   1.874504e-04  6.479276e-08
    210    198   2   0.50000     0.1150000   -0.1150000   2.431434e-04  1.541678e-07
    194    197   2   0.50000    -0.1150000   -0.1150000   1.172438e-03  2.346713e-06
    194    200   2   0.50000    -0.1150000    0.7840000   2.215699e-03  4.434870e-06
    211    197   2   0.50000     0.1150000   -0.1150000   2.431434e-04  1.541678e-07
    211    200   2   0.50000     0.1150000    0.7840000   4.594978e-04  2.913497e-07
    195    212   2   0.50000    -0.1150000    0.1150000   2.431434e-04  1.541678e-07
    200    198   2   0.50000     0.7840000   -0.1150000   2.215699e-03  4.434870e-06
    200    212   2   0.50000     0.7840000    0.1150000   4.594978e-04  2.913497e-07
    195    201   2   0.50000    -0.1150000   -0.5300000   1.059145e-03  1.228897e-06
    195    202   2   0.50000    -0.1150000   -0.5300000   1.059145e-03  1.228897e-06
    195    203   2   0.50000    -0.1150000    0.1380000   1.172438e-03  2.346713e-06
    197    201   2   0.50000    -0.1150000   -0.5300000   1.059145e-03  1.228897e-06
    197    202   2   0.50000    -0.1150000   -0.5300000   1.059145e-03  1.228897e-06
    197    203   2   0.50000    -0.1150000    0.1380000   1.172438e-03  2.346713e-06
    196    213   2   0.50000     0.1380000    0.1150000   2.431434e-04  1.541678e-07
    212    199   2   0.50000     0.1150000    0.0850000   2.431434e-04  1.541678e-07
    212    213   2   0.50000     0.1150000    0.1150000   5.042375e-05  1.012808e-08
    197    185   2   0.50000    -0.1150000   -0.1700000   9.038862e-04  9.862632e-07
    213    185   2   0.50000     0.1150000   -0.1700000   1.874504e-04  6.479276e-08
    213    194   2   0.50000     0.1150000   -0.1150000   2.431434e-04  1.541678e-07
    196    204   2   0.50000     0.1380000   -0.1150000   1.172438e-03  2.346713e-06
    196    208   2   0.50000     0.1380000   -0.1150000   1.172438e-03  2.346713e-06
    201    204   2   0.50000    -0.5300000   -0.1150000   1.059145e-03  1.228897e-06
    201    208   2   0.50000    -0.5300000   -0.1150000   1.059145e-03  1.228897e-06
    202    204   2   0.50000    -0.5300000   -0.1150000   1.059145e-03  1.228897e-06
    202    208   2   0.50000    -0.5300000   -0.1150000   1.059145e-03  1.228897e-06
    200    205   2   0.50000     0.7840000   -0.1150000   2.215699e-03  4.434870e-06
    200    214   2   0.50000     0.7840000    0.1150000   4.594978e-04  2.913497e-07
    208    205   2   0.50000    -0.1150000   -0.1150000   1.172438e-03  2.346713e-06
    208    214   2   0.50000    -0.1150000    0.1150000   2.431434e-04  1.541678e-07
    200    207   2   0.50000     0.7840000   -0.1150000   2.215699e-03  4.434870e-06
    200    217   2   0.50000     0.7840000    0.1150000   4.594978e-04  2.913497e-07
    204    207   2   0.50000    -0.1150000   -0.1150000   1.172438e-03  2.346713e-06
    204    217   2   0.50000    -0.1150000    0.1150000   2.431434e-04  1.541678e-07
    203    206   2   0.50000     0.1380000    0.0850000   1.172438e-03  2.346713e-06
    203    215   2   0.50000     0.1380000    0.1150000   2.431434e-04  1.541678e-07
    214    206   2   0.50000     0.1150000    0.0850000   2.431434e-04  1.541678e-07
    214    215   2   0.50000     0.1150000    0.1150000   5.042375e-05  1.012808e-08
    204    209   2   0.50000    -0.1150000   -0.1700000   9.038862e-04  9.862632e-07
    215    207   2   0.50000     0.1150000   -0.1150000   2.431434e-04  1.541678e-07
    215    209   2   0.50000     0.1150000   -0.1700000   1.874504e-04  6.479276e-08
    205    216   2   0.50000    -0.1150000    0.1150000   2.431434e-04  1.541678e-07
    209    208   2   0.50000    -0.1700000   -0.1150000   9.038862e-04  9.862632e-07
    209    216   2   0.50000    -0.1700000    0.1150000   1.874504e-04  6.479276e-08
    205    223   2   0.50000    -0.1150000    0.0850000   1.172438e-03  2.346713e-06
    207    223   2   0.50000    -0.1150000    0.0850000   1.172438e-03  2.346713e-06
    206    217   2   0.50000     0.0850000    0.1150000   2.431434e-04  1.541678e-07
    216    203   2   0.50000     0.1150000    0.1380000   2.431434e-04  1.541678e-07
    216    217   2   0.50000     0.1150000    0.1150000   5.042375e-05  1.012808e-08
    206    218   2   0.50000     0.0850000   -0.1150000   1.172438e-03  2.346713e-06
    206    222   2   0.50000     0.0850000   -0.1150000   1.172438e-03  2.346713e-06
    223    220   2   0.50000     0.0850000    0.1380000   1.172438e-03  2.346713e-06
    223    235   2   0.50000     0.0850000    0.1150000   2.431434e-04  1.541678e-07
    234    220   2   0.50000     0.1150000    0.1380000   2.431434e-04  1.541678e-07
    234    235   2   0.50000     0.1150000    0.1150000   5.042375e-05  1.012808e-08
    219    209   2   0.50000    -0.1150000   -0.1700000   9.038862e-04  9.862632e-07
    219    222   2   0.50000    -0.1150000   -0.1150000   1.172438e-03  2.346713e-06
    234    209   2   0.50000     0.1150000   -0.1700000   1.874504e-04  6.479276e-08
    234    222   2   0.50000     0.1150000   -0.1150000   2.431434e-04  1.541678e-07
    218    221   2   0.50000    -0.1150000   -0.1150000   1.172438e-03  2.346713e-06
    218    224   2   0.50000    -0.1150000    0.7840000   2.215699e-03  4.434870e-06
    235    221   2   0.50000     0.1150000   -0.1150000   2.431434e-04  1.541678e-07
    235    224   2   0.50000     0.1150000    0.7840000   4.594978e-04  2.913497e-07
    219    236   2   0.50000    -0.1150000    0.1150000   2.431434e-04  1.541678e-07
    224    222   2   0.50000     0.7840000   -0.1150000   2.215699e-03  4.434870e-06
    224    236   2   0.50000     0.7840000    0.1150000   4.594978e-04  2.913497e-07
    219    225   2   0.50000    -0.1150000   -0.5300000   1.059145e-03  1.228897e-06
    219    226   2   0.50000    -0.1150000   -0.5300000   1.059145e-03  1.228897e-06
    219    227   2   0.50000    -0.1150000    0.1380000   1.172438e-03  2.346713e-06
    221    225   2   0.50000    -0.1150000   -0.5300000   1.059145e-03  1.228897e-06
    221    226   2   0.50000    -0.1150000   -0.5300000   1.059145e-03  1.228897e-06
    221    227   2   0.50000    -0.1150000    0.1380000   1.172438e-03  2.346713e-06
    220    237   2   0.50000     0.1380000    0.1150000   2.431434e-04  1.541678e-07
    236    223   2   0.50000     0.1150000    0.0850000   2.431434e-04  1.541678e-07
    236    237   2   0.50000     0.1150000    0.1150000   5.042375e-05  1.012808e-08
    221    209   2   0.50000    -0.1150000   -0.1700000   9.038862e-04  9.862632e-07
    237    209   2   0.50000     0.1150000   -0.1700000   1.874504e-04  6.479276e-08
    237    218   2   0.50000     0.1150000   -0.1150000   2.431434e-04  1.541678e-07
    220    228   2   0.50000     0.1380000   -0.1150000   1.172438e-03  2.346713e-06
    220    232   2   0.50000     0.1380000   -0.1150000   1.172438e-03  2.346713e-06
    225    228   2   0.50000    -0.5300000   -0.1150000   1.059145e-03  1.228897e-06
    225    232   2   0.50000    -0.5300000   -0.1150000   1.059145e-03  1.228897e-06
    226    228   2   0.50000    -0.5300000   -0.1150000   1.059145e-03  1.228897e-06
    226    232   2   0.50000    -0.5300000   -0.1150000   1.059145e-03  1.228897e-06
    224    229   2   0.50000     0.7840000   -0.1150000   2.215699e-03  4.434870e-06
    224    238   2   0.50000     0.7840000    0.1150000   4.594978e-04  2.913497e-07
    232    229   2   0.50000    -0.1150000   -0.1150000   1.172438e-03  2.346713e-06
    232    238   2   0.50000    -0.1150000    0.1150000   2.431434e-04  1.541678e-07
    224    231   2   0.50000     0.7840000   -0.1150000   2.215699e-03  4.434870e-06
    224    241   2   0.50000     0.7840000    0.1150000   4.594978e-04  2.913497e-07
    228    231   2   0.50000    -0.1150000   -0.1150000   1.172438e-03  2.346713e-06
    228    241   2   0.50000    -0.1150000    0.1150000   2.431434e-04  1.541678e-07
    227    230   2   0.50000     0.1380000    0.0850000   1.172438e-03  2.346713e-06
    227    239   2   0.50000     0.1380000    0.1150000   2.431434e-04  1.541678e-07
    238    230   2   0.50000     0.1150000    0.0850000   2.431434e-04  1.541678e-07
    238    239   2   0.50000     0.1150000    0.1150000   5.042375e-05  1.012808e-08
    228    233   2   0.50000    -0.1150000   -0.1700000   9.038862e-04  9.862632e-07
    239    231   2   0.50000     0.1150000   -0.1150000   2.431434e-04  1.541678e-07
    239    233   2   0.50000     0.1150000   -0.1700000   1.874504e-04  6.479276e-08
    229    240   2   0.50000    -0.1150000    0.1150000   2.431434e-04  1.541678e-07
    233    232   2   0.50000    -0.1700000   -0.1150000   9.038862e-04  9.862632e-07
    233    240   2   0.50000    -0.1700000    0.1150000   1.874504e-04  6.479276e-08
    229    247   2   0.50000    -0.1150000    0.0850000   1.172438e-03  2.346713e-06
    231    247   2   0.50000    -0.1150000    0.0850000   1.172438e-03  2.346713e-06
    230    241   2   0.50000     0.0850000    0.1150000   2.431434e-04  1.541678e-07
    240    227   2   0.50000     0.1150000    0.1380000   2.431434e-04  1.541678e-07
    240    241   2   0.50000     0.1150000    0.1150000   5.042375e-05  1.012808e-08
    230    242   2   0.50000     0.0850000   -0.1150000   1.172438e-03  2.346713e-06
    230    246   2   0.50000     0.0850000   -0.1150000   1.172438e-03  2.346713e-06
    247    244   2   0.50000     0.0850000    0.1380000   1.172438e-03  2.346713e-06
    247    259   2   0.50000     0.0850000    0.1150000   2.431434e-04  1.541678e-07
    258    244   2   0.50000     0.1150000    0.1380000   2.431434e-04  1.541678e-07
    258    259   2   0.50000     0.1150000    0.1150000   5.042375e-05  1.012808e-08
    243    233   2   0.50000    -0.1150000   -0.1700000   9.038862e-04  9.862632e-07
    243    246   2   0.50000    -0.1150000   -0.1150000   1.172438e-03  2.346713e-06
    258    233   2   0.50000     0.1150000   -0.1700000   1.874504e-04  6.479276e-08
    258    246   2   0.50000     0.1150000   -0.1150000   2.431434e-04  1.541678e-07
    242    245   2   0.50000    -0.1150000   -0.1150000   1.172438e-03  2.346713e-06
    242    248   2   0.50000    -0.1150000    0.7840000   2.215699e-03  4.434870e-06
    259    245   2   0.50000     0.1150000   -0.1150000   2.431434e-04  1.541678e-07
    259    248   2   0.50000     0.1150000    0.7840000   4.594978e-04  2.913497e-07
    243    260   2   0.50000    -0.1150000    0.1150000   2.431434e-04  1.541678e-07
    248    246   2   0.50000     0.7840000   -0.1150000   2.215699e-03  4.434870e-06
    248    260   2   0.50000     0.7840000    0.1150000   4.594978e-04  2.913497e-07
    243    249   2   0.50000    -0.1150000   -0.5300000   1.059145e-03  1.228897e-06
    243    250   2   0.50000    -0.1150000   -0.5300000   1.059145e-03  1.228897e-06
    243    251   2   0.50000    -0.1150000    0.1380000   1.172438e-03  2.346713e-06
    245    249   2   0.50000    -0.1150000   -0.5300000   1.059145e-03  1.228897e-06
    245    250   2   0.50000    -0.1150000   -0.5300000   1.059145e-03  1.228897e-06
    245    251   2   0.50000    -0.1150000    0.1380000   1.172438e-03  2.346713e-06
    244    261   2   0.50000     0.1380000    0.1150000   2.431434e-04  1.541678e-07
    260    247   2   0.50000     0.1150000    0.0850000   2.431434e-04  1.541678e-07
    260    261   2   0.50000     0.1150000    0.1150000   5.042375e-05  1.012808e-08
    245    233   2   0.50000    -0.1150000   -0.1700000   9.038862e-04  9.862632e-07
    261    233   2   0.50000     0.1150000   -0.1700000   1.874504e-04  6.479276e-08
    261    242   2   0.50000     0.1150000   -0.1150000   2.431434e-04  1.541678e-07
    244    252   2   0.50000     0.1380000   -0.1150000   1.172438e-03  2.346713e-06
    244    256   2   0.50000     0.1380000   -0.1150000   1.172438e-03  2.346713e-06
    249    252   2   0.50000    -0.5300000   -0.1150000   1.059145e-03  1.228897e-06
    249    256   2   0.50000    -0.5300000   -0.1150000   1.059145e-03  1.228897e-06
    250    252   2   0.50000    -0.5300000   -0.1150000   1.059145e-03  1.228897e-06
    250    256   2   0.50000    -0.5300000   -0.1150000   1.059145e-03  1.228897e-06
    248    253   2   0.50000     0.7840000   -0.1150000   2.215699e-03  4.434870e-06
    248    262   2   0.50000     0.7840000    0.1150000   4.594978e-04  2.913497e-07
    256    253   2   0.50000    -0.1150000   -0.1150000   1.172438e-03  2.346713e-06
    256    262   2   0.50000    -0.1150000    0.1150000   2.431434e-04  1.541678e-07
    248    255   2   0.50000     0.7840000   -0.1150000   2.215699e-03  4.434870e-06
    248    265   2   0.50000     0.7840000    0.1150000   4.594978e-04  2.913497e-07
    252    255   2   0.50000    -0.1150000   -0.1150000   1.172438e-03  2.346713e-06
    252    265   2   0.50000    -0.1150000    0.1150000   2.431434e-04  1.541678e-07
    251    254   2   0.50000     0.1380000    0.0850000   1.172438e-03  2.346713e-06
    251    263   2   0.50000     0.1380000    0.1150000   2.431434e-04  1.541678e-07
    262    254   2   0.50000     0.1150000    0.0850000   2.431434e-04  1.541678e-07
    262    263   2   0.50000     0.1150000    0.1150000   5.042375e-05  1.012808e-08
    252    257   2   0.50000    -0.1150000   -0.1700000   9.038862e-04  9.862632e-07
    263    255   2   0.50000     0.1150000   -0.1150000   2.431434e-04  1.541678e-07
    263    257   2   0.50000     0.1150000   -0.1700000   1.874504e-04  6.479276e-08
    253    264   2   0.50000    -0.1150000    0.1150000   2.431434e-04  1.541678e-07
    257    256   2   0.50000    -0.1700000   -0.1150000   9.038862e-04  9.862632e-07
    257    264   2   0.50000    -0.1700000    0.1150000   1.874504e-04  6.479276e-08
    253    271   2   0.50000    -0.1150000    0.0850000   1.172438e-03  2.346713e-06
    255    271   2   0.50000    -0.1150000    0.0850000   1.172438e-03  2.346713e-06
    254    265   2   0.50000     0.0850000    0.1150000   2.431434e-04  1.541678e-07
    264    251   2   0.50000     0.1150000    0.1380000   2.431434e-04  1.541678e-07
    264    265   2   0.50000     0.1150000    0.1150000   5.042375e-05  1.012808e-08
    254    266   2   0.50000     0.0850000   -0.1150000   1.172438e-03  2.346713e-06
    254    270   2   0.50000     0.0850000   -0.1150000   1.172438e-03  2.346713e-06
    271    268   2   0.50000     0.0850000    0.1380000   1.172438e-03  2.346713e-06
    271    283   2   0.50000     0.0850000    0.1150000   2.431434e-04  1.541678e-07
    282    268   2   0.50000     0.1150000    0.1380000   2.431434e-04  1.541678e-07
    282    283   2   0.50000     0.1150000    0.1150000   5.042375e-05  1.012808e-08
    267    257   2   0.50000    -0.1150000   -0.1700000   9.038862e-04  9.862632e-07
    267    270   2   0.50000    -0.1150000   -0.1150000   1.172438e-03  2.346713e-06
    282    257   2   0.50000     0.1150000   -0.1700000   1.874504e-04  6.479276e-08
    282    270   2   0.50000     0.1150000   -0.1150000   2.431434e-04  1.541678e-07
    266    269   2   0.50000    -0.1150000   -0.1150000   1.172438e-03  2.346713e-06
    266    272   2   0.50000    -0.1150000    0.7840000   2.215699e-03  4.434870e-06
    283    269   2   0.50000     0.1150000   -0.1150000   2.431434e-04  1.541678e-07
    283    272   2   0.50000     0.1150000    0.7840000   4.594978e-04  2.913497e-07
    267    284   2   0.50000    -0.1150000    0.1150000   2.431434e-04  1.541678e-07
    272    270   2   0.50000     0.7840000   -0.1150000   2.215699e-03  4.434870e-06
    272    284   2   0.50000     0.7840000    0.1150000   4.594978e-04  2.913497e-07
    267    273   2   0.50000    -0.1150000   -0.5300000   1.059145e-03  1.228897e-06
    267    274   2   0.50000    -0.1150000   -0.5300000   1.059145e-03  1.228897e-06
    267    275   2   0.50000    -0.1150000    0.1380000   1.172438e-03  2.346713e-06
    269    273   2   0.50000    -0.1150000   -0.5300000   1.059145e-03  1.228897e-06
    269    274   2   0.50000    -0.1150000   -0.5300000   1.059145e-03  1.228897e-06
    269    275   2   0.50000    -0.1150000    0.1380000   1.172438e-03  2.346713e-06
    268    285   2   0.50000     0.1380000    0.1150000   2.431434e-04  1.541678e-07
    284    271   2   0.50000     0.1150000    0.0850000   2.431434e-04  1.541678e-07
    284    285   2   0.50000     0.1150000    0.1150000   5.042375e-05  1.012808e-08
    269    257   2   0.50000    -0.1150000   -0.1700000   9.038862e-04  9.862632e-07
    285    257   2   0.50000     0.1150000   -0.1700000   1.874504e-04  6.479276e-08
    285    266   2   0.50000     0.1150000   -0.1150000   2.431434e-04  1.541678e-07
    268    276   2   0.50000     0.1380000   -0.1150000   1.172438e-03  2.346713e-06
    268    280   2   0.50000     0.1380000   -0.1150000   1.172438e-03  2.346713e-06
    273    276   2   0.50000    -0.5300000   -0.1150000   1.059145e-03  1.228897e-06
    273    280   2   0.50000    -0.5300000   -0.1150000   1.059145e-03  1.228897e-06
    274    276   2   0.50000    -0.5300000   -0.1150000   1.059145e-03  1.228897e-06
    274    280   2   0.50000    -0.5300000   -0.1150000   1.059145e-03  1.228897e-06
    272    277   2   0.50000     0.7840000   -0.1150000   2.215699e-03  4.434870e-06
    272    286   2   0.50000     0.7840000    0.1150000   4.594978e-04  2.913497e-07
    280    277   2   0.50000    -0.1150000   -0.1150000   1.172438e-03  2.346713e-06
    280    286   2   0.50000    -0.1150000    0.1150000   2.431434e-04  1.541678e-07
    272    279   2   0.50000     0.7840000   -0.1150000   2.215699e-03  4.434870e-06
    272    289   2   0.50000     0.7840000    0.1150000   4.594978e-04  2.913497e-07
    276    279   2   0.50000    -0.1150000   -0.1150000   1.172438e-03  2.346713e-06
    276    289   2   0.50000    -0.1150000    0.1150000   2.431434e-04  1.541678e-07
    275    278   2   0.50000     0.1380000    0.0850000   1.172438e-03  2.346713e-06
    275    287   2   0.50000     0.1380000    0.1150000   2.431434e-04  1.541678e-07
    286    278   2   0.50000     0.1150000    0.0850000   2.431434e-04  1.541678e-07
    286    287   2   0.50000     0.1150000    0.1150000   5.042375e-05  1.012808e-08
    276    281   2   0.50000    -0.1150000   -0.1700000   9.038862e-04  9.862632e-07
    287    279   2   0.50000     0.1150000   -0.1150000   2.431434e-04  1.541678e-07
    287    281   2   0.50000     0.1150000   -0.1700000   1.874504e-04  6.479276e-08
    277    288   2   0.50000    -0.1150000    0.1150000   2.431434e-04  1.541678e-07
    281    280   2   0.50000    -0.1700000   -0.1150000   9.038862e-04  9.862632e-07
    281    288   2   0.50000    -0.1700000    0.1150000   1.874504e-04  6.479276e-08
    277    295   2   0.50000    -0.1150000    0.0850000   1.172438e-03  2.346713e-06
    279    295   2   0.50000    -0.1150000    0.0850000   1.172438e-03  2.346713e-06
    278    289   2   0.50000     0.0850000    0.1150000   2.431434e-04  1.541678e-07
    288    275   2   0.50000     0.1150000    0.1380000   2.431434e-04  1.541678e-07
    288    289   2   0.50000     0.1150000    0.1150000   5.042375e-05  1.012808e-08
    278    290   2   0.50000     0.0850000   -0.1150000   1.172438e-03  2.346713e-06
    278    294   2   0.50000     0.0850000   -0.1150000   1.172438e-03  2.346713e-06
    295    292   2   0.50000     0.0850000    0.1380000   1.172438e-03  2.346713e-06
    295    307   2   0.50000     0.0850000    0.1150000   2.431434e-04  1.541678e-07
    306    292   2   0.50000     0.1150000    0.1380000   2.431434e-04  1.541678e-07
    306    307   2   0.50000     0.1150000    0.1150000   5.042375e-05  1.012808e-08
    291    281   2   0.50000    -0.1150000   -0.1700000   9.038862e-04  9.862632e-07
    291    294   2   0.50000    -0.1150000   -0.1150000   1.172438e-03  2.346713e-06
    306    281   2   0.50000     0.1150000   -0.1700000   1.874504e-04  6.479276e-08
    306    294   2   0.50000     0.1150000   -0.1150000   2.431434e-04  1.541678e-07
    290    293   2   0.50000    -0.1150000   -0.1150000   1.172438e-03  2.346713e-06
    290    296   2   0.50000    -0.1150000    0.7840000   2.215699e-03  4.434870e-06
    307    293   2   0.50000     0.1150000   -0.1150000   2.431434e-04  1.541678e-07
    307    296   2   0.50000     0.1150000    0.7840000   4.594978e-04  2.913497e-07
    291    308   2   0.50000    -0.1150000    0.1150000   2.431434e-04  1.541678e-07
    296    294   2   0.50000     0.7840000   -0.1150000   2.215699e-03  4.434870e-06
    296    308   2   0.50000     0.7840000    0.1150000   4.594978e-04  2.913497e-07
    291    297   2   0.50000    -0.1150000   -0.5300000   1.059145e-03  1.228897e-06
    291    298   2   0.50000    -0.1150000   -0.5300000   1.059145e-03  1.228897e-06
    291    299   2   0.50000    -0.1150000    0.1380000   1.172438e-03  2.346713e-06
    293    297   2   0.50000    -0.1150000   -0.5300000   1.059145e-03  1.228897e-06
    293    298   2   0.50000    -0.1150000   -0.5300000   1.059145e-03  1.228897e-06
    293    299   2   0.50000    -0.1150000    0.1380000   1.172438e-03  2.346713e-06
    292    309   2   0.50000     0.1380000    0.1150000   2.431434e-04  1.541678e-07
    308    295   2   0.50000     0.1150000    0.0850000   2.431434e-04  1.541678e-07
    308    309   2   0.50000     0.1150000    0.1150000   5.042375e-05  1.012808e-08
    293    281   2   0.50000    -0.1150000   -0.1700000   9.038862e-04  9.862632e-07
    309    281   2   0.50000     0.1150000   -0.1700000   1.874504e-04  6.479276e-08
    309    290   2   0.50000     0.1150000   -0.1150000   2.431434e-04  1.541678e-07
    292    300   2   0.50000     0.1380000   -0.1150000   1.172438e-03  2.346713e-06
    292    304   2   0.50000     0.1380000   -0.1150000   1.172438e-03  2.346713e-06
    297    300   2   0.50000    -0.5300000   -0.1150000   1.059145e-03  1.228897e-06
    297    304   2   0.50000    -0.5300000   -0.1150000   1.059145e-03  1.228897e-06
    298    300   2   0.50000    -0.5300000   -0.1150000   1.059145e-03  1.228897e-06
    298    304   2   0.50000    -0.5300000   -0.1150000   1.059145e-03  1.228897e-06
    296    301   2   0.50000     0.7840000   -0.1150000   2.215699e-03  4.434870e-06
    296    310   2   0.50000     0.7840000    0.1150000   4.594978e-04  2.913497e-07
    304    301   2   0.50000    -0.1150000   -0.1150000   1.172438e-03  2.346713e-06
    304    310   2   0.50000    -0.1150000    0.1150000   2.431434e-04  1.541678e-07
    296    303   2   0.50000     0.7840000   -0.1150000   2.215699e-03  4.434870e-06
    296    313   2   0.50000     0.7840000    0.1150000   4.594978e-04  2.913497e-07
    300    303   2   0.50000    -0.1150000   -0.1150000   1.172438e-03  2.346713e-06
    300    313   2   0.50000    -0.1150000    0.1150000   2.431434e-04  1.541678e-07
    299    302   2   0.50000     0.1380000    0.0850000   1.172438e-03  2.346713e-06
    299    311   2   0.50000     0.1380000    0.1150000   2.431434e-04  1.541678e-07
    310    302   2   0.50000     0.1150000    0.0850000   2.431434e-04  1.541678e-07
    310    311   2   0.50000     0.1150000    0.1150000   5.042375e-05  1.012808e-08
    300    305   2   0.50000    -0.1150000   -0.1700000   9.038862e-04  9.862632e-07
    311    303   2   0.50000     0.1150000   -0.1150000   2.431434e-04  1.541678e-07
    311    305   2   0.50000     0.1150000   -0.1700000   1.874504e-04  6.479276e-08
    301    312   2   0.50000    -0.1150000    0.1150000   2.431434e-04  1.541678e-07
    305    304   2   0.50000    -0.1700000   -0.1150000   9.038862e-04  9.862632e-07
    305    312   2   0.50000    -0.1700000    0.1150000   1.874504e-04  6.479276e-08
    301    319   2   0.50000    -0.1150000    0.0850000   1.172438e-03  2.346713e-06
    303    319   2   0.50000    -0.1150000    0.0850000   1.172438e-03  2.346713e-06
    302    313   2   0.50000     0.0850000    0.1150000   2.431434e-04  1.541678e-07
    312    299   2   0.50000     0.1150000    0.1380000   2.431434e-04  1.541678e-07
    312    313   2   0.50000     0.1150000    0.1150000   5.042375e-05  1.012808e-08
    302    314   2   0.50000     0.0850000   -0.1150000   1.172438e-03  2.346713e-06
    302    318   2   0.50000     0.0850000   -0.1150000   1.172438e-03  2.346713e-06
    319    316   2   0.50000     0.0850000    0.1380000   1.172438e-03  2.346713e-06
    319    331   2   0.50000     0.0850000    0.1150000   2.431434e-04  1.541678e-07
    330    316   2   0.50000     0.1150000    0.1380000   2.431434e-04  1.541678e-07
    330    331   2   0.50000     0.1150000    0.1150000   5.042375e-05  1.012808e-08
    315    305   2   0.50000    -0.1150000   -0.1700000   9.038862e-04  9.862632e-07
    315    318   2   0.50000    -0.1150000   -0.1150000   1.172438e-03  2.346713e-06
    330    305   2   0.50000     0.1150000   -0.1700000   1.874504e-04  6.479276e-08
    330    318   2   0.50000     0.1150000   -0.1150000   2.431434e-04  1.541678e-07
    314    317   2   0.50000    -0.1150000   -0.1150000   1.172438e-03  2.346713e-06
    314    320   2   0.50000    -0.1150000    0.7840000   2.215699e-03  4.434870e-06
    331    317   2   0.50000     0.1150000   -0.1150000   2.431434e-04  1.541678e-07
    331    320   2   0.50000     0.1150000    0.7840000   4.594978e-04  2.913497e-07
    315    332   2   0.50000    -0.1150000    0.1150000   2.431434e-04  1.541678e-07
    320    318   2   0.50000     0.7840000   -0.1150000   2.215699e-03  4.434870e-06
    320    332   2   0.50000     0.7840000    0.1150000   4.594978e-04  2.913497e-07
    315    321   2   0.50000    -0.1150000   -0.5300000   1.059145e-03  1.228897e-06
    315    322   2   0.50000    -0.1150000   -0.5300000   1.059145e-03  1.228897e-06
    315    323   2   0.50000    -0.1150000    0.1380000   1.172438e-03  2.346713e-06
    317    321   2   0.50000    -0.1150000   -0.5300000   1.059145e-03  1.228897e-06
    317    322   2   0.50000    -0.1150000   -0.5300000   1.059145e-03  1.228897e-06
    317    323   2   0.50000    -0.1150000    0.1380000   1.172438e-03  2.346713e-06
    316    333   2   0.50000     0.1380000    0.1150000   2.431434e-04  1.541678e-07
    332    319   2   0.50000     0.1150000    0.0850000   2.431434e-04  1.541678e-07
    332    333   2   0.50000     0.1150000    0.1150000   5.042375e-05  1.012808e-08
    317    305   2   0.50000    -0.1150000   -0.1700000   9.038862e-04  9.862632e-07
    333    305   2   0.50000     0.1150000   -0.1700000   1.874504e-04  6.479276e-08
    333    314   2   0.50000     0.1150000   -0.1150000   2.431434e-04  1.541678e-07
    316    324   2   0.50000     0.1380000   -0.1150000   1.172438e-03  2.346713e-06
    316    328   2   0.50000     0.1380000   -0.1150000   1.172438e-03  2.346713e-06
    321    324   2   0.50000    -0.5300000   -0.1150000   1.059145e-03  1.228897e-06
    321    328   2   0.50000    -0.5300000   -0.1150000   1.059145e-03  1.228897e-06
    322    324   2   0.50000    -0.5300000   -0.1150000   1.059145e-03  1.228897e-06
    322    328   2   0.50000    -0.5300000   -0.1150000   1.059145e-03  1.228897e-06
    320    325   2   0.50000     0.7840000   -0.1150000   2.215699e-03  4.434870e-06
    320    334   2   0.50000     0.7840000    0.1150000   4.594978e-04  2.913497e-07
    328    325   2   0.50000    -0.1150000   -0.1150000   1.172438e-03  2.346713e-06
    328    334   2   0.50000    -0.1150000    0.1150000   2.431434e-04  1.541678e-07
    320    327   2   0.50000     0.7840000   -0.1150000   2.215699e-03  4.434870e-06
    320    337   2   0.50000     0.7840000    0.1150000   4.594978e-04  2.913497e-07
    324    327   2   0.50000    -0.1150000   -0.1150000   1.172438e-03  2.346713e-06
    324    337   2   0.50000    -0.1150000    0.1150000   2.431434e-04  1.541678e-07
    323    326   2   0.50000     0.1380000    0.0850000   1.172438e-03  2.346713e-06
    323    335   2   0.50000     0.1380000    0.1150000   2.431434e-04  1.541678e-07
    334    326   2   0.50000     0.1150000    0.0850000   2.431434e-04  1.541678e-07
    334    335   2   0.50000     0.1150000    0.1150000   5.042375e-05  1.012808e-08
    324    329   2   0.50000    -0.1150000   -0.1700000   9.038862e-04  9.862632e-07
    335    327   2   0.50000     0.1150000   -0.1150000   2.431434e-04  1.541678e-07
    335    329   2   0.50000     0.1150000   -0.1700000   1.874504e-04  6.479276e-08
    325    336   2   0.50000    -0.1150000    0.1150000   2.431434e-04  1.541678e-07
    329    328   2   0.50000    -0.1700000   -0.1150000   9.038862e-04  9.862632e-07
    329    336   2   0.50000    -0.1700000    0.1150000   1.874504e-04  6.479276e-08
    325    343   2   0.50000    -0.1150000    0.0850000   1.172438e-03  2.346713e-06
    327    343   2   0.50000    -0.1150000    0.0850000   1.172438e-03  2.346713e-06
    326    337   2   0.50000     0.0850000    0.1150000   2.431434e-04  1.541678e-07
    336    323   2   0.50000     0.1150000    0.1380000   2.431434e-04  1.541678e-07
    336    337   2   0.50000     0.1150000    0.1150000   5.042375e-05  1.012808e-08
    326    338   2   0.50000     0.0850000   -0.1150000   1.172438e-03  2.346713e-06
    326    342   2   0.50000     0.0850000   -0.1150000   1.172438e-03  2.346713e-06
    343    340   2   0.50000     0.0850000    0.1380000   1.172438e-03  2.346713e-06
    343    355   2   0.50000     0.0850000    0.1150000   2.431434e-04  1.541678e-07
    354    340   2   0.50000     0.1150000    0.1380000   2.431434e-04  1.541678e-07
    354    355   2   0.50000     0.1150000    0.1150000   5.042375e-05  1.012808e-08
    339    329   2   0.50000    -0.1150000   -0.1700000   9.038862e-04  9.862632e-07
    339    342   2   0.50000    -0.1150000   -0.1150000   1.172438e-03  2.346713e-06
    354    329   2   0.50000     0.1150000   -0.1700000   1.874504e-04  6.479276e-08
    354    342   2   0.50000     0.1150000   -0.1150000   2.431434e-04  1.541678e-07
    338    341   2   0.50000    -0.1150000   -0.1150000   1.172438e-03  2.346713e-06
    338    344   2   0.50000    -0.1150000    0.7840000   2.215699e-03  4.434870e-06
    355    341   2   0.50000     0.1150000   -0.1150000   2.431434e-04  1.541678e-07
    355    344   2   0.50000     0.1150000    0.7840000   4.594978e-04  2.913497e-07
    339    356   2   0.50000    -0.1150000    0.1150000   2.431434e-04  1.541678e-07
    344    342   2   0.50000     0.7840000   -0.1150000   2.215699e-03  4.434870e-06
    344    356   2   0.50000     0.7840000    0.1150000   4.594978e-04  2.913497e-07
    339    345   2   0.50000    -0.1150000   -0.5300000   1.059145e-03  1.228897e-06
    339    346   2   0.50000    -0.1150000   -0.5300000   1.059145e-03  1.228897e-06
    339    347   2   0.50000    -0.1150000    0.1380000   1.172438e-03  2.346713e-06
    341    345   2   0.50000    -0.1150000   -0.5300000   1.059145e-03  1.228897e-06
    341    346   2   0.50000    -0.1150000   -0.5300000   1.059145e-03  1.228897e-06
    341    347   2   0.50000    -0.1150000    0.1380000   1.172438e-03  2.346713e-06
    340    357   2   0.50000     0.1380000    0.1150000   2.431434e-04  1.541678e-07
    356    343   2   0.50000     0.1150000    0.0850000   2.431434e-04  1.541678e-07
    356    357   2   0.50000     0.1150000    0.1150000   5.042375e-05  1.012808e-08
    341    329   2   0.50000    -0.1150000   -0.1700000   9.038862e-04  9.862632e-07
    357    329   2   0.50000     0.1150000   -0.1700000   1.874504e-04  6.479276e-08
    357    338   2   0.50000     0.1150000   -0.1150000   2.431434e-04  1.541678e-07
    340    348   2   0.50000     0.1380000   -0.1150000   1.172438e-03  2.346713e-06
    340    352   2   0.50000     0.1380000   -0.1150000   1.172438e-03  2.346713e-06
    345    348   2   0.50000    -0.5300000   -0.1150000   1.059145e-03  1.228897e-06
    345    352   2   0.50000    -0.5300000   -0.1150000   1.059145e-03  1.228897e-06
    346    348   2   0.50000    -0.5300000   -0.1150000   1.059145e-03  1.228897e-06
    346    352   2   0.50000    -0.5300000   -0.1150000   1.059145e-03  1.228897e-06
    344    349   2   0.50000     0.7840000   -0.1150000   2.215699e-03  4.434870e-06
    344    358   2   0.50000     0.7840000    0.1150000   4.594978e-04  2.913497e-07
    352    349   2   0.50000    -0.1150000   -0.1150000   1.172438e-03  2.346713e-06
    352    358   2   0.50000    -0.1150000    0.1150000   2.431434e-04  1.541678e-07
    344    351   2   0.50000     0.7840000   -0.1150000   2.215699e-03  4.434870e-06
    344    361   2   0.50000     0.7840000    0.1150000   4.594978e-04  2.913497e-07
    348    351   2   0.50000    -0.1150000   -0.1150000   1.172438e-03  2.346713e-06
    348    361   2   0.50000    -0.1150000    0.1150000   2.431434e-04  1.541678e-07
    347    350   2   0.50000     0.1380000    0.0850000   1.172438e-03  2.346713e-06
    347    359   2   0.50000     0.1380000    0.1150000   2.431434e-04  1.541678e-07
    358    350   2   0.50000     0.1150000    0.0850000   2.431434e-04  1.541678e-07
    358    359   2   0.50000     0.1150000    0.1150000   5.042375e-05  1.012808e-08
    348    353   2   0.50000    -0.1150000   -0.1700000   9.038862e-04  9.862632e-07
    359    351   2   0.50000     0.1150000   -0.1150000   2.431434e-04  1.541678e-07
    359    353   2   0.50000     0.1150000   -0.1700000   1.874504e-04  6.479276e-08
    349    360   2   0.50000    -0.1150000    0.1150000   2.431434e-04  1.541678e-07
    353    352   2   0.50000    -0.1700000   -0.1150000   9.038862e-04  9.862632e-07
    353    360   2   0.50000    -0.1700000    0.1150000   1.874504e-04  6.479276e-08
    349    367   2   0.50000    -0.1150000    0.0850000   1.172438e-03  2.346713e-06
    351    367   2   0.50000    -0.1150000    0.0850000   1.172438e-03  2.346713e-06
    350    361   2   0.50000     0.0850000    0.1150000   2.431434e-04  1.541678e-07
    360    347   2   0.50000     0.1150000    0.1380000   2.431434e-04  1.541678e-07
    360    361   2   0.50000     0.1150000    0.1150000   5.042375e-05  1.012808e-08
    350    362   2   0.50000     0.0850000   -0.1150000   1.172438e-03  2.346713e-06
    350    366   2   0.50000     0.0850000   -0.1150000   1.172438e-03  2.346713e-06
    367    364   2   0.50000     0.0850000    0.1380000   1.172438e-03  2.346713e-06
    367    379   2   0.50000     0.0850000    0.1150000   2.431434e-04  1.541678e-07
    378    364   2   0.50000     0.1150000    0.1380000   2.431434e-04  1.541678e-07
    378    379   2   0.50000     0.1150000    0.1150000   5.042375e-05  1.012808e-08
    363    353   2   0.50000    -0.1150000   -0.1700000   9.038862e-04  9.862632e-07
    363    366   2   0.50000    -0.1150000   -0.1150000   1.172438e-03  2.346713e-06
    378    353   2   0.50000     0.1150000   -0.1700000   1.874504e-04  6.479276e-08
    378    366   2   0.50000     0.1150000   -0.1150000   2.431434e-04  1.541678e-07
    362    365   2   0.50000    -0.1150000   -0.1150000   1.172438e-03  2.346713e-06
    362    368   2   0.50000    -0.1150000    0.7840000   2.215699e-03  4.434870e-06
    379    365   2   0.50000     0.1150000   -0.1150000   2.431434e-04  1.541678e-07
    379    368   2   0.50000     0.1150000    0.7840000   4.594978e-04  2.913497e-07
    363    380   2   0.50000    -0.1150000    0.1150000   2.431434e-04  1.541678e-07
    368    366   2   0.50000     0.7840000   -0.1150000   2.215699e-03  4.434870e-06
    368    380   2   0.50000     0.7840000    0.1150000   4.594978e-04  2.913497e-07
    363    369   2   0.50000    -0.1150000   -0.5300000   1.059145e-03  1.228897e-06
    363    370   2   0.50000    -0.1150000   -0.5300000   1.059145e-03  1.228897e-06
    363    371   2   0.50000    -0.1150000    0.1380000   1.172438e-03  2.346713e-06
    365    369   2   0.50000    -0.1150000   -0.5300000   1.059145e-03  1.228897e-06
    365    370   2   0.50000    -0.1150000   -0.5300000   1.059145e-03  1.228897e-06
    365    371   2   0.50000    -0.1150000    0.1380000   1.172438e-03  2.346713e-06
    364    381   2   0.50000     0.1380000    0.1150000   2.431434e-04  1.541678e-07
    380    367   2   0.50000     0.1150000    0.0850000   2.431434e-04  1.541678e-07
    380    381   2   0.50000     0.1150000    0.1150000   5.042375e-05  1.012808e-08
    365    353   2   0.50000    -0.1150000   -0.1700000   9.038862e-04  9.862632e-07
    381    353   2   0.50000     0.1150000   -0.1700000   1.874504e-04  6.479276e-08
    381    362   2   0.50000     0.1150000   -0.1150000   2.431434e-04  1.541678e-07
    364    372   2   0.50000     0.1380000   -0.1150000   1.172438e-03  2.346713e-06
    364    376   2   0.50000     0.1380000   -0.1150000   1.172438e-03  2.346713e-06
    369    372   2   0.50000    -0.5300000   -0.1150000   1.059145e-03  1.228897e-06
    369    376   2   0.50000    -0.5300000   -0.1150000   1.059145e-03  1.228897e-06
    370    372   2   0.50000    -0.5300000   -0.1150000   1.059145e-03  1.228897e-06
    370    376   2   0.50000    -0.5300000   -0.1150000   1.059145e-03  1.228897e-06
    368    373   2   0.50000     0.7840000   -0.1150000   2.215699e-03  4.434870e-06
    368    382   2   0.50000     0.7840000    0.1150000   4.594978e-04  2.913497e-07
    376    373   2   0.50000    -0.1150000   -0.1150000   1.172438e-03  2.346713e-06
    376    382   2   0.50000    -0.1150000    0.1150000   2.431434e-04  1.541678e-07
    368    375   2   0.50000     0.7840000   -0.1150000   2.215699e-03  4.434870e-06
    368    385   2   0.50000     0.7840000    0.1150000   4.594978e-04  2.913497e-07
    372    375   2   0.50000    -0.1150000   -0.1150000   1.172438e-03  2.346713e-06
    372    385   2   0.50000    -0.1150000    0.1150000   2.431434e-04  1.541678e-07
    371    374   2   0.50000     0.1380000    0.0850000   1.172438e-03  2.346713e-06
    371    383   2   0.50000     0.1380000    0.1150000   2.431434e-04  1.541678e-07
    382    374   2   0.50000     0.1150000    0.0850000   2.431434e-04  1.541678e-07
    382    383   2   0.50000     0.1150000    0.1150000   5.042375e-05  1.012808e-08
    372    377   2   0.50000    -0.1150000   -0.1700000   9.038862e-04  9.862632e-07
    383    375   2   0.50000     0.1150000   -0.1150000   2.431434e-04  1.541678e-07
    383    377   2   0.50000     0.1150000   -0.1700000   1.874504e-04  6.479276e-08
    373    384   2   0.50000    -0.1150000    0.1150000   2.431434e-04  1.541678e-07
    377    376   2   0.50000    -0.1700000   -0.1150000   9.038862e-04  9.862632e-07
    377    384   2   0.50000    -0.1700000    0.1150000   1.874504e-04  6.479276e-08
    373    391   2   0.50000    -0.1150000    0.0850000   1.172438e-03  2.346713e-06
    375    391   2   0.50000    -0.1150000    0.0850000   1.172438e-03  2.346713e-06
    374    385   2   0.50000     0.0850000    0.1150000   2.431434e-04  1.541678e-07
    384    371   2   0.50000     0.1150000    0.1380000   2.431434e-04  1.541678e-07
    384    385   2   0.50000     0.1150000    0.1150000   5.042375e-05  1.012808e-08
    374    386   2   0.50000     0.0850000   -0.1150000   1.172438e-03  2.346713e-06
    374    390   2   0.50000     0.0850000   -0.1150000   1.172438e-03  2.346713e-06
    391    388   2   0.50000     0.0850000    0.1380000   1.172438e-03  2.346713e-06
    391    403   2   0.50000     0.0850000    0.1150000   2.431434e-04  1.541678e-07
    402    388   2   0.50000     0.1150000    0.1380000   2.431434e-04  1.541678e-07
    402    403   2   0.50000     0.1150000    0.1150000   5.042375e-05  1.012808e-08
    387    377   2   0.50000    -0.1150000   -0.1700000   9.038862e-04  9.862632e-07
    387    390   2   0.50000    -0.1150000   -0.1150000   1.172438e-03  2.346713e-06
    402    377   2   0.50000     0.1150000   -0.1700000   1.874504e-04  6.479276e-08
    402    390   2   0.50000     0.1150000   -0.1150000   2.431434e-04  1.541678e-07
    386    389   2   0.50000    -0.1150000   -0.1150000   1.172438e-03  2.346713e-06
    386    392   2   0.50000    -0.1150000    0.7840000   2.215699e-03  4.434870e-06
    403    389   2   0.50000     0.1150000   -0.1150000   2.431434e-04  1.541678e-07
    403    392   2   0.50000     0.1150000    0.7840000   4.594978e-04  2.913497e-07
    387    404   2   0.50000    -0.1150000    0.1150000   2.431434e-04  1.541678e-07
    392    390   2   0.50000     0.7840000   -0.1150000   2.215699e-03  4.434870e-06
    392    404   2   0.50000     0.7840000    0.1150000   4.594978e-04  2.913497e-07
    387    393   2   0.50000    -0.1150000   -0.5300000   1.059145e-03  1.228897e-06
    387    394   2   0.50000    -0.1150000   -0.5300000   1.059145e-03  1.228897e-06
    387    395   2   0.50000    -0.1150000    0.1380000   1.172438e-03  2.346713e-06
    389    393   2   0.50000    -0.1150000   -0.5300000   1.059145e-03  1.228897e-06
    389    394   2   0.50000    -0.1150000   -0.5300000   1.059145e-03  1.228897e-06
    389    395   2   0.50000    -0.1150000    0.1380000   1.172438e-03  2.346713e-06
    388    405   2   0.50000     0.1380000    0.1150000   2.431434e-04  1.541678e-07
    404    391   2   0.50000     0.1150000    0.0850000   2.431434e-04  1.541678e-07
    404    405   2   0.50000     0.1150000    0.1150000   5.042375e-05  1.012808e-08
    389    377   2   0.50000    -0.1150000   -0.1700000   9.038862e-04  9.862632e-07
    405    377   2   0.50000     0.1150000   -0.1700000   1.874504e-04  6.479276e-08
    405    386   2   0.50000     0.1150000   -0.1150000   2.431434e-04  1.541678e-07
    388    396   2   0.50000     0.1380000   -0.1150000   1.172438e-03  2.346713e-06
    388    400   2   0.50000     0.1380000   -0.1150000   1.172438e-03  2.346713e-06
    393    396   2   0.50000    -0.5300000   -0.1150000   1.059145e-03  1.228897e-06
    393    400   2   0.50000    -0.5300000   -0.1150000   1.059145e-03  1.228897e-06
    394    396   2   0.50000    -0.5300000   -0.1150000   1.059145e-03  1.228897e-06
    394    400   2   0.50000    -0.5300000   -0.1150000   1.059145e-03  1.228897e-06
    392    397   2   0.50000     0.7840000   -0.1150000   2.215699e-03  4.434870e-06
    392    406   2   0.50000     0.7840000    0.1150000   4.594978e-04  2.913497e-07
    400    397   2   0.50000    -0.1150000   -0.1150000   1.172438e-03  2.346713e-06
    400    406   2   0.50000    -0.1150000    0.1150000   2.431434e-04  1.541678e-07
    392    399   2   0.50000     0.7840000   -0.1150000   2.215699e-03  4.434870e-06
    392    409   2   0.50000     0.7840000    0.1150000   4.594978e-04  2.913497e-07
    396    399   2   0.50000    -0.1150000   -0.1150000   1.172438e-03  2.346713e-06
    396    409   2   0.50000    -0.1150000    0.1150000   2.431434e-04  1.541678e-07
    395    398   2   0.50000     0.1380000    0.0850000   1.172438e-03  2.346713e-06
    395    407   2   0.50000     0.1380000    0.1150000   2.431434e-04  1.541678e-07
    406    398   2   0.50000     0.1150000    0.0850000   2.431434e-04  1.541678e-07
    406    407   2   0.50000     0.1150000    0.1150000   5.042375e-05  1.012808e-08
    396    401   2   0.50000    -0.1150000   -0.1700000   9.038862e-04  9.862632e-07
    407    399   2   0.50000     0.1150000   -0.1150000   2.431434e-04  1.541678e-07
    407    401   2   0.50000     0.1150000   -0.1700000   1.874504e-04  6.479276e-08
    397    408   2   0.50000    -0.1150000    0.1150000   2.431434e-04  1.541678e-07
    401    400   2   0.50000    -0.1700000   -0.1150000   9.038862e-04  9.862632e-07
    401    408   2   0.50000    -0.1700000    0.1150000   1.874504e-04  6.479276e-08
    397    415   2   0.50000    -0.1150000    0.0850000   1.172438e-03  2.346713e-06
    399    415   2   0.50000    -0.1150000    0.0850000   1.172438e-03  2.346713e-06
    398    409   2   0.50000     0.0850000    0.1150000   2.431434e-04  1.541678e-07
    408    395   2   0.50000     0.1150000    0.1380000   2.431434e-04  1.541678e-07
    408    409   2   0.50000     0.1150000    0.1150000   5.042375e-05  1.012808e-08
    398    410   2   0.50000     0.0850000   -0.1150000   1.172438e-03  2.346713e-06
    398    414   2   0.50000     0.0850000   -0.1150000   1.172438e-03  2.346713e-06
    415    412   2   0.50000     0.0850000    0.1380000   1.172438e-03  2.346713e-06
    415    427   2   0.50000     0.0850000    0.1150000   2.431434e-04  1.541678e-07
    426    412   2   0.50000     0.1150000    0.1380000   2.431434e-04  1.541678e-07
    426    427   2   0.50000     0.1150000    0.1150000   5.042375e-05  1.012808e-08
    411    401   2   0.50000    -0.1150000   -0.1700000   9.038862e-04  9.862632e-07
    411    414   2   0.50000    -0.1150000   -0.1150000   1.172438e-03  2.346713e-06
    426    401   2   0.50000     0.1150000   -0.1700000   1.874504e-04  6.479276e-08
    426    414   2   0.50000     0.1150000   -0.1150000   2.431434e-04  1.541678e-07
    410    413   2   0.50000    -0.1150000   -0.1150000   1.172438e-03  2.346713e-06
    410    416   2   0.50000    -0.1150000    0.7840000   2.215699e-03  4.434870e-06
    427    413   2   0.50000     0.1150000   -0.1150000   2.431434e-04  1.541678e-07
    427    416   2   0.50000     0.1150000    0.7840000   4.594978e-04  2.913497e-07
    411    428   2   0.50000    -0.1150000    0.1150000   2.431434e-04  1.541678e-07
    416    414   2   0.50000     0.7840000   -0.1150000   2.215699e-03  4.434870e-06
    416    428   2   0.50000     0.7840000    0.1150000   4.594978e-04  2.913497e-07
    411    417   2   0.50000    -0.1150000   -0.5300000   1.059145e-03  1.228897e-06
    411    418   2   0.50000    -0.1150000   -0.5300000   1.059145e-03  1.228897e-06
    411    419   2   0.50000    -0.1150000    0.1380000   1.172438e-03  2.346713e-06
    413    417   2   0.50000    -0.1150000   -0.5300000   1.059145e-03  1.228897e-06
    413    418   2   0.50000    -0.1150000   -0.5300000   1.059145e-03  1.228897e-06
    413    419   2   0.50000    -0.1150000    0.1380000   1.172438e-03  2.346713e-06
    412    429   2   0.50000     0.1380000    0.1150000   2.431434e-04  1.541678e-07
    428    415   2   0.50000     0.1150000    0.0850000   2.431434e-04  1.541678e-07
    428    429   2   0.50000     0.1150000    0.1150000   5.042375e-05  1.012808e-08
    413    401   2   0.50000    -0.1150000   -0.1700000   9.038862e-04  9.862632e-07
    429    401   2   0.50000     0.1150000   -0.1700000   1.874504e-04  6.479276e-08
    429    410   2   0.50000     0.1150000   -0.1150000   2.431434e-04  1.541678e-07
    412    420   2   0.50000     0.1380000   -0.1150000   1.172438e-03  2.346713e-06
    412    424   2   0.50000     0.1380000   -0.1150000   1.172438e-03  2.346713e-06
    417    420   2   0.50000    -0.5300000   -0.1150000   1.059145e-03  1.228897e-06
    417    424   2   0.50000    -0.5300000   -0.1150000   1.059145e-03  1.228897e-06
    418    420   2   0.50000    -0.5300000   -0.1150000   1.059145e-03  1.228897e-06
    418    424   2   0.50000    -0.5300000   -0.1150000   1.059145e-03  1.228897e-06
    416    421   2   0.50000     0.7840000   -0.1150000   2.215699e-03  4.434870e-06
    416    430   2   0.50000     0.7840000    0.1150000   4.594978e-04  2.913497e-07
    424    421   2   0.50000    -0.1150000   -0.1150000   1.172438e-03  2.346713e-06
    424    430   2   0.50000    -0.1150000    0.1150000   2.431434e-04  1.541678e-07
    416    423   2   0.50000     0.7840000   -0.1150000   2.215699e-03  4.434870e-06
    416    433   2   0.50000     0.7840000    0.1150000   4.594978e-04  2.913497e-07
    420    423   2   0.50000    -0.1150000   -0.1150000   1.172438e-03  2.346713e-06
    420    433   2   0.50000    -0.1150000    0.1150000   2.431434e-04  1.541678e-07
    419    422   2   0.50000     0.1380000    0.0850000   1.172438e-03  2.346713e-06
    419    431   2   0.50000     0.1380000    0.1150000   2.431434e-04  1.541678e-07
    430    422   2   0.50000     0.1150000    0.0850000   2.431434e-04  1.541678e-07
    430    431   2   0.50000     0.1150000    0.1150000   5.042375e-05  1.012808e-08
    420    425   2   0.50000    -0.1150000   -0.1700000   9.038862e-04  9.862632e-07
    431    423   2   0.50000     0.1150000   -0.1150000   2.431434e-04  1.541678e-07
    431    425   2   0.50000     0.1150000   -0.1700000   1.874504e-04  6.479276e-08
    421    432   2   0.50000    -0.1150000    0.1150000   2.431434e-04  1.541678e-07
    425    424   2   0.50000    -0.1700000   -0.1150000   9.038862e-04  9.862632e-07
    425    432   2   0.50000    -0.1700000    0.1150000   1.874504e-04  6.479276e-08
    421    439   2   0.50000    -0.1150000    0.0850000   1.172438e-03  2.346713e-06
    423    439   2   0.50000    -0.1150000    0.0850000   1.172438e-03  2.346713e-06
    422    433   2   0.50000     0.0850000    0.1150000   2.431434e-04  1.541678e-07
    432    419   2   0.50000     0.1150000    0.1380000   2.431434e-04  1.541678e-07
    432    433   2   0.50000     0.1150000    0.1150000   5.042375e-05  1.012808e-08
    422    434   2   0.50000     0.0850000   -0.1150000   1.172438e-03  2.346713e-06
    422    438   2   0.50000     0.0850000   -0.1150000   1.172438e-03  2.346713e-06
    439    436   2   0.50000     0.0850000    0.1380000   1.172438e-03  2.346713e-06
    439    451   2   0.50000     0.0850000    0.1150000   2.431434e-04  1.541678e-07
    450    436   2   0.50000     0.1150000    0.1380000   2.431434e-04  1.541678e-07
    450    451   2   0.50000     0.1150000    0.1150000   5.042375e-05  1.012808e-08
    435    425   2   0.50000    -0.1150000   -0.1700000   9.038862e-04  9.862632e-07
    435    438   2   0.50000    -0.1150000   -0.1150000   1.172438e-03  2.346713e-06
    450    425   2   0.50000     0.1150000   -0.1700000   1.874504e-04  6.479276e-08
    450    438   2   0.50000     0.1150000   -0.1150000   2.431434e-04  1.541678e-07
    434    437   2   0.50000    -0.1150000   -0.1150000   1.172438e-03  2.346713e-06
    434    440   2   0.50000    -0.1150000    0.7840000   2.215699e-03  4.434870e-06
    451    437   2   0.50000     0.1150000   -0.1150000   2.431434e-04  1.541678e-07
    451    440   2   0.50000     0.1150000    0.7840000   4.594978e-04  2.913497e-07
    435    452   2   0.50000    -0.1150000    0.1150000   2.431434e-04  1.541678e-07
    440    438   2   0.50000     0.7840000   -0.1150000   2.215699e-03  4.434870e-06
    440    452   2   0.50000     0.7840000    0.1150000   4.594978e-04  2.913497e-07
    435    441   2   0.50000    -0.1150000   -0.5300000   1.059145e-03  1.228897e-06
    435    442   2   0.50000    -0.1150000   -0.5300000   1.059145e-03  1.228897e-06
    435    443   2   0.50000    -0.1150000    0.1380000   1.172438e-03  2.346713e-06
    437    441   2   0.50000    -0.1150000   -0.5300000   1.059145e-03  1.228897e-06
    437    442   2   0.50000    -0.1150000   -0.5300000   1.059145e-03  1.228897e-06
    437    443   2   0.50000    -0.1150000    0.1380000   1.172438e-03  2.346713e-06
    436    453   2   0.50000     0.1380000    0.1150000   2.431434e-04  1.541678e-07
    452    439   2   0.50000     0.1150000    0.0850000   2.431434e-04  1.541678e-07
    452    453   2   0.50000     0.1150000    0.1150000   5.042375e-05  1.012808e-08
    437    425   2   0.50000    -0.1150000   -0.1700000   9.038862e-04  9.862632e-07
    453    425   2   0.50000     0.1150000   -0.1700000   1.874504e-04  6.479276e-08
    453    434   2   0.50000     0.1150000   -0.1150000   2.431434e-04  1.541678e-07
    436    444   2   0.50000     0.1380000   -0.1150000   1.172438e-03  2.346713e-06
    436    448   2   0.50000     0.1380000   -0.1150000   1.172438e-03  2.346713e-06
    441    444   2   0.50000    -0.5300000   -0.1150000   1.059145e-03  1.228897e-06
    441    448   2   0.50000    -0.5300000   -0.1150000   1.059145e-03  1.228897e-06
    442    444   2   0.50000    -0.5300000   -0.1150000   1.059145e-03  1.228897e-06
    442    448   2   0.50000    -0.5300000   -0.1150000   1.059145e-03  1.228897e-06
    440    445   2   0.50000     0.7840000   -0.1150000   2.215699e-03  4.434870e-06
    440    454   2   0.50000     0.7840000    0.1150000   4.594978e-04  2.913497e-07
    448    445   2   0.50000    -0.1150000   -0.1150000   1.172438e-03  2.346713e-06
    448    454   2   0.50000    -0.1150000    0.1150000   2.431434e-04  1.541678e-07
    440    447   2   0.50000     0.7840000   -0.1150000   2.215699e-03  4.434870e-06
    440    457   2   0.50000     0.7840000    0.1150000   4.594978e-04  2.913497e-07
    444    447   2   0.50000    -0.1150000   -0.1150000   1.172438e-03  2.346713e-06
    444    457   2   0.50000    -0.1150000    0.1150000   2.431434e-04  1.541678e-07
    443    446   2   0.50000     0.1380000    0.0850000   1.172438e-03  2.346713e-06
    443    455   2   0.50000     0.1380000    0.1150000   2.431434e-04  1.541678e-07
    454    446   2   0.50000     0.1150000    0.0850000   2.431434e-04  1.541678e-07
    454    455   2   0.50000     0.1150000    0.1150000   5.042375e-05  1.012808e-08
    444    449   2   0.50000    -0.1150000   -0.1700000   9.038862e-04  9.862632e-07
    455    447   2   0.50000     0.1150000   -0.1150000   2.431434e-04  1.541678e-07
    455    449   2   0.50000     0.1150000   -0.1700000   1.874504e-04  6.479276e-08
    445    456   2   0.50000    -0.1150000    0.1150000   2.431434e-04  1.541678e-07
    449    448   2   0.50000    -0.1700000   -0.1150000   9.038862e-04  9.862632e-07
    449    456   2   0.50000    -0.1700000    0.1150000   1.874504e-04  6.479276e-08
    445    463   2   0.50000    -0.1150000    0.0850000   1.172438e-03  2.346713e-06
    447    463   2   0.50000    -0.1150000    0.0850000   1.172438e-03  2.346713e-06
    446    457   2   0.50000     0.0850000    0.1150000   2.431434e-04  1.541678e-07
    456    443   2   0.50000     0.1150000    0.1380000   2.431434e-04  1.541678e-07
    456    457   2   0.50000     0.1150000    0.1150000   5.042375e-05  1.012808e-08
    446    458   2   0.50000     0.0850000   -0.1150000   1.172438e-03  2.346713e-06
    446    462   2   0.50000     0.0850000   -0.1150000   1.172438e-03  2.346713e-06
    463    460   2   0.50000     0.0850000    0.1380000   1.172438e-03  2.346713e-06
    463    475   2   0.50000     0.0850000    0.1150000   2.431434e-04  1.541678e-07
    474    460   2   0.50000     0.1150000    0.1380000   2.431434e-04  1.541678e-07
    474    475   2   0.50000     0.1150000    0.1150000   5.042375e-05  1.012808e-08
    459    449   2   0.50000    -0.1150000   -0.1700000   9.038862e-04  9.862632e-07
    459    462   2   0.50000    -0.1150000   -0.1150000   1.172438e-03  2.346713e-06
    474    449   2   0.50000     0.1150000   -0.1700000   1.874504e-04  6.479276e-08
    474    462   2   0.50000     0.1150000   -0.1150000   2.431434e-04  1.541678e-07
    458    461   2   0.50000    -0.1150000   -0.1150000   1.172438e-03  2.346713e-06
    458    464   2   0.50000    -0.1150000    0.7840000   2.215699e-03  4.434870e-06
    475    461   2   0.50000     0.1150000   -0.1150000   2.431434e-04  1.541678e-07
    475    464   2   0.50000     0.1150000    0.7840000   4.594978e-04  2.913497e-07
    459    476   2   0.50000    -0.1150000    0.1150000   2.431434e-04  1.541678e-07
    464    462   2   0.50000     0.7840000   -0.1150000   2.215699e-03  4.434870e-06
    464    476   2   0.50000     0.7840000    0.1150000   4.594978e-04  2.913497e-07
    459    465   2   0.50000    -0.1150000   -0.5300000   1.059145e-03  1.228897e-06
    459    466   2   0.50000    -0.1150000   -0.5300000   1.059145e-03  1.228897e-06
    459    467   2   0.50000    -0.1150000    0.1380000   1.172438e-03  2.346713e-06
    461    465   2   0.50000    -0.1150000   -0.5300000   1.059145e-03  1.228897e-06
    461    466   2   0.50000    -0.1150000   -0.5300000   1.059145e-03  1.228897e-06
    461    467   2   0.50000    -0.1150000    0.1380000   1.172438e-03  2.346713e-06
    460    477   2   0.50000     0.1380000    0.1150000   2.431434e-04  1.541678e-07
    476    463   2   0.50000     0.1150000    0.0850000   2.431434e-04  1.541678e-07
    476    477   2   0.50000     0.1150000    0.1150000   5.042375e-05  1.012808e-08
    461    449   2   0.50000    -0.1150000   -0.1700000   9.038862e-04  9.862632e-07
    477    449   2   0.50000     0.1150000   -0.1700000   1.874504e-04  6.479276e-08
    477    458   2   0.50000     0.1150000   -0.1150000   2.431434e-04  1.541678e-07
    460    468   2   0.50000     0.1380000   -0.1150000   1.172438e-03  2.346713e-06
    460    472   2   0.50000     0.1380000   -0.1150000   1.172438e-03  2.346713e-06
    465    468   2   0.50000    -0.5300000   -0.1150000   1.059145e-03  1.228897e-06
    465    472   2   0.50000    -0.5300000   -0.1150000   1.059145e-03  1.228897e-06
    466    468   2   0.50000    -0.5300000   -0.1150000   1.059145e-03  1.228897e-06
    466    472   2   0.50000    -0.5300000   -0.1150000   1.059145e-03  1.228897e-06
    464    469   2   0.50000     0.7840000   -0.1150000   2.215699e-03  4.434870e-06
    464    478   2   0.50000     0.7840000    0.1150000   4.594978e-04  2.913497e-07
    472    469   2   0.50000    -0.1150000   -0.1150000   1.172438e-03  2.346713e-06
    472    478   2   0.50000    -0.1150000    0.1150000   2.431434e-04  1.541678e-07
    464    471   2   0.50000     0.7840000   -0.1150000   2.215699e-03  4.434870e-06
    464    481   2   0.50000     0.7840000    0.1150000   4.594978e-04  2.913497e-07
    468    471   2   0.50000    -0.1150000   -0.1150000   1.172438e-03  2.346713e-06
    468    481   2   0.50000    -0.1150000    0.1150000   2.431434e-04  1.541678e-07
    467    470   2   0.50000     0.1380000    0.1500000   1.172438e-03  2.346713e-06
    467    479   2   0.50000     0.1380000    0.1150000   2.431434e-04  1.541678e-07
    478    470   2   0.50000     0.1150000    0.1500000   2.431434e-04  1.541678e-07
    478    479   2   0.50000     0.1150000    0.1150000   5.042375e-05  1.012808e-08
    468    473   2   0.50000    -0.1150000   -0.5850000   1.181668e-03  1.529662e-06
    479    471   2   0.50000     0.1150000   -0.1150000   2.431434e-04  1.541678e-07
    479    473   2   0.50000     0.1150000   -0.5850000   2.450575e-04  1.004915e-07
    469    480   2   0.50000    -0.1150000    0.1150000   2.431434e-04  1.541678e-07
    473    472   2   0.50000    -0.5850000   -0.1150000   1.181668e-03  1.529662e-06
    473    480   2   0.50000    -0.5850000    0.1150000   2.450575e-04  1.004915e-07
    469    482   2   0.50000    -0.1150000    0.4350000   2.144502e-06  1.199282e-11
    471    482   2   0.50000    -0.1150000    0.4350000   2.144502e-06  1.199282e-11
    470    481   2   0.50000     0.1500000    0.1150000   2.431434e-04  1.541678e-07
    480    467   2   0.50000     0.1150000    0.1380000   2.431434e-04  1.541678e-07
    480    481   2   0.50000     0.1150000    0.1150000   5.042375e-05  1.012808e-08

[ angles ]
; ai  aj  ak
      2      1      6   1    120.0000    527.1840
      2      1     17   1    120.0000    292.8800
      6      1     17   1    120.0000    292.8800
      1      2      3   1    120.0000    527.1840
      1      2     18   1    120.0000    292.8800
      3      2     18   1    120.0000    292.8800
      2      3      4   1    120.0000    527.1840
      2      3      7   1    117.0670    543.9200
      4      3      7   1    117.0670    543.9200
      3      4      5   1    120.0000    527.1840
      3      4     19   1    120.0000    292.8800
      5      4     19   1    120.0000    292.8800
      4      5      6   1    120.0000    527.1840
      4      5     20   1    120.0000    292.8800
      6      5     20   1    120.0000    292.8800
      1      6      5   1    120.0000    527.1840
      1      6     25   1    120.0000    292.8800
      5      6     25   1    120.0000    292.8800
      3      7      8   1    107.6710    836.8000
      3      7      9   1    107.6710    836.8000
      3      7     10   1    104.3600    658.3106
      8      7      9   1    120.1720    962.3200
      8      7     10   1    107.6710    836.8000
      9      7     10   1    107.6710    836.8000
      7     10     11   1    117.0670    543.9200
      7     10     15   1    117.0670    543.9200
     11     10     15   1    120.0000    527.1840
     10     11     12   1    120.0000    527.1840
     10     11     21   1    120.0000    292.8800
     12     11     21   1    120.0000    292.8800
     11     12     13   1    120.0000    527.1840
     11     12     22   1    120.0000    292.8800
     13     12     22   1    120.0000    292.8800
     12     13     14   1    120.0000    527.1840
     12     13     16   1    120.0000    585.7600
     14     13     16   1    120.0000    585.7600
     13     14     15   1    120.0000    527.1840
     13     14     23   1    120.0000    292.8800
     15     14     23   1    120.0000    292.8800
     10     15     14   1    120.0000    527.1840
     10     15     24   1    120.0000    292.8800
     14     15     24   1    120.0000    292.8800
     13     16     31   1    114.7000    711.2800
     27     26     31   1    120.0000    527.1840
     27     26     42   1    120.0000    292.8800
     31     26     42   1    120.0000    292.8800
     26     27     28   1    120.0000    527.1840
     26     27     43   1    120.0000    292.8800
     28     27     43   1    120.0000    292.8800
     27     28     29   1    120.0000    527.1840
     27     28     32   1    117.0670    543.9200
     29     28     32   1    117.0670    543.9200
     28     29     30   1    120.0000    527.1840
     28     29     44   1    120.0000    292.8800
     30     29     44   1    120.0000    292.8800
     29     30     31   1    120.0000    527.1840
     29     30     45   1    120.0000    292.8800
     31     30     45   1    120.0000    292.8800
     16     31     26   1    120.0000    585.7600
     16     31     30   1    120.0000    585.7600
     26     31     30   1    120.0000    527.1840
     28     32     33   1    107.6710    836.8000
     28     32     34   1    107.6710    836.8000
     28     32     35   1    104.3600    658.3106
     33     32     34   1    120.1720    962.3200
     33     32     35   1    107.6710    836.8000
     34     32     35   1    107.6710    836.8000
     32     35     36   1    117.0670    543.9200
     32     35     40   1    117.0670    543.9200
     36     35     40   1    120.0000    527.1840
     35     36     37   1    120.0000    527.1840
     35     36     46   1    120.0000    292.8800
     37     36     46   1    120.0000    292.8800
     36     37     38   1    120.0000    527.1840
     36     37     47   1    120.0000    292.8800
     38     37     47   1    120.0000    292.8800
     37     38     39   1    120.0000    527.1840
     37     38     41   1    120.0000    585.7600
     39     38     41   1    120.0000    585.7600
     38     39     40   1    120.0000    527.1840
     38     39     48   1    120.0000    292.8800
     40     39     48   1    120.0000    292.8800
     35     40     39   1    120.0000    527.1840
     35     40     49   1    120.0000    292.8800
     39     40     49   1    120.0000    292.8800
     38     41     55   1    114.7000    711.2800
     51     50     55   1    120.0000    527.1840
     51     50     66   1    120.0000    292.8800
     55     50     66   1    120.0000    292.8800
     50     51     52   1    120.0000    527.1840
     50     51     67   1    120.0000    292.8800
     52     51     67   1    120.0000    292.8800
     51     52     53   1    120.0000    527.1840
     51     52     56   1    117.0670    543.9200
     53     52     56   1    117.0670    543.9200
     52     53     54   1    120.0000    527.1840
     52     53     68   1    120.0000    292.8800
     54     53     68   1    120.0000    292.8800
     53     54     55   1    120.0000    527.1840
     53     54     69   1    120.0000    292.8800
     55     54     69   1    120.0000    292.8800
     41     55     50   1    120.0000    585.7600
     41     55     54   1    120.0000    585.7600
     50     55     54   1    120.0000    527.1840
     52     56     57   1    107.6710    836.8000
     52     56     58   1    107.6710    836.8000
     52     56     59   1    104.3600    658.3106
     57     56     58   1    120.1720    962.3200
     57     56     59   1    107.6710    836.8000
     58     56     59   1    107.6710    836.8000
     56     59     60   1    117.0670    543.9200
     56     59     64   1    117.0670    543.9200
     60     59     64   1    120.0000    527.1840
     59     60     61   1    120.0000    527.1840
     59     60     70   1    120.0000    292.8800
     61     60     70   1    120.0000    292.8800
     60     61     62   1    120.0000    527.1840
     60     61     71   1    120.0000    292.8800
     62     61     71   1    120.0000    292.8800
     61     62     63   1    120.0000    527.1840
     61     62     65   1    120.0000    585.7600
     63     62     65   1    120.0000    585.7600
     62     63     64   1    120.0000    527.1840
     62     63     72   1    120.0000    292.8800
     64     63     72   1    120.0000    292.8800
     59     64     63   1    120.0000    527.1840
     59     64     73   1    120.0000    292.8800
     63     64     73   1    120.0000    292.8800
     62     65     79   1    114.7000    711.2800
     75     74     79   1    120.0000    527.1840
     75     74     90   1    120.0000    292.8800
     79     74     90   1    120.0000    292.8800
     74     75     76   1    120.0000    527.1840
     74     75     91   1    120.0000    292.8800
     76     75     91   1    120.0000    292.8800
     75     76     77   1    120.0000    527.1840
     75     76     80   1    117.0670    543.9200
     77     76     80   1    117.0670    543.9200
     76     77     78   1    120.0000    527.1840
     76     77     92   1    120.0000    292.8800
     78     77     92   1    120.0000    292.8800
     77     78     79   1    120.0000    527.1840
     77     78     93   1    120.0000    292.8800
     79     78     93   1    120.0000    292.8800
     65     79     74   1    120.0000    585.7600
     65     79     78   1    120.0000    585.7600
     74     79     78   1    120.0000    527.1840
     76     80     81   1    107.6710    836.8000
     76     80     82   1    107.6710    836.8000
     76     80     83   1    104.3600    658.3106
     81     80     82   1    120.1720    962.3200
     81     80     83   1    107.6710    836.8000
     82     80     83   1    107.6710    836.8000
     80     83     84   1    117.0670    543.9200
     80     83     88   1    117.0670    543.9200
     84     83     88   1    120.0000    527.1840
     83     84     85   1    120.0000    527.1840
     83     84     94   1    120.0000    292.8800
     85     84     94   1    120.0000    292.8800
     84     85     86   1    120.0000    527.1840
     84     85     95   1    120.0000    292.8800
     86     85     95   1    120.0000    292.8800
     85     86     87   1    120.0000    527.1840
     85     86     89   1    120.0000    585.7600
     87     86     89   1    120.0000    585.7600
     86     87     88   1    120.0000    527.1840
     86     87     96   1    120.0000    292.8800
     88     87     96   1    120.0000    292.8800
     83     88     87   1    120.0000    527.1840
     83     88     97   1    120.0000    292.8800
     87     88     97   1    120.0000    292.8800
     86     89    103   1    114.7000    711.2800
     99     98    103   1    120.0000    527.1840
     99     98    114   1    120.0000    292.8800
    103     98    114   1    120.0000    292.8800
     98     99    100   1    120.0000    527.1840
     98     99    115   1    120.0000    292.8800
    100     99    115   1    120.0000    292.8800
     99    100    101   1    120.0000    527.1840
     99    100    104   1    117.0670    543.9200
    101    100    104   1    117.0670    543.9200
    100    101    102   1    120.0000    527.1840
    100    101    116   1    120.0000    292.8800
    102    101    116   1    120.0000    292.8800
    101    102    103   1    120.0000    527.1840
    101    102    117   1    120.0000    292.8800
    103    102    117   1    120.0000    292.8800
     89    103     98   1    120.0000    585.7600
     89    103    102   1    120.0000    585.7600
     98    103    102   1    120.0000    527.1840
    100    104    105   1    107.6710    836.8000
    100    104    106   1    107.6710    836.8000
    100    104    107   1    104.3600    658.3106
    105    104    106   1    120.1720    962.3200
    105    104    107   1    107.6710    836.8000
    106    104    107   1    107.6710    836.8000
    104    107    108   1    117.0670    543.9200
    104    107    112   1    117.0670    543.9200
    108    107    112   1    120.0000    527.1840
    107    108    109   1    120.0000    527.1840
    107    108    118   1    120.0000    292.8800
    109    108    118   1    120.0000    292.8800
    108    109    110   1    120.0000    527.1840
    108    109    119   1    120.0000    292.8800
    110    109    119   1    120.0000    292.8800
    109    110    111   1    120.0000    527.1840
    109    110    113   1    120.0000    585.7600
    111    110    113   1    120.0000    585.7600
    110    111    112   1    120.0000    527.1840
    110    111    120   1    120.0000    292.8800
    112    111    120   1    120.0000    292.8800
    107    112    111   1    120.0000    527.1840
    107    112    121   1    120.0000    292.8800
    111    112    121   1    120.0000    292.8800
    110    113    127   1    114.7000    711.2800
    123    122    127   1    120.0000    527.1840
    123    122    138   1    120.0000    292.8800
    127    122    138   1    120.0000    292.8800
    122    123    124   1    120.0000    527.1840
    122    123    139   1    120.0000    292.8800
    124    123    139   1    120.0000    292.8800
    123    124    125   1    120.0000    527.1840
    123    124    128   1    117.0670    543.9200
    125    124    128   1    117.0670    543.9200
    124    125    126   1    120.0000    527.1840
    124    125    140   1    120.0000    292.8800
    126    125    140   1    120.0000    292.8800
    125    126    127   1    120.0000    527.1840
    125    126    141   1    120.0000    292.8800
    127    126    141   1    120.0000    292.8800
    113    127    122   1    120.0000    585.7600
    113    127    126   1    120.0000    585.7600
    122    127    126   1    120.0000    527.1840
    124    128    129   1    107.6710    836.8000
    124    128    130   1    107.6710    836.8000
    124    128    131   1    104.3600    658.3106
    129    128    130   1    120.1720    962.3200
    129    128    131   1    107.6710    836.8000
    130    128    131   1    107.6710    836.8000
    128    131    132   1    117.0670    543.9200
    128    131    136   1    117.0670    543.9200
    132    131    136   1    120.0000    527.1840
    131    132    133   1    120.0000    527.1840
    131    132    142   1    120.0000    292.8800
    133    132    142   1    120.0000    292.8800
    132    133    134   1    120.0000    527.1840
    132    133    143   1    120.0000    292.8800
    134    133    143   1    120.0000    292.8800
    133    134    135   1    120.0000    527.1840
    133    134    137   1    120.0000    585.7600
    135    134    137   1    120.0000    585.7600
    134    135    136   1    120.0000    527.1840
    134    135    144   1    120.0000    292.8800
    136    135    144   1    120.0000    292.8800
    131    136    135   1    120.0000    527.1840
    131    136    145   1    120.0000    292.8800
    135    136    145   1    120.0000    292.8800
    134    137    151   1    114.7000    711.2800
    147    146    151   1    120.0000    527.1840
    147    146    162   1    120.0000    292.8800
    151    146    162   1    120.0000    292.8800
    146    147    148   1    120.0000    527.1840
    146    147    163   1    120.0000    292.8800
    148    147    163   1    120.0000    292.8800
    147    148    149   1    120.0000    527.1840
    147    148    152   1    117.0670    543.9200
    149    148    152   1    117.0670    543.9200
    148    149    150   1    120.0000    527.1840
    148    149    164   1    120.0000    292.8800
    150    149    164   1    120.0000    292.8800
    149    150    151   1    120.0000    527.1840
    149    150    165   1    120.0000    292.8800
    151    150    165   1    120.0000    292.8800
    137    151    146   1    120.0000    585.7600
    137    151    150   1    120.0000    585.7600
    146    151    150   1    120.0000    527.1840
    148    152    153   1    107.6710    836.8000
    148    152    154   1    107.6710    836.8000
    148    152    155   1    104.3600    658.3106
    153    152    154   1    120.1720    962.3200
    153    152    155   1    107.6710    836.8000
    154    152    155   1    107.6710    836.8000
    152    155    156   1    117.0670    543.9200
    152    155    160   1    117.0670    543.9200
    156    155    160   1    120.0000    527.1840
    155    156    157   1    120.0000    527.1840
    155    156    166   1    120.0000    292.8800
    157    156    166   1    120.0000    292.8800
    156    157    158   1    120.0000    527.1840
    156    157    167   1    120.0000    292.8800
    158    157    167   1    120.0000    292.8800
    157    158    159   1    120.0000    527.1840
    157    158    161   1    120.0000    585.7600
    159    158    161   1    120.0000    585.7600
    158    159    160   1    120.0000    527.1840
    158    159    168   1    120.0000    292.8800
    160    159    168   1    120.0000    292.8800
    155    160    159   1    120.0000    527.1840
    155    160    169   1    120.0000    292.8800
    159    160    169   1    120.0000    292.8800
    158    161    175   1    114.7000    711.2800
    171    170    175   1    120.0000    527.1840
    171    170    186   1    120.0000    292.8800
    175    170    186   1    120.0000    292.8800
    170    171    172   1    120.0000    527.1840
    170    171    187   1    120.0000    292.8800
    172    171    187   1    120.0000    292.8800
    171    172    173   1    120.0000    527.1840
    171    172    176   1    117.0670    543.9200
    173    172    176   1    117.0670    543.9200
    172    173    174   1    120.0000    527.1840
    172    173    188   1    120.0000    292.8800
    174    173    188   1    120.0000    292.8800
    173    174    175   1    120.0000    527.1840
    173    174    189   1    120.0000    292.8800
    175    174    189   1    120.0000    292.8800
    161    175    170   1    120.0000    585.7600
    161    175    174   1    120.0000    585.7600
    170    175    174   1    120.0000    527.1840
    172    176    177   1    107.6710    836.8000
    172    176    178   1    107.6710    836.8000
    172    176    179   1    104.3600    658.3106
    177    176    178   1    120.1720    962.3200
    177    176    179   1    107.6710    836.8000
    178    176    179   1    107.6710    836.8000
    176    179    180   1    117.0670    543.9200
    176    179    184   1    117.0670    543.9200
    180    179    184   1    120.0000    527.1840
    179    180    181   1    120.0000    527.1840
    179    180    190   1    120.0000    292.8800
    181    180    190   1    120.0000    292.8800
    180    181    182   1    120.0000    527.1840
    180    181    191   1    120.0000    292.8800
    182    181    191   1    120.0000    292.8800
    181    182    183   1    120.0000    527.1840
    181    182    185   1    120.0000    585.7600
    183    182    185   1    120.0000    585.7600
    182    183    184   1    120.0000    527.1840
    182    183    192   1    120.0000    292.8800
    184    183    192   1    120.0000    292.8800
    179    184    183   1    120.0000    527.1840
    179    184    193   1    120.0000    292.8800
    183    184    193   1    120.0000    292.8800
    182    185    199   1    114.7000    711.2800
    195    194    199   1    120.0000    527.1840
    195    194    210   1    120.0000    292.8800
    199    194    210   1    120.0000    292.8800
    194    195    196   1    120.0000    527.1840
    194    195    211   1    120.0000    292.8800
    196    195    211   1    120.0000    292.8800
    195    196    197   1    120.0000    527.1840
    195    196    200   1    117.0670    543.9200
    197    196    200   1    117.0670    543.9200
    196    197    198   1    120.0000    527.1840
    196    197    212   1    120.0000    292.8800
    198    197    212   1    120.0000    292.8800
    197    198    199   1    120.0000    527.1840
    197    198    213   1    120.0000    292.8800
    199    198    213   1    120.0000    292.8800
    185    199    194   1    120.0000    585.7600
    185    199    198   1    120.0000    585.7600
    194    199    198   1    120.0000    527.1840
    196    200    201   1    107.6710    836.8000
    196    200    202   1    107.6710    836.8000
    196    200    203   1    104.3600    658.3106
    201    200    202   1    120.1720    962.3200
    201    200    203   1    107.6710    836.8000
    202    200    203   1    107.6710    836.8000
    200    203    204   1    117.0670    543.9200
    200    203    208   1    117.0670    543.9200
    204    203    208   1    120.0000    527.1840
    203    204    205   1    120.0000    527.1840
    203    204    214   1    120.0000    292.8800
    205    204    214   1    120.0000    292.8800
    204    205    206   1    120.0000    527.1840
    204    205    215   1    120.0000    292.8800
    206    205    215   1    120.0000    292.8800
    205    206    207   1    120.0000    527.1840
    205    206    209   1    120.0000    585.7600
    207    206    209   1    120.0000    585.7600
    206    207    208   1    120.0000    527.1840
    206    207    216   1    120.0000    292.8800
    208    207    216   1    120.0000    292.8800
    203    208    207   1    120.0000    527.1840
    203    208    217   1    120.0000    292.8800
    207    208    217   1    120.0000    292.8800
    206    209    223   1    114.7000    711.2800
    219    218    223   1    120.0000    527.1840
    219    218    234   1    120.0000    292.8800
    223    218    234   1    120.0000    292.8800
    218    219    220   1    120.0000    527.1840
    218    219    235   1    120.0000    292.8800
    220    219    235   1    120.0000    292.8800
    219    220    221   1    120.0000    527.1840
    219    220    224   1    117.0670    543.9200
    221    220    224   1    117.0670    543.9200
    220    221    222   1    120.0000    527.1840
    220    221    236   1    120.0000    292.8800
    222    221    236   1    120.0000    292.8800
    221    222    223   1    120.0000    527.1840
    221    222    237   1    120.0000    292.8800
    223    222    237   1    120.0000    292.8800
    209    223    218   1    120.0000    585.7600
    209    223    222   1    120.0000    585.7600
    218    223    222   1    120.0000    527.1840
    220    224    225   1    107.6710    836.8000
    220    224    226   1    107.6710    836.8000
    220    224    227   1    104.3600    658.3106
    225    224    226   1    120.1720    962.3200
    225    224    227   1    107.6710    836.8000
    226    224    227   1    107.6710    836.8000
    224    227    228   1    117.0670    543.9200
    224    227    232   1    117.0670    543.9200
    228    227    232   1    120.0000    527.1840
    227    228    229   1    120.0000    527.1840
    227    228    238   1    120.0000    292.8800
    229    228    238   1    120.0000    292.8800
    228    229    230   1    120.0000    527.1840
    228    229    239   1    120.0000    292.8800
    230    229    239   1    120.0000    292.8800
    229    230    231   1    120.0000    527.1840
    229    230    233   1    120.0000    585.7600
    231    230    233   1    120.0000    585.7600
    230    231    232   1    120.0000    527.1840
    230    231    240   1    120.0000    292.8800
    232    231    240   1    120.0000    292.8800
    227    232    231   1    120.0000    527.1840
    227    232    241   1    120.0000    292.8800
    231    232    241   1    120.0000    292.8800
    230    233    247   1    114.7000    711.2800
    243    242    247   1    120.0000    527.1840
    243    242    258   1    120.0000    292.8800
    247    242    258   1    120.0000    292.8800
    242    243    244   1    120.0000    527.1840
    242    243    259   1    120.0000    292.8800
    244    243    259   1    120.0000    292.8800
    243    244    245   1    120.0000    527.1840
    243    244    248   1    117.0670    543.9200
    245    244    248   1    117.0670    543.9200
    244    245    246   1    120.0000    527.1840
    244    245    260   1    120.0000    292.8800
    246    245    260   1    120.0000    292.8800
    245    246    247   1    120.0000    527.1840
    245    246    261   1    120.0000    292.8800
    247    246    261   1    120.0000    292.8800
    233    247    242   1    120.0000    585.7600
    233    247    246   1    120.0000    585.7600
    242    247    246   1    120.0000    527.1840
    244    248    249   1    107.6710    836.8000
    244    248    250   1    107.6710    836.8000
    244    248    251   1    104.3600    658.3106
    249    248    250   1    120.1720    962.3200
    249    248    251   1    107.6710    836.8000
    250    248    251   1    107.6710    836.8000
    248    251    252   1    117.0670    543.9200
    248    251    256   1    117.0670    543.9200
    252    251    256   1    120.0000    527.1840
    251    252    253   1    120.0000    527.1840
    251    252    262   1    120.0000    292.8800
    253    252    262   1    120.0000    292.8800
    252    253    254   1    120.0000    527.1840
    252    253    263   1    120.0000    292.8800
    254    253    263   1    120.0000    292.8800
    253    254    255   1    120.0000    527.1840
    253    254    257   1    120.0000    585.7600
    255    254    257   1    120.0000    585.7600
    254    255    256   1    120.0000    527.1840
    254    255    264   1    120.0000    292.8800
    256    255    264   1    120.0000    292.8800
    251    256    255   1    120.0000    527.1840
    251    256    265   1    120.0000    292.8800
    255    256    265   1    120.0000    292.8800
    254    257    271   1    114.7000    711.2800
    267    266    271   1    120.0000    527.1840
    267    266    282   1    120.0000    292.8800
    271    266    282   1    120.0000    292.8800
    266    267    268   1    120.0000    527.1840
    266    267    283   1    120.0000    292.8800
    268    267    283   1    120.0000    292.8800
    267    268    269   1    120.0000    527.1840
    267    268    272   1    117.0670    543.9200
    269    268    272   1    117.0670    543.9200
    268    269    270   1    120.0000    527.1840
    268    269    284   1    120.0000    292.8800
    270    269    284   1    120.0000    292.8800
    269    270    271   1    120.0000    527.1840
    269    270    285   1    120.0000    292.8800
    271    270    285   1    120.0000    292.8800
    257    271    266   1    120.0000    585.7600
    257    271    270   1    120.0000    585.7600
    266    271    270   1    120.0000    527.1840
    268    272    273   1    107.6710    836.8000
    268    272    274   1    107.6710    836.8000
    268    272    275   1    104.3600    658.3106
    273    272    274   1    120.1720    962.3200
    273    272    275   1    107.6710    836.8000
    274    272    275   1    107.6710    836.8000
    272    275    276   1    117.0670    543.9200
    272    275    280   1    117.0670    543.9200
    276    275    280   1    120.0000    527.1840
    275    276    277   1    120.0000    527.1840
    275    276    286   1    120.0000    292.8800
    277    276    286   1    120.0000    292.8800
    276    277    278   1    120.0000    527.1840
    276    277    287   1    120.0000    292.8800
    278    277    287   1    120.0000    292.8800
    277    278    279   1    120.0000    527.1840
    277    278    281   1    120.0000    585.7600
    279    278    281   1    120.0000    585.7600
    278    279    280   1    120.0000    527.1840
    278    279    288   1    120.0000    292.8800
    280    279    288   1    120.0000    292.8800
    275    280    279   1    120.0000    527.1840
    275    280    289   1    120.0000    292.8800
    279    280    289   1    120.0000    292.8800
    278    281    295   1    114.7000    711.2800
    291    290    295   1    120.0000    527.1840
    291    290    306   1    120.0000    292.8800
    295    290    306   1    120.0000    292.8800
    290    291    292   1    120.0000    527.1840
    290    291    307   1    120.0000    292.8800
    292    291    307   1    120.0000    292.8800
    291    292    293   1    120.0000    527.1840
    291    292    296   1    117.0670    543.9200
    293    292    296   1    117.0670    543.9200
    292    293    294   1    120.0000    527.1840
    292    293    308   1    120.0000    292.8800
    294    293    308   1    120.0000    292.8800
    293    294    295   1    120.0000    527.1840
    293    294    309   1    120.0000    292.8800
    295    294    309   1    120.0000    292.8800
    281    295    290   1    120.0000    585.7600
    281    295    294   1    120.0000    585.7600
    290    295    294   1    120.0000    527.1840
    292    296    297   1    107.6710    836.8000
    292    296    298   1    107.6710    836.8000
    292    296    299   1    104.3600    658.3106
    297    296    298   1    120.1720    962.3200
    297    296    299   1    107.6710    836.8000
    298    296    299   1    107.6710    836.8000
    296    299    300   1    117.0670    543.9200
    296    299    304   1    117.0670    543.9200
    300    299    304   1    120.0000    527.1840
    299    300    301   1    120.0000    527.1840
    299    300    310   1    120.0000    292.8800
    301    300    310   1    120.0000    292.8800
    300    301    302   1    120.0000    527.1840
    300    301    311   1    120.0000    292.8800
    302    301    311   1    120.0000    292.8800
    301    302    303   1    120.0000    527.1840
    301    302    305   1    120.0000    585.7600
    303    302    305   1    120.0000    585.7600
    302    303    304   1    120.0000    527.1840
    302    303    312   1    120.0000    292.8800
    304    303    312   1    120.0000    292.8800
    299    304    303   1    120.0000    527.1840
    299    304    313   1    120.0000    292.8800
    303    304    313   1    120.0000    292.8800
    302    305    319   1    114.7000    711.2800
    315    314    319   1    120.0000    527.1840
    315    314    330   1    120.0000    292.8800
    319    314    330   1    120.0000    292.8800
    314    315    316   1    120.0000    527.1840
    314    315    331   1    120.0000    292.8800
    316    315    331   1    120.0000    292.8800
    315    316    317   1    120.0000    527.1840
    315    316    320   1    117.0670    543.9200
    317    316    320   1    117.0670    543.9200
    316    317    318   1    120.0000    527.1840
    316    317    332   1    120.0000    292.8800
    318    317    332   1    120.0000    292.8800
    317    318    319   1    120.0000    527.1840
    317    318    333   1    120.0000    292.8800
    319    318    333   1    120.0000    292.8800
    305    319    314   1    120.0000    585.7600
    305    319    318   1    120.0000    585.7600
    314    319    318   1    120.0000    527.1840
    316    320    321   1    107.6710    836.8000
    316    320    322   1    107.6710    836.8000
    316    320    323   1    104.3600    658.3106
    321    320    322   1    120.1720    962.3200
    321    320    323   1    107.6710    836.8000
    322    320    323   1    107.6710    836.8000
    320    323    324   1    117.0670    543.9200
    320    323    328   1    117.0670    543.9200
    324    323    328   1    120.0000    527.1840
    323    324    325   1    120.0000    527.1840
    323    324    334   1    120.0000    292.8800
    325    324    334   1    120.0000    292.8800
    324    325    326   1    120.0000    527.1840
    324    325    335   1    120.0000    292.8800
    326    325    335   1    120.0000    292.8800
    325    326    327   1    120.0000    527.1840
    325    326    329   1    120.0000    585.7600
    327    326    329   1    120.0000    585.7600
    326    327    328   1    120.0000    527.1840
    326    327    336   1    120.0000    292.8800
    328    327    336   1    120.0000    292.8800
    323    328    327   1    120.0000    527.1840
    323    328    337   1    120.0000    292.8800
    327    328    337   1    120.0000    292.8800
    326    329    343   1    114.7000    711.2800
    339    338    343   1    120.0000    527.1840
    339    338    354   1    120.0000    292.8800
    343    338    354   1    120.0000    292.8800
    338    339    340   1    120.0000    527.1840
    338    339    355   1    120.0000    292.8800
    340    339    355   1    120.0000    292.8800
    339    340    341   1    120.0000    527.1840
    339    340    344   1    117.0670    543.9200
    341    340    344   1    117.0670    543.9200
    340    341    342   1    120.0000    527.1840
    340    341    356   1    120.0000    292.8800
    342    341    356   1    120.0000    292.8800
    341    342    343   1    120.0000    527.1840
    341    342    357   1    120.0000    292.8800
    343    342    357   1    120.0000    292.8800
    329    343    338   1    120.0000    585.7600
    329    343    342   1    120.0000    585.7600
    338    343    342   1    120.0000    527.1840
    340    344    345   1    107.6710    836.8000
    340    344    346   1    107.6710    836.8000
    340    344    347   1    104.3600    658.3106
    345    344    346   1    120.1720    962.3200
    345    344    347   1    107.6710    836.8000
    346    344    347   1    107.6710    836.8000
    344    347    348   1    117.0670    543.9200
    344    347    352   1    117.0670    543.9200
    348    347    352   1    120.0000    527.1840
    347    348    349   1    120.0000    527.1840
    347    348    358   1    120.0000    292.8800
    349    348    358   1    120.0000    292.8800
    348    349    350   1    120.0000    527.1840
    348    349    359   1    120.0000    292.8800
    350    349    359   1    120.0000    292.8800
    349    350    351   1    120.0000    527.1840
    349    350    353   1    120.0000    585.7600
    351    350    353   1    120.0000    585.7600
    350    351    352   1    120.0000    527.1840
    350    351    360   1    120.0000    292.8800
    352    351    360   1    120.0000    292.8800
    347    352    351   1    120.0000    527.1840
    347    352    361   1    120.0000    292.8800
    351    352    361   1    120.0000    292.8800
    350    353    367   1    114.7000    711.2800
    363    362    367   1    120.0000    527.1840
    363    362    378   1    120.0000    292.8800
    367    362    378   1    120.0000    292.8800
    362    363    364   1    120.0000    527.1840
    362    363    379   1    120.0000    292.8800
    364    363    379   1    120.0000    292.8800
    363    364    365   1    120.0000    527.1840
    363    364    368   1    117.0670    543.9200
    365    364    368   1    117.0670    543.9200
    364    365    366   1    120.0000    527.1840
    364    365    380   1    120.0000    292.8800
    366    365    380   1    120.0000    292.8800
    365    366    367   1    120.0000    527.1840
    365    366    381   1    120.0000    292.8800
    367    366    381   1    120.0000    292.8800
    353    367    362   1    120.0000    585.7600
    353    367    366   1    120.0000    585.7600
    362    367    366   1    120.0000    527.1840
    364    368    369   1    107.6710    836.8000
    364    368    370   1    107.6710    836.8000
    364    368    371   1    104.3600    658.3106
    369    368    370   1    120.1720    962.3200
    369    368    371   1    107.6710    836.8000
    370    368    371   1    107.6710    836.8000
    368    371    372   1    117.0670    543.9200
    368    371    376   1    117.0670    543.9200
    372    371    376   1    120.0000    527.1840
    371    372    373   1    120.0000    527.1840
    371    372    382   1    120.0000    292.8800
    373    372    382   1    120.0000    292.8800
    372    373    374   1    120.0000    527.1840
    372    373    383   1    120.0000    292.8800
    374    373    383   1    120.0000    292.8800
    373    374    375   1    120.0000    527.1840
    373    374    377   1    120.0000    585.7600
    375    374    377   1    120.0000    585.7600
    374    375    376   1    120.0000    527.1840
    374    375    384   1    120.0000    292.8800
    376    375    384   1    120.0000    292.8800
    371    376    375   1    120.0000    527.1840
    371    376    385   1    120.0000    292.8800
    375    376    385   1    120.0000    292.8800
    374    377    391   1    114.7000    711.2800
    387    386    391   1    120.0000    527.1840
    387    386    402   1    120.0000    292.8800
    391    386    402   1    120.0000    292.8800
    386    387    388   1    120.0000    527.1840
    386    387    403   1    120.0000    292.8800
    388    387    403   1    120.0000    292.8800
    387    388    389   1    120.0000    527.1840
    387    388    392   1    117.0670    543.9200
    389    388    392   1    117.0670    543.9200
    388    389    390   1    120.0000    527.1840
    388    389    404   1    120.0000    292.8800
    390    389    404   1    120.0000    292.8800
    389    390    391   1    120.0000    527.1840
    389    390    405   1    120.0000    292.8800
    391    390    405   1    120.0000    292.8800
    377    391    386   1    120.0000    585.7600
    377    391    390   1    120.0000    585.7600
    386    391    390   1    120.0000    527.1840
    388    392    393   1    107.6710    836.8000
    388    392    394   1    107.6710    836.8000
    388    392    395   1    104.3600    658.3106
    393    392    394   1    120.1720    962.3200
    393    392    395   1    107.6710    836.8000
    394    392    395   1    107.6710    836.8000
    392    395    396   1    117.0670    543.9200
    392    395    400   1    117.0670    543.9200
    396    395    400   1    120.0000    527.1840
    395    396    397   1    120.0000    527.1840
    395    396    406   1    120.0000    292.8800
    397    396    406   1    120.0000    292.8800
    396    397    398   1    120.0000    527.1840
    396    397    407   1    120.0000    292.8800
    398    397    407   1    120.0000    292.8800
    397    398    399   1    120.0000    527.1840
    397    398    401   1    120.0000    585.7600
    399    398    401   1    120.0000    585.7600
    398    399    400   1    120.0000    527.1840
    398    399    408   1    120.0000    292.8800
    400    399    408   1    120.0000    292.8800
    395    400    399   1    120.0000    527.1840
    395    400    409   1    120.0000    292.8800
    399    400    409   1    120.0000    292.8800
    398    401    415   1    114.7000    711.2800
    411    410    415   1    120.0000    527.1840
    411    410    426   1    120.0000    292.8800
    415    410    426   1    120.0000    292.8800
    410    411    412   1    120.0000    527.1840
    410    411    427   1    120.0000    292.8800
    412    411    427   1    120.0000    292.8800
    411    412    413   1    120.0000    527.1840
    411    412    416   1    117.0670    543.9200
    413    412    416   1    117.0670    543.9200
    412    413    414   1    120.0000    527.1840
    412    413    428   1    120.0000    292.8800
    414    413    428   1    120.0000    292.8800
    413    414    415   1    120.0000    527.1840
    413    414    429   1    120.0000    292.8800
    415    414    429   1    120.0000    292.8800
    401    415    410   1    120.0000    585.7600
    401    415    414   1    120.0000    585.7600
    410    415    414   1    120.0000    527.1840
    412    416    417   1    107.6710    836.8000
    412    416    418   1    107.6710    836.8000
    412    416    419   1    104.3600    658.3106
    417    416    418   1    120.1720    962.3200
    417    416    419   1    107.6710    836.8000
    418    416    419   1    107.6710    836.8000
    416    419    420   1    117.0670    543.9200
    416    419    424   1    117.0670    543.9200
    420    419    424   1    120.0000    527.1840
    419    420    421   1    120.0000    527.1840
    419    420    430   1    120.0000    292.8800
    421    420    430   1    120.0000    292.8800
    420    421    422   1    120.0000    527.1840
    420    421    431   1    120.0000    292.8800
    422    421    431   1    120.0000    292.8800
    421    422    423   1    120.0000    527.1840
    421    422    425   1    120.0000    585.7600
    423    422    425   1    120.0000    585.7600
    422    423    424   1    120.0000    527.1840
    422    423    432   1    120.0000    292.8800
    424    423    432   1    120.0000    292.8800
    419    424    423   1    120.0000    527.1840
    419    424    433   1    120.0000    292.8800
    423    424    433   1    120.0000    292.8800
    422    425    439   1    114.7000    711.2800
    435    434    439   1    120.0000    527.1840
    435    434    450   1    120.0000    292.8800
    439    434    450   1    120.0000    292.8800
    434    435    436   1    120.0000    527.1840
    434    435    451   1    120.0000    292.8800
    436    435    451   1    120.0000    292.8800
    435    436    437   1    120.0000    527.1840
    435    436    440   1    117.0670    543.9200
    437    436    440   1    117.0670    543.9200
    436    437    438   1    120.0000    527.1840
    436    437    452   1    120.0000    292.8800
    438    437    452   1    120.0000    292.8800
    437    438    439   1    120.0000    527.1840
    437    438    453   1    120.0000    292.8800
    439    438    453   1    120.0000    292.8800
    425    439    434   1    120.0000    585.7600
    425    439    438   1    120.0000    585.7600
    434    439    438   1    120.0000    527.1840
    436    440    441   1    107.6710    836.8000
    436    440    442   1    107.6710    836.8000
    436    440    443   1    104.3600    658.3106
    441    440    442   1    120.1720    962.3200
    441    440    443   1    107.6710    836.8000
    442    440    443   1    107.6710    836.8000
    440    443    444   1    117.0670    543.9200
    440    443    448   1    117.0670    543.9200
    444    443    448   1    120.0000    527.1840
    443    444    445   1    120.0000    527.1840
    443    444    454   1    120.0000    292.8800
    445    444    454   1    120.0000    292.8800
    444    445    446   1    120.0000    527.1840
    444    445    455   1    120.0000    292.8800
    446    445    455   1    120.0000    292.8800
    445    446    447   1    120.0000    527.1840
    445    446    449   1    120.0000    585.7600
    447    446    449   1    120.0000    585.7600
    446    447    448   1    120.0000    527.1840
    446    447    456   1    120.0000    292.8800
    448    447    456   1    120.0000    292.8800
    443    448    447   1    120.0000    527.1840
    443    448    457   1    120.0000    292.8800
    447    448    457   1    120.0000    292.8800
    446    449    463   1    114.7000    711.2800
    459    458    463   1    120.0000    527.1840
    459    458    474   1    120.0000    292.8800
    463    458    474   1    120.0000    292.8800
    458    459    460   1    120.0000    527.1840
    458    459    475   1    120.0000    292.8800
    460    459    475   1    120.0000    292.8800
    459    460    461   1    120.0000    527.1840
    459    460    464   1    117.0670    543.9200
    461    460    464   1    117.0670    543.9200
    460    461    462   1    120.0000    527.1840
    460    461    476   1    120.0000    292.8800
    462    461    476   1    120.0000    292.8800
    461    462    463   1    120.0000    527.1840
    461    462    477   1    120.0000    292.8800
    463    462    477   1    120.0000    292.8800
    449    463    458   1    120.0000    585.7600
    449    463    462   1    120.0000    585.7600
    458    463    462   1    120.0000    527.1840
    460    464    465   1    107.6710    836.8000
    460    464    466   1    107.6710    836.8000
    460    464    467   1    104.3600    658.3106
    465    464    466   1    120.1720    962.3200
    465    464    467   1    107.6710    836.8000
    466    464    467   1    107.6710    836.8000
    464    467    468   1    117.0670    543.9200
    464    467    472   1    117.0670    543.9200
    468    467    472   1    120.0000    527.1840
    467    468    469   1    120.0000    527.1840
    467    468    478   1    120.0000    292.8800
    469    468    478   1    120.0000    292.8800
    468    469    470   1    120.0000    527.1840
    468    469    479   1    120.0000    292.8800
    470    469    479   1    120.0000    292.8800
    469    470    471   1    120.0000    527.1840
    469    470    473   1    120.0000    585.7600
    471    470    473   1    120.0000    585.7600
    470    471    472   1    120.0000    527.1840
    470    471    480   1    120.0000    292.8800
    472    471    480   1    120.0000    292.8800
    467    472    471   1    120.0000    527.1840
    467    472    481   1    120.0000    292.8800
    471    472    481   1    120.0000    292.8800
    470    473    482   1    113.0000    292.8800

[ dihedrals ]
; Proper dihedrals
      6      1      2      3   5     0.00000    30.33400     0.00000  0.0
      6      1      2     18   5     0.00000    30.33400     0.00000  0.0
     17      1      2      3   5     0.00000    30.33400     0.00000  0.0
     17      1      2     18   5     0.00000    30.33400     0.00000  0.0
      2      1      6      5   5     0.00000    30.33400     0.00000  0.0
      2      1      6     25   5     0.00000    30.33400     0.00000  0.0
     17      1      6      5   5     0.00000    30.33400     0.00000  0.0
     17      1      6     25   5     0.00000    30.33400     0.00000  0.0
      1      2      3      4   5     0.00000    30.33400     0.00000  0.0
      1      2      3      7   5     0.00000    30.33400     0.00000  0.0
     18      2      3      4   5     0.00000    30.33400     0.00000  0.0
     18      2      3      7   5     0.00000    30.33400     0.00000  0.0
      2      3      4      5   5     0.00000    30.33400     0.00000  0.0
      2      3      4     19   5     0.00000    30.33400     0.00000  0.0
      7      3      4      5   5     0.00000    30.33400     0.00000  0.0
      7      3      4     19   5     0.00000    30.33400     0.00000  0.0
      2      3      7      8   5     1.63176     1.00416     0.00000  0.0
      2      3      7      9   5     1.63176     1.00416     0.00000  0.0
      2      3      7     10   5     0.00000     3.76560     0.00000  0.0
      4      3      7      8   5     1.63176     1.00416     0.00000  0.0
      4      3      7      9   5     1.63176     1.00416     0.00000  0.0
      4      3      7     10   5     0.00000     3.76560     0.00000  0.0
      3      4      5      6   5     0.00000    30.33400     0.00000  0.0
      3      4      5     20   5     0.00000    30.33400     0.00000  0.0
     19      4      5      6   5     0.00000    30.33400     0.00000  0.0
     19      4      5     20   5     0.00000    30.33400     0.00000  0.0
      4      5      6      1   5     0.00000    30.33400     0.00000  0.0
      4      5      6     25   5     0.00000    30.33400     0.00000  0.0
     20      5      6      1   5     0.00000    30.33400     0.00000  0.0
     20      5      6     25   5     0.00000    30.33400     0.00000  0.0
      3      7     10     11   5     0.00000     3.76560     0.00000  0.0
      3      7     10     15   5     0.00000     3.76560     0.00000  0.0
      8      7     10     11   5     1.63176     1.00416     0.00000  0.0
      8      7     10     15   5     1.63176     1.00416     0.00000  0.0
      9      7     10     11   5     1.63176     1.00416     0.00000  0.0
      9      7     10     15   5     1.63176     1.00416     0.00000  0.0
      7     10     11     12   5     0.00000    30.33400     0.00000  0.0
      7     10     11     21   5     0.00000    30.33400     0.00000  0.0
     15     10     11     12   5     0.00000    30.33400     0.00000  0.0
     15     10     11     21   5     0.00000    30.33400     0.00000  0.0
      7     10     15     14   5     0.00000    30.33400     0.00000  0.0
      7     10     15     24   5     0.00000    30.33400     0.00000  0.0
     11     10     15     14   5     0.00000    30.33400     0.00000  0.0
     11     10     15     24   5     0.00000    30.33400     0.00000  0.0
     10     11     12     13   5     0.00000    30.33400     0.00000  0.0
     10     11     12     22   5     0.00000    30.33400     0.00000  0.0
     21     11     12     13   5     0.00000    30.33400     0.00000  0.0
     21     11     12     22   5     0.00000    30.33400     0.00000  0.0
     11     12     13     14   5     0.00000    30.33400     0.00000  0.0
     11     12     13     16   5     0.00000    30.33400     0.00000  0.0
     22     12     13     14   5     0.00000    30.33400     0.00000  0.0
     22     12     13     16   5     0.00000    30.33400     0.00000  0.0
     12     13     14     15   5     0.00000    30.33400     0.00000  0.0
     12     13     14     23   5     0.00000    30.33400     0.00000  0.0
     16     13     14     15   5     0.00000    30.33400     0.00000  0.0
     16     13     14     23   5     0.00000    30.33400     0.00000  0.0
     12     13     16     31   5     0.00000     3.94551     0.00000  0.0
     14     13     16     31   5     0.00000     3.94551     0.00000  0.0
     13     14     15     10   5     0.00000    30.33400     0.00000  0.0
     13     14     15     24   5     0.00000    30.33400     0.00000  0.0
     23     14     15     10   5     0.00000    30.33400     0.00000  0.0
     23     14     15     24   5     0.00000    30.33400     0.00000  0.0
     13     16     31     26   5     0.00000     3.94551     0.00000  0.0
     13     16     31     30   5     0.00000     3.94551     0.00000  0.0
     31     26     27     28   5     0.00000    30.33400     0.00000  0.0
     31     26     27     43   5     0.00000    30.33400     0.00000  0.0
     42     26     27     28   5     0.00000    30.33400     0.00000  0.0
     42     26     27     43   5     0.00000    30.33400     0.00000  0.0
     27     26     31     16   5     0.00000    30.33400     0.00000  0.0
     27     26     31     30   5     0.00000    30.33400     0.00000  0.0
     42     26     31     16   5     0.00000    30.33400     0.00000  0.0
     42     26     31     30   5     0.00000    30.33400     0.00000  0.0
     26     27     28     29   5     0.00000    30.33400     0.00000  0.0
     26     27     28     32   5     0.00000    30.33400     0.00000  0.0
     43     27     28     29   5     0.00000    30.33400     0.00000  0.0
     43     27     28     32   5     0.00000    30.33400     0.00000  0.0
     27     28     29     30   5     0.00000    30.33400     0.00000  0.0
     27     28     29     44   5     0.00000    30.33400     0.00000  0.0
     32     28     29     30   5     0.00000    30.33400     0.00000  0.0
     32     28     29     44   5     0.00000    30.33400     0.00000  0.0
     27     28     32     33   5     1.63176     1.00416     0.00000  0.0
     27     28     32     34   5     1.63176     1.00416     0.00000  0.0
     27     28     32     35   5     0.00000     3.76560     0.00000  0.0
     29     28     32     33   5     1.63176     1.00416     0.00000  0.0
     29     28     32     34   5     1.63176     1.00416     0.00000  0.0
     29     28     32     35   5     0.00000     3.76560     0.00000  0.0
     28     29     30     31   5     0.00000    30.33400     0.00000  0.0
     28     29     30     45   5     0.00000    30.33400     0.00000  0.0
     44     29     30     31   5     0.00000    30.33400     0.00000  0.0
     44     29     30     45   5     0.00000    30.33400     0.00000  0.0
     29     30     31     16   5     0.00000    30.33400     0.00000  0.0
     29     30     31     26   5     0.00000    30.33400     0.00000  0.0
     45     30     31     16   5     0.00000    30.33400     0.00000  0.0
     45     30     31     26   5     0.00000    30.33400     0.00000  0.0
     28     32     35     36   5     0.00000     3.76560     0.00000  0.0
     28     32     35     40   5     0.00000     3.76560     0.00000  0.0
     33     32     35     36   5     1.63176     1.00416     0.00000  0.0
     33     32     35     40   5     1.63176     1.00416     0.00000  0.0
     34     32     35     36   5     1.63176     1.00416     0.00000  0.0
     34     32     35     40   5     1.63176     1.00416     0.00000  0.0
     32     35     36     37   5     0.00000    30.33400     0.00000  0.0
     32     35     36     46   5     0.00000    30.33400     0.00000  0.0
     40     35     36     37   5     0.00000    30.33400     0.00000  0.0
     40     35     36     46   5     0.00000    30.33400     0.00000  0.0
     32     35     40     39   5     0.00000    30.33400     0.00000  0.0
     32     35     40     49   5     0.00000    30.33400     0.00000  0.0
     36     35     40     39   5     0.00000    30.33400     0.00000  0.0
     36     35     40     49   5     0.00000    30.33400     0.00000  0.0
     35     36     37     38   5     0.00000    30.33400     0.00000  0.0
     35     36     37     47   5     0.00000    30.33400     0.00000  0.0
     46     36     37     38   5     0.00000    30.33400     0.00000  0.0
     46     36     37     47   5     0.00000    30.33400     0.00000  0.0
     36     37     38     39   5     0.00000    30.33400     0.00000  0.0
     36     37     38     41   5     0.00000    30.33400     0.00000  0.0
     47     37     38     39   5     0.00000    30.33400     0.00000  0.0
     47     37     38     41   5     0.00000    30.33400     0.00000  0.0
     37     38     39     40   5     0.00000    30.33400     0.00000  0.0
     37     38     39     48   5     0.00000    30.33400     0.00000  0.0
     41     38     39     40   5     0.00000    30.33400     0.00000  0.0
     41     38     39     48   5     0.00000    30.33400     0.00000  0.0
     37     38     41     55   5     0.00000     3.94551     0.00000  0.0
     39     38     41     55   5     0.00000     3.94551     0.00000  0.0
     38     39     40     35   5     0.00000    30.33400     0.00000  0.0
     38     39     40     49   5     0.00000    30.33400     0.00000  0.0
     48     39     40     35   5     0.00000    30.33400     0.00000  0.0
     48     39     40     49   5     0.00000    30.33400     0.00000  0.0
     38     41     55     50   5     0.00000     3.94551     0.00000  0.0
     38     41     55     54   5     0.00000     3.94551     0.00000  0.0
     55     50     51     52   5     0.00000    30.33400     0.00000  0.0
     55     50     51     67   5     0.00000    30.33400     0.00000  0.0
     66     50     51     52   5     0.00000    30.33400     0.00000  0.0
     66     50     51     67   5     0.00000    30.33400     0.00000  0.0
     51     50     55     41   5     0.00000    30.33400     0.00000  0.0
     51     50     55     54   5     0.00000    30.33400     0.00000  0.0
     66     50     55     41   5     0.00000    30.33400     0.00000  0.0
     66     50     55     54   5     0.00000    30.33400     0.00000  0.0
     50     51     52     53   5     0.00000    30.33400     0.00000  0.0
     50     51     52     56   5     0.00000    30.33400     0.00000  0.0
     67     51     52     53   5     0.00000    30.33400     0.00000  0.0
     67     51     52     56   5     0.00000    30.33400     0.00000  0.0
     51     52     53     54   5     0.00000    30.33400     0.00000  0.0
     51     52     53     68   5     0.00000    30.33400     0.00000  0.0
     56     52     53     54   5     0.00000    30.33400     0.00000  0.0
     56     52     53     68   5     0.00000    30.33400     0.00000  0.0
     51     52     56     57   5     1.63176     1.00416     0.00000  0.0
     51     52     56     58   5     1.63176     1.00416     0.00000  0.0
     51     52     56     59   5     0.00000     3.76560     0.00000  0.0
     53     52     56     57   5     1.63176     1.00416     0.00000  0.0
     53     52     56     58   5     1.63176     1.00416     0.00000  0.0
     53     52     56     59   5     0.00000     3.76560     0.00000  0.0
     52     53     54     55   5     0.00000    30.33400     0.00000  0.0
     52     53     54     69   5     0.00000    30.33400     0.00000  0.0
     68     53     54     55   5     0.00000    30.33400     0.00000  0.0
     68     53     54     69   5     0.00000    30.33400     0.00000  0.0
     53     54     55     41   5     0.00000    30.33400     0.00000  0.0
     53     54     55     50   5     0.00000    30.33400     0.00000  0.0
     69     54     55     41   5     0.00000    30.33400     0.00000  0.0
     69     54     55     50   5     0.00000    30.33400     0.00000  0.0
     52     56     59     60   5     0.00000     3.76560     0.00000  0.0
     52     56     59     64   5     0.00000     3.76560     0.00000  0.0
     57     56     59     60   5     1.63176     1.00416     0.00000  0.0
     57     56     59     64   5     1.63176     1.00416     0.00000  0.0
     58     56     59     60   5     1.63176     1.00416     0.00000  0.0
     58     56     59     64   5     1.63176     1.00416     0.00000  0.0
     56     59     60     61   5     0.00000    30.33400     0.00000  0.0
     56     59     60     70   5     0.00000    30.33400     0.00000  0.0
     64     59     60     61   5     0.00000    30.33400     0.00000  0.0
     64     59     60     70   5     0.00000    30.33400     0.00000  0.0
     56     59     64     63   5     0.00000    30.33400     0.00000  0.0
     56     59     64     73   5     0.00000    30.33400     0.00000  0.0
     60     59     64     63   5     0.00000    30.33400     0.00000  0.0
     60     59     64     73   5     0.00000    30.33400     0.00000  0.0
     59     60     61     62   5     0.00000    30.33400     0.00000  0.0
     59     60     61     71   5     0.00000    30.33400     0.00000  0.0
     70     60     61     62   5     0.00000    30.33400     0.00000  0.0
     70     60     61     71   5     0.00000    30.33400     0.00000  0.0
     60     61     62     63   5     0.00000    30.33400     0.00000  0.0
     60     61     62     65   5     0.00000    30.33400     0.00000  0.0
     71     61     62     63   5     0.00000    30.33400     0.00000  0.0
     71     61     62     65   5     0.00000    30.33400     0.00000  0.0
     61     62     63     64   5     0.00000    30.33400     0.00000  0.0
     61     62     63     72   5     0.00000    30.33400     0.00000  0.0
     65     62     63     64   5     0.00000    30.33400     0.00000  0.0
     65     62     63     72   5     0.00000    30.33400     0.00000  0.0
     61     62     65     79   5     0.00000     3.94551     0.00000  0.0
     63     62     65     79   5     0.00000     3.94551     0.00000  0.0
     62     63     64     59   5     0.00000    30.33400     0.00000  0.0
     62     63     64     73   5     0.00000    30.33400     0.00000  0.0
     72     63     64     59   5     0.00000    30.33400     0.00000  0.0
     72     63     64     73   5     0.00000    30.33400     0.00000  0.0
     62     65     79     74   5     0.00000     3.94551     0.00000  0.0
     62     65     79     78   5     0.00000     3.94551     0.00000  0.0
     79     74     75     76   5     0.00000    30.33400     0.00000  0.0
     79     74     75     91   5     0.00000    30.33400     0.00000  0.0
     90     74     75     76   5     0.00000    30.33400     0.00000  0.0
     90     74     75     91   5     0.00000    30.33400     0.00000  0.0
     75     74     79     65   5     0.00000    30.33400     0.00000  0.0
     75     74     79     78   5     0.00000    30.33400     0.00000  0.0
     90     74     79     65   5     0.00000    30.33400     0.00000  0.0
     90     74     79     78   5     0.00000    30.33400     0.00000  0.0
     74     75     76     77   5     0.00000    30.33400     0.00000  0.0
     74     75     76     80   5     0.00000    30.33400     0.00000  0.0
     91     75     76     77   5     0.00000    30.33400     0.00000  0.0
     91     75     76     80   5     0.00000    30.33400     0.00000  0.0
     75     76     77     78   5     0.00000    30.33400     0.00000  0.0
     75     76     77     92   5     0.00000    30.33400     0.00000  0.0
     80     76     77     78   5     0.00000    30.33400     0.00000  0.0
     80     76     77     92   5     0.00000    30.33400     0.00000  0.0
     75     76     80     81   5     1.63176     1.00416     0.00000  0.0
     75     76     80     82   5     1.63176     1.00416     0.00000  0.0
     75     76     80     83   5     0.00000     3.76560     0.00000  0.0
     77     76     80     81   5     1.63176     1.00416     0.00000  0.0
     77     76     80     82   5     1.63176     1.00416     0.00000  0.0
     77     76     80     83   5     0.00000     3.76560     0.00000  0.0
     76     77     78     79   5     0.00000    30.33400     0.00000  0.0
     76     77     78     93   5     0.00000    30.33400     0.00000  0.0
     92     77     78     79   5     0.00000    30.33400     0.00000  0.0
     92     77     78     93   5     0.00000    30.33400     0.00000  0.0
     77     78     79     65   5     0.00000    30.33400     0.00000  0.0
     77     78     79     74   5     0.00000    30.33400     0.00000  0.0
     93     78     79     65   5     0.00000    30.33400     0.00000  0.0
     93     78     79     74   5     0.00000    30.33400     0.00000  0.0
     76     80     83     84   5     0.00000     3.76560     0.00000  0.0
     76     80     83     88   5     0.00000     3.76560     0.00000  0.0
     81     80     83     84   5     1.63176     1.00416     0.00000  0.0
     81     80     83     88   5     1.63176     1.00416     0.00000  0.0
     82     80     83     84   5     1.63176     1.00416     0.00000  0.0
     82     80     83     88   5     1.63176     1.00416     0.00000  0.0
     80     83     84     85   5     0.00000    30.33400     0.00000  0.0
     80     83     84     94   5     0.00000    30.33400     0.00000  0.0
     88     83     84     85   5     0.00000    30.33400     0.00000  0.0
     88     83     84     94   5     0.00000    30.33400     0.00000  0.0
     80     83     88     87   5     0.00000    30.33400     0.00000  0.0
     80     83     88     97   5     0.00000    30.33400     0.00000  0.0
     84     83     88     87   5     0.00000    30.33400     0.00000  0.0
     84     83     88     97   5     0.00000    30.33400     0.00000  0.0
     83     84     85     86   5     0.00000    30.33400     0.00000  0.0
     83     84     85     95   5     0.00000    30.33400     0.00000  0.0
     94     84     85     86   5     0.00000    30.33400     0.00000  0.0
     94     84     85     95   5     0.00000    30.33400     0.00000  0.0
     84     85     86     87   5     0.00000    30.33400     0.00000  0.0
     84     85     86     89   5     0.00000    30.33400     0.00000  0.0
     95     85     86     87   5     0.00000    30.33400     0.00000  0.0
     95     85     86     89   5     0.00000    30.33400     0.00000  0.0
     85     86     87     88   5     0.00000    30.33400     0.00000  0.0
     85     86     87     96   5     0.00000    30.33400     0.00000  0.0
     89     86     87     88   5     0.00000    30.33400     0.00000  0.0
     89     86     87     96   5     0.00000    30.33400     0.00000  0.0
     85     86     89    103   5     0.00000     3.94551     0.00000  0.0
     87     86     89    103   5     0.00000     3.94551     0.00000  0.0
     86     87     88     83   5     0.00000    30.33400     0.00000  0.0
     86     87     88     97   5     0.00000    30.33400     0.00000  0.0
     96     87     88     83   5     0.00000    30.33400     0.00000  0.0
     96     87     88     97   5     0.00000    30.33400     0.00000  0.0
     86     89    103     98   5     0.00000     3.94551     0.00000  0.0
     86     89    103    102   5     0.00000     3.94551     0.00000  0.0
    103     98     99    100   5     0.00000    30.33400     0.00000  0.0
    103     98     99    115   5     0.00000    30.33400     0.00000  0.0
    114     98     99    100   5     0.00000    30.33400     0.00000  0.0
    114     98     99    115   5     0.00000    30.33400     0.00000  0.0
     99     98    103     89   5     0.00000    30.33400     0.00000  0.0
     99     98    103    102   5     0.00000    30.33400     0.00000  0.0
    114     98    103     89   5     0.00000    30.33400     0.00000  0.0
    114     98    103    102   5     0.00000    30.33400     0.00000  0.0
     98     99    100    101   5     0.00000    30.33400     0.00000  0.0
     98     99    100    104   5     0.00000    30.33400     0.00000  0.0
    115     99    100    101   5     0.00000    30.33400     0.00000  0.0
    115     99    100    104   5     0.00000    30.33400     0.00000  0.0
     99    100    101    102   5     0.00000    30.33400     0.00000  0.0
     99    100    101    116   5     0.00000    30.33400     0.00000  0.0
    104    100    101    102   5     0.00000    30.33400     0.00000  0.0
    104    100    101    116   5     0.00000    30.33400     0.00000  0.0
     99    100    104    105   5     1.63176     1.00416     0.00000  0.0
     99    100    104    106   5     1.63176     1.00416     0.00000  0.0
     99    100    104    107   5     0.00000     3.76560     0.00000  0.0
    101    100    104    105   5     1.63176     1.00416     0.00000  0.0
    101    100    104    106   5     1.63176     1.00416     0.00000  0.0
    101    100    104    107   5     0.00000     3.76560     0.00000  0.0
    100    101    102    103   5     0.00000    30.33400     0.00000  0.0
    100    101    102    117   5     0.00000    30.33400     0.00000  0.0
    116    101    102    103   5     0.00000    30.33400     0.00000  0.0
    116    101    102    117   5     0.00000    30.33400     0.00000  0.0
    101    102    103     89   5     0.00000    30.33400     0.00000  0.0
    101    102    103     98   5     0.00000    30.33400     0.00000  0.0
    117    102    103     89   5     0.00000    30.33400     0.00000  0.0
    117    102    103     98   5     0.00000    30.33400     0.00000  0.0
    100    104    107    108   5     0.00000     3.76560     0.00000  0.0
    100    104    107    112   5     0.00000     3.76560     0.00000  0.0
    105    104    107    108   5     1.63176     1.00416     0.00000  0.0
    105    104    107    112   5     1.63176     1.00416     0.00000  0.0
    106    104    107    108   5     1.63176     1.00416     0.00000  0.0
    106    104    107    112   5     1.63176     1.00416     0.00000  0.0
    104    107    108    109   5     0.00000    30.33400     0.00000  0.0
    104    107    108    118   5     0.00000    30.33400     0.00000  0.0
    112    107    108    109   5     0.00000    30.33400     0.00000  0.0
    112    107    108    118   5     0.00000    30.33400     0.00000  0.0
    104    107    112    111   5     0.00000    30.33400     0.00000  0.0
    104    107    112    121   5     0.00000    30.33400     0.00000  0.0
    108    107    112    111   5     0.00000    30.33400     0.00000  0.0
    108    107    112    121   5     0.00000    30.33400     0.00000  0.0
    107    108    109    110   5     0.00000    30.33400     0.00000  0.0
    107    108    109    119   5     0.00000    30.33400     0.00000  0.0
    118    108    109    110   5     0.00000    30.33400     0.00000  0.0
    118    108    109    119   5     0.00000    30.33400     0.00000  0.0
    108    109    110    111   5     0.00000    30.33400     0.00000  0.0
    108    109    110    113   5     0.00000    30.33400     0.00000  0.0
    119    109    110    111   5     0.00000    30.33400     0.00000  0.0
    119    109    110    113   5     0.00000    30.33400     0.00000  0.0
    109    110    111    112   5     0.00000    30.33400     0.00000  0.0
    109    110    111    120   5     0.00000    30.33400     0.00000  0.0
    113    110    111    112   5     0.00000    30.33400     0.00000  0.0
    113    110    111    120   5     0.00000    30.33400     0.00000  0.0
    109    110    113    127   5     0.00000     3.94551     0.00000  0.0
    111    110    113    127   5     0.00000     3.94551     0.00000  0.0
    110    111    112    107   5     0.00000    30.33400     0.00000  0.0
    110    111    112    121   5     0.00000    30.33400     0.00000  0.0
    120    111    112    107   5     0.00000    30.33400     0.00000  0.0
    120    111    112    121   5     0.00000    30.33400     0.00000  0.0
    110    113    127    122   5     0.00000     3.94551     0.00000  0.0
    110    113    127    126   5     0.00000     3.94551     0.00000  0.0
    127    122    123    124   5     0.00000    30.33400     0.00000  0.0
    127    122    123    139   5     0.00000    30.33400     0.00000  0.0
    138    122    123    124   5     0.00000    30.33400     0.00000  0.0
    138    122    123    139   5     0.00000    30.33400     0.00000  0.0
    123    122    127    113   5     0.00000    30.33400     0.00000  0.0
    123    122    127    126   5     0.00000    30.33400     0.00000  0.0
    138    122    127    113   5     0.00000    30.33400     0.00000  0.0
    138    122    127    126   5     0.00000    30.33400     0.00000  0.0
    122    123    124    125   5     0.00000    30.33400     0.00000  0.0
    122    123    124    128   5     0.00000    30.33400     0.00000  0.0
    139    123    124    125   5     0.00000    30.33400     0.00000  0.0
    139    123    124    128   5     0.00000    30.33400     0.00000  0.0
    123    124    125    126   5     0.00000    30.33400     0.00000  0.0
    123    124    125    140   5     0.00000    30.33400     0.00000  0.0
    128    124    125    126   5     0.00000    30.33400     0.00000  0.0
    128    124    125    140   5     0.00000    30.33400     0.00000  0.0
    123    124    128    129   5     1.63176     1.00416     0.00000  0.0
    123    124    128    130   5     1.63176     1.00416     0.00000  0.0
    123    124    128    131   5     0.00000     3.76560     0.00000  0.0
    125    124    128    129   5     1.63176     1.00416     0.00000  0.0
    125    124    128    130   5     1.63176     1.00416     0.00000  0.0
    125    124    128    131   5     0.00000     3.76560     0.00000  0.0
    124    125    126    127   5     0.00000    30.33400     0.00000  0.0
    124    125    126    141   5     0.00000    30.33400     0.00000  0.0
    140    125    126    127   5     0.00000    30.33400     0.00000  0.0
    140    125    126    141   5     0.00000    30.33400     0.00000  0.0
    125    126    127    113   5     0.00000    30.33400     0.00000  0.0
    125    126    127    122   5     0.00000    30.33400     0.00000  0.0
    141    126    127    113   5     0.00000    30.33400     0.00000  0.0
    141    126    127    122   5     0.00000    30.33400     0.00000  0.0
    124    128    131    132   5     0.00000     3.76560     0.00000  0.0
    124    128    131    136   5     0.00000     3.76560     0.00000  0.0
    129    128    131    132   5     1.63176     1.00416     0.00000  0.0
    129    128    131    136   5     1.63176     1.00416     0.00000  0.0
    130    128    131    132   5     1.63176     1.00416     0.00000  0.0
    130    128    131    136   5     1.63176     1.00416     0.00000  0.0
    128    131    132    133   5     0.00000    30.33400     0.00000  0.0
    128    131    132    142   5     0.00000    30.33400     0.00000  0.0
    136    131    132    133   5     0.00000    30.33400     0.00000  0.0
    136    131    132    142   5     0.00000    30.33400     0.00000  0.0
    128    131    136    135   5     0.00000    30.33400     0.00000  0.0
    128    131    136    145   5     0.00000    30.33400     0.00000  0.0
    132    131    136    135   5     0.00000    30.33400     0.00000  0.0
    132    131    136    145   5     0.00000    30.33400     0.00000  0.0
    131    132    133    134   5     0.00000    30.33400     0.00000  0.0
    131    132    133    143   5     0.00000    30.33400     0.00000  0.0
    142    132    133    134   5     0.00000    30.33400     0.00000  0.0
    142    132    133    143   5     0.00000    30.33400     0.00000  0.0
    132    133    134    135   5     0.00000    30.33400     0.00000  0.0
    132    133    134    137   5     0.00000    30.33400     0.00000  0.0
    143    133    134    135   5     0.00000    30.33400     0.00000  0.0
    143    133    134    137   5     0.00000    30.33400     0.00000  0.0
    133    134    135    136   5     0.00000    30.33400     0.00000  0.0
    133    134    135    144   5     0.00000    30.33400     0.00000  0.0
    137    134    135    136   5     0.00000    30.33400     0.00000  0.0
    137    134    135    144   5     0.00000    30.33400     0.00000  0.0
    133    134    137    151   5     0.00000     3.94551     0.00000  0.0
    135    134    137    151   5     0.00000     3.94551     0.00000  0.0
    134    135    136    131   5     0.00000    30.33400     0.00000  0.0
    134    135    136    145   5     0.00000    30.33400     0.00000  0.0
    144    135    136    131   5     0.00000    30.33400     0.00000  0.0
    144    135    136    145   5     0.00000    30.33400     0.00000  0.0
    134    137    151    146   5     0.00000     3.94551     0.00000  0.0
    134    137    151    150   5     0.00000     3.94551     0.00000  0.0
    151    146    147    148   5     0.00000    30.33400     0.00000  0.0
    151    146    147    163   5     0.00000    30.33400     0.00000  0.0
    162    146    147    148   5     0.00000    30.33400     0.00000  0.0
    162    146    147    163   5     0.00000    30.33400     0.00000  0.0
    147    146    151    137   5     0.00000    30.33400     0.00000  0.0
    147    146    151    150   5     0.00000    30.33400     0.00000  0.0
    162    146    151    137   5     0.00000    30.33400     0.00000  0.0
    162    146    151    150   5     0.00000    30.33400     0.00000  0.0
    146    147    148    149   5     0.00000    30.33400     0.00000  0.0
    146    147    148    152   5     0.00000    30.33400     0.00000  0.0
    163    147    148    149   5     0.00000    30.33400     0.00000  0.0
    163    147    148    152   5     0.00000    30.33400     0.00000  0.0
    147    148    149    150   5     0.00000    30.33400     0.00000  0.0
    147    148    149    164   5     0.00000    30.33400     0.00000  0.0
    152    148    149    150   5     0.00000    30.33400     0.00000  0.0
    152    148    149    164   5     0.00000    30.33400     0.00000  0.0
    147    148    152    153   5     1.63176     1.00416     0.00000  0.0
    147    148    152    154   5     1.63176     1.00416     0.00000  0.0
    147    148    152    155   5     0.00000     3.76560     0.00000  0.0
    149    148    152    153   5     1.63176     1.00416     0.00000  0.0
    149    148    152    154   5     1.63176     1.00416     0.00000  0.0
    149    148    152    155   5     0.00000     3.76560     0.00000  0.0
    148    149    150    151   5     0.00000    30.33400     0.00000  0.0
    148    149    150    165   5     0.00000    30.33400     0.00000  0.0
    164    149    150    151   5     0.00000    30.33400     0.00000  0.0
    164    149    150    165   5     0.00000    30.33400     0.00000  0.0
    149    150    151    137   5     0.00000    30.33400     0.00000  0.0
    149    150    151    146   5     0.00000    30.33400     0.00000  0.0
    165    150    151    137   5     0.00000    30.33400     0.00000  0.0
    165    150    151    146   5     0.00000    30.33400     0.00000  0.0
    148    152    155    156   5     0.00000     3.76560     0.00000  0.0
    148    152    155    160   5     0.00000     3.76560     0.00000  0.0
    153    152    155    156   5     1.63176     1.00416     0.00000  0.0
    153    152    155    160   5     1.63176     1.00416     0.00000  0.0
    154    152    155    156   5     1.63176     1.00416     0.00000  0.0
    154    152    155    160   5     1.63176     1.00416     0.00000  0.0
    152    155    156    157   5     0.00000    30.33400     0.00000  0.0
    152    155    156    166   5     0.00000    30.33400     0.00000  0.0
    160    155    156    157   5     0.00000    30.33400     0.00000  0.0
    160    155    156    166   5     0.00000    30.33400     0.00000  0.0
    152    155    160    159   5     0.00000    30.33400     0.00000  0.0
    152    155    160    169   5     0.00000    30.33400     0.00000  0.0
    156    155    160    159   5     0.00000    30.33400     0.00000  0.0
    156    155    160    169   5     0.00000    30.33400     0.00000  0.0
    155    156    157    158   5     0.00000    30.33400     0.00000  0.0
    155    156    157    167   5     0.00000    30.33400     0.00000  0.0
    166    156    157    158   5     0.00000    30.33400     0.00000  0.0
    166    156    157    167   5     0.00000    30.33400     0.00000  0.0
    156    157    158    159   5     0.00000    30.33400     0.00000  0.0
    156    157    158    161   5     0.00000    30.33400     0.00000  0.0
    167    157    158    159   5     0.00000    30.33400     0.00000  0.0
    167    157    158    161   5     0.00000    30.33400     0.00000  0.0
    157    158    159    160   5     0.00000    30.33400     0.00000  0.0
    157    158    159    168   5     0.00000    30.33400     0.00000  0.0
    161    158    159    160   5     0.00000    30.33400     0.00000  0.0
    161    158    159    168   5     0.00000    30.33400     0.00000  0.0
    157    158    161    175   5     0.00000     3.94551     0.00000  0.0
    159    158    161    175   5     0.00000     3.94551     0.00000  0.0
    158    159    160    155   5     0.00000    30.33400     0.00000  0.0
    158    159    160    169   5     0.00000    30.33400     0.00000  0.0
    168    159    160    155   5     0.00000    30.33400     0.00000  0.0
    168    159    160    169   5     0.00000    30.33400     0.00000  0.0
    158    161    175    170   5     0.00000     3.94551     0.00000  0.0
    158    161    175    174   5     0.00000     3.94551     0.00000  0.0
    175    170    171    172   5     0.00000    30.33400     0.00000  0.0
    175    170    171    187   5     0.00000    30.33400     0.00000  0.0
    186    170    171    172   5     0.00000    30.33400     0.00000  0.0
    186    170    171    187   5     0.00000    30.33400     0.00000  0.0
    171    170    175    161   5     0.00000    30.33400     0.00000  0.0
    171    170    175    174   5     0.00000    30.33400     0.00000  0.0
    186    170    175    161   5     0.00000    30.33400     0.00000  0.0
    186    170    175    174   5     0.00000    30.33400     0.00000  0.0
    170    171    172    173   5     0.00000    30.33400     0.00000  0.0
    170    171    172    176   5     0.00000    30.33400     0.00000  0.0
    187    171    172    173   5     0.00000    30.33400     0.00000  0.0
    187    171    172    176   5     0.00000    30.33400     0.00000  0.0
    171    172    173    174   5     0.00000    30.33400     0.00000  0.0
    171    172    173    188   5     0.00000    30.33400     0.00000  0.0
    176    172    173    174   5     0.00000    30.33400     0.00000  0.0
    176    172    173    188   5     0.00000    30.33400     0.00000  0.0
    171    172    176    177   5     1.63176     1.00416     0.00000  0.0
    171    172    176    178   5     1.63176     1.00416     0.00000  0.0
    171    172    176    179   5     0.00000     3.76560     0.00000  0.0
    173    172    176    177   5     1.63176     1.00416     0.00000  0.0
    173    172    176    178   5     1.63176     1.00416     0.00000  0.0
    173    172    176    179   5     0.00000     3.76560     0.00000  0.0
    172    173    174    175   5     0.00000    30.33400     0.00000  0.0
    172    173    174    189   5     0.00000    30.33400     0.00000  0.0
    188    173    174    175   5     0.00000    30.33400     0.00000  0.0
    188    173    174    189   5     0.00000    30.33400     0.00000  0.0
    173    174    175    161   5     0.00000    30.33400     0.00000  0.0
    173    174    175    170   5     0.00000    30.33400     0.00000  0.0
    189    174    175    161   5     0.00000    30.33400     0.00000  0.0
    189    174    175    170   5     0.00000    30.33400     0.00000  0.0
    172    176    179    180   5     0.00000     3.76560     0.00000  0.0
    172    176    179    184   5     0.00000     3.76560     0.00000  0.0
    177    176    179    180   5     1.63176     1.00416     0.00000  0.0
    177    176    179    184   5     1.63176     1.00416     0.00000  0.0
    178    176    179    180   5     1.63176     1.00416     0.00000  0.0
    178    176    179    184   5     1.63176     1.00416     0.00000  0.0
    176    179    180    181   5     0.00000    30.33400     0.00000  0.0
    176    179    180    190   5     0.00000    30.33400     0.00000  0.0
    184    179    180    181   5     0.00000    30.33400     0.00000  0.0
    184    179    180    190   5     0.00000    30.33400     0.00000  0.0
    176    179    184    183   5     0.00000    30.33400     0.00000  0.0
    176    179    184    193   5     0.00000    30.33400     0.00000  0.0
    180    179    184    183   5     0.00000    30.33400     0.00000  0.0
    180    179    184    193   5     0.00000    30.33400     0.00000  0.0
    179    180    181    182   5     0.00000    30.33400     0.00000  0.0
    179    180    181    191   5     0.00000    30.33400     0.00000  0.0
    190    180    181    182   5     0.00000    30.33400     0.00000  0.0
    190    180    181    191   5     0.00000    30.33400     0.00000  0.0
    180    181    182    183   5     0.00000    30.33400     0.00000  0.0
    180    181    182    185   5     0.00000    30.33400     0.00000  0.0
    191    181    182    183   5     0.00000    30.33400     0.00000  0.0
    191    181    182    185   5     0.00000    30.33400     0.00000  0.0
    181    182    183    184   5     0.00000    30.33400     0.00000  0.0
    181    182    183    192   5     0.00000    30.33400     0.00000  0.0
    185    182    183    184   5     0.00000    30.33400     0.00000  0.0
    185    182    183    192   5     0.00000    30.33400     0.00000  0.0
    181    182    185    199   5     0.00000     3.94551     0.00000  0.0
    183    182    185    199   5     0.00000     3.94551     0.00000  0.0
    182    183    184    179   5     0.00000    30.33400     0.00000  0.0
    182    183    184    193   5     0.00000    30.33400     0.00000  0.0
    192    183    184    179   5     0.00000    30.33400     0.00000  0.0
    192    183    184    193   5     0.00000    30.33400     0.00000  0.0
    182    185    199    194   5     0.00000     3.94551     0.00000  0.0
    182    185    199    198   5     0.00000     3.94551     0.00000  0.0
    199    194    195    196   5     0.00000    30.33400     0.00000  0.0
    199    194    195    211   5     0.00000    30.33400     0.00000  0.0
    210    194    195    196   5     0.00000    30.33400     0.00000  0.0
    210    194    195    211   5     0.00000    30.33400     0.00000  0.0
    195    194    199    185   5     0.00000    30.33400     0.00000  0.0
    195    194    199    198   5     0.00000    30.33400     0.00000  0.0
    210    194    199    185   5     0.00000    30.33400     0.00000  0.0
    210    194    199    198   5     0.00000    30.33400     0.00000  0.0
    194    195    196    197   5     0.00000    30.33400     0.00000  0.0
    194    195    196    200   5     0.00000    30.33400     0.00000  0.0
    211    195    196    197   5     0.00000    30.33400     0.00000  0.0
    211    195    196    200   5     0.00000    30.33400     0.00000  0.0
    195    196    197    198   5     0.00000    30.33400     0.00000  0.0
    195    196    197    212   5     0.00000    30.33400     0.00000  0.0
    200    196    197    198   5     0.00000    30.33400     0.00000  0.0
    200    196    197    212   5     0.00000    30.33400     0.00000  0.0
    195    196    200    201   5     1.63176     1.00416     0.00000  0.0
    195    196    200    202   5     1.63176     1.00416     0.00000  0.0
    195    196    200    203   5     0.00000     3.76560     0.00000  0.0
    197    196    200    201   5     1.63176     1.00416     0.00000  0.0
    197    196    200    202   5     1.63176     1.00416     0.00000  0.0
    197    196    200    203   5     0.00000     3.76560     0.00000  0.0
    196    197    198    199   5     0.00000    30.33400     0.00000  0.0
    196    197    198    213   5     0.00000    30.33400     0.00000  0.0
    212    197    198    199   5     0.00000    30.33400     0.00000  0.0
    212    197    198    213   5     0.00000    30.33400     0.00000  0.0
    197    198    199    185   5     0.00000    30.33400     0.00000  0.0
    197    198    199    194   5     0.00000    30.33400     0.00000  0.0
    213    198    199    185   5     0.00000    30.33400     0.00000  0.0
    213    198    199    194   5     0.00000    30.33400     0.00000  0.0
    196    200    203    204   5     0.00000     3.76560     0.00000  0.0
    196    200    203    208   5     0.00000     3.76560     0.00000  0.0
    201    200    203    204   5     1.63176     1.00416     0.00000  0.0
    201    200    203    208   5     1.63176     1.00416     0.00000  0.0
    202    200    203    204   5     1.63176     1.00416     0.00000  0.0
    202    200    203    208   5     1.63176     1.00416     0.00000  0.0
    200    203    204    205   5     0.00000    30.33400     0.00000  0.0
    200    203    204    214   5     0.00000    30.33400     0.00000  0.0
    208    203    204    205   5     0.00000    30.33400     0.00000  0.0
    208    203    204    214   5     0.00000    30.33400     0.00000  0.0
    200    203    208    207   5     0.00000    30.33400     0.00000  0.0
    200    203    208    217   5     0.00000    30.33400     0.00000  0.0
    204    203    208    207   5     0.00000    30.33400     0.00000  0.0
    204    203    208    217   5     0.00000    30.33400     0.00000  0.0
    203    204    205    206   5     0.00000    30.33400     0.00000  0.0
    203    204    205    215   5     0.00000    30.33400     0.00000  0.0
    214    204    205    206   5     0.00000    30.33400     0.00000  0.0
    214    204    205    215   5     0.00000    30.33400     0.00000  0.0
    204    205    206    207   5     0.00000    30.33400     0.00000  0.0
    204    205    206    209   5     0.00000    30.33400     0.00000  0.0
    215    205    206    207   5     0.00000    30.33400     0.00000  0.0
    215    205    206    209   5     0.00000    30.33400     0.00000  0.0
    205    206    207    208   5     0.00000    30.33400     0.00000  0.0
    205    206    207    216   5     0.00000    30.33400     0.00000  0.0
    209    206    207    208   5     0.00000    30.33400     0.00000  0.0
    209    206    207    216   5     0.00000    30.33400     0.00000  0.0
    205    206    209    223   5     0.00000     3.94551     0.00000  0.0
    207    206    209    223   5     0.00000     3.94551     0.00000  0.0
    206    207    208    203   5     0.00000    30.33400     0.00000  0.0
    206    207    208    217   5     0.00000    30.33400     0.00000  0.0
    216    207    208    203   5     0.00000    30.33400     0.00000  0.0
    216    207    208    217   5     0.00000    30.33400     0.00000  0.0
    206    209    223    218   5     0.00000     3.94551     0.00000  0.0
    206    209    223    222   5     0.00000     3.94551     0.00000  0.0
    223    218    219    220   5     0.00000    30.33400     0.00000  0.0
    223    218    219    235   5     0.00000    30.33400     0.00000  0.0
    234    218    219    220   5     0.00000    30.33400     0.00000  0.0
    234    218    219    235   5     0.00000    30.33400     0.00000  0.0
    219    218    223    209   5     0.00000    30.33400     0.00000  0.0
    219    218    223    222   5     0.00000    30.33400     0.00000  0.0
    234    218    223    209   5     0.00000    30.33400     0.00000  0.0
    234    218    223    222   5     0.00000    30.33400     0.00000  0.0
    218    219    220    221   5     0.00000    30.33400     0.00000  0.0
    218    219    220    224   5     0.00000    30.33400     0.00000  0.0
    235    219    220    221   5     0.00000    30.33400     0.00000  0.0
    235    219    220    224   5     0.00000    30.33400     0.00000  0.0
    219    220    221    222   5     0.00000    30.33400     0.00000  0.0
    219    220    221    236   5     0.00000    30.33400     0.00000  0.0
    224    220    221    222   5     0.00000    30.33400     0.00000  0.0
    224    220    221    236   5     0.00000    30.33400     0.00000  0.0
    219    220    224    225   5     1.63176     1.00416     0.00000  0.0
    219    220    224    226   5     1.63176     1.00416     0.00000  0.0
    219    220    224    227   5     0.00000     3.76560     0.00000  0.0
    221    220    224    225   5     1.63176     1.00416     0.00000  0.0
    221    220    224    226   5     1.63176     1.00416     0.00000  0.0
    221    220    224    227   5     0.00000     3.76560     0.00000  0.0
    220    221    222    223   5     0.00000    30.33400     0.00000  0.0
    220    221    222    237   5     0.00000    30.33400     0.00000  0.0
    236    221    222    223   5     0.00000    30.33400     0.00000  0.0
    236    221    222    237   5     0.00000    30.33400     0.00000  0.0
    221    222    223    209   5     0.00000    30.33400     0.00000  0.0
    221    222    223    218   5     0.00000    30.33400     0.00000  0.0
    237    222    223    209   5     0.00000    30.33400     0.00000  0.0
    237    222    223    218   5     0.00000    30.33400     0.00000  0.0
    220    224    227    228   5     0.00000     3.76560     0.00000  0.0
    220    224    227    232   5     0.00000     3.76560     0.00000  0.0
    225    224    227    228   5     1.63176     1.00416     0.00000  0.0
    225    224    227    232   5     1.63176     1.00416     0.00000  0.0
    226    224    227    228   5     1.63176     1.00416     0.00000  0.0
    226    224    227    232   5     1.63176     1.00416     0.00000  0.0
    224    227    228    229   5     0.00000    30.33400     0.00000  0.0
    224    227    228    238   5     0.00000    30.33400     0.00000  0.0
    232    227    228    229   5     0.00000    30.33400     0.00000  0.0
    232    227    228    238   5     0.00000    30.33400     0.00000  0.0
    224    227    232    231   5     0.00000    30.33400     0.00000  0.0
    224    227    232    241   5     0.00000    30.33400     0.00000  0.0
    228    227    232    231   5     0.00000    30.33400     0.00000  0.0
    228    227    232    241   5     0.00000    30.33400     0.00000  0.0
    227    228    229    230   5     0.00000    30.33400     0.00000  0.0
    227    228    229    239   5     0.00000    30.33400     0.00000  0.0
    238    228    229    230   5     0.00000    30.33400     0.00000  0.0
    238    228    229    239   5     0.00000    30.33400     0.00000  0.0
    228    229    230    231   5     0.00000    30.33400     0.00000  0.0
    228    229    230    233   5     0.00000    30.33400     0.00000  0.0
    239    229    230    231   5     0.00000    30.33400     0.00000  0.0
    239    229    230    233   5     0.00000    30.33400     0.00000  0.0
    229    230    231    232   5     0.00000    30.33400     0.00000  0.0
    229    230    231    240   5     0.00000    30.33400     0.00000  0.0
    233    230    231    232   5     0.00000    30.33400     0.00000  0.0
    233    230    231    240   5     0.00000    30.33400     0.00000  0.0
    229    230    233    247   5     0.00000     3.94551     0.00000  0.0
    231    230    233    247   5     0.00000     3.94551     0.00000  0.0
    230    231    232    227   5     0.00000    30.33400     0.00000  0.0
    230    231    232    241   5     0.00000    30.33400     0.00000  0.0
    240    231    232    227   5     0.00000    30.33400     0.00000  0.0
    240    231    232    241   5     0.00000    30.33400     0.00000  0.0
    230    233    247    242   5     0.00000     3.94551     0.00000  0.0
    230    233    247    246   5     0.00000     3.94551     0.00000  0.0
    247    242    243    244   5     0.00000    30.33400     0.00000  0.0
    247    242    243    259   5     0.00000    30.33400     0.00000  0.0
    258    242    243    244   5     0.00000    30.33400     0.00000  0.0
    258    242    243    259   5     0.00000    30.33400     0.00000  0.0
    243    242    247    233   5     0.00000    30.33400     0.00000  0.0
    243    242    247    246   5     0.00000    30.33400     0.00000  0.0
    258    242    247    233   5     0.00000    30.33400     0.00000  0.0
    258    242    247    246   5     0.00000    30.33400     0.00000  0.0
    242    243    244    245   5     0.00000    30.33400     0.00000  0.0
    242    243    244    248   5     0.00000    30.33400     0.00000  0.0
    259    243    244    245   5     0.00000    30.33400     0.00000  0.0
    259    243    244    248   5     0.00000    30.33400     0.00000  0.0
    243    244    245    246   5     0.00000    30.33400     0.00000  0.0
    243    244    245    260   5     0.00000    30.33400     0.00000  0.0
    248    244    245    246   5     0.00000    30.33400     0.00000  0.0
    248    244    245    260   5     0.00000    30.33400     0.00000  0.0
    243    244    248    249   5     1.63176     1.00416     0.00000  0.0
    243    244    248    250   5     1.63176     1.00416     0.00000  0.0
    243    244    248    251   5     0.00000     3.76560     0.00000  0.0
    245    244    248    249   5     1.63176     1.00416     0.00000  0.0
    245    244    248    250   5     1.63176     1.00416     0.00000  0.0
    245    244    248    251   5     0.00000     3.76560     0.00000  0.0
    244    245    246    247   5     0.00000    30.33400     0.00000  0.0
    244    245    246    261   5     0.00000    30.33400     0.00000  0.0
    260    245    246    247   5     0.00000    30.33400     0.00000  0.0
    260    245    246    261   5     0.00000    30.33400     0.00000  0.0
    245    246    247    233   5     0.00000    30.33400     0.00000  0.0
    245    246    247    242   5     0.00000    30.33400     0.00000  0.0
    261    246    247    233   5     0.00000    30.33400     0.00000  0.0
    261    246    247    242   5     0.00000    30.33400     0.00000  0.0
    244    248    251    252   5     0.00000     3.76560     0.00000  0.0
    244    248    251    256   5     0.00000     3.76560     0.00000  0.0
    249    248    251    252   5     1.63176     1.00416     0.00000  0.0
    249    248    251    256   5     1.63176     1.00416     0.00000  0.0
    250    248    251    252   5     1.63176     1.00416     0.00000  0.0
    250    248    251    256   5     1.63176     1.00416     0.00000  0.0
    248    251    252    253   5     0.00000    30.33400     0.00000  0.0
    248    251    252    262   5     0.00000    30.33400     0.00000  0.0
    256    251    252    253   5     0.00000    30.33400     0.00000  0.0
    256    251    252    262   5     0.00000    30.33400     0.00000  0.0
    248    251    256    255   5     0.00000    30.33400     0.00000  0.0
    248    251    256    265   5     0.00000    30.33400     0.00000  0.0
    252    251    256    255   5     0.00000    30.33400     0.00000  0.0
    252    251    256    265   5     0.00000    30.33400     0.00000  0.0
    251    252    253    254   5     0.00000    30.33400     0.00000  0.0
    251    252    253    263   5     0.00000    30.33400     0.00000  0.0
    262    252    253    254   5     0.00000    30.33400     0.00000  0.0
    262    252    253    263   5     0.00000    30.33400     0.00000  0.0
    252    253    254    255   5     0.00000    30.33400     0.00000  0.0
    252    253    254    257   5     0.00000    30.33400     0.00000  0.0
    263    253    254    255   5     0.00000    30.33400     0.00000  0.0
    263    253    254    257   5     0.00000    30.33400     0.00000  0.0
    253    254    255    256   5     0.00000    30.33400     0.00000  0.0
    253    254    255    264   5     0.00000    30.33400     0.00000  0.0
    257    254    255    256   5     0.00000    30.33400     0.00000  0.0
    257    254    255    264   5     0.00000    30.33400     0.00000  0.0
    253    254    257    271   5     0.00000     3.94551     0.00000  0.0
    255    254    257    271   5     0.00000     3.94551     0.00000  0.0
    254    255    256    251   5     0.00000    30.33400     0.00000  0.0
    254    255    256    265   5     0.00000    30.33400     0.00000  0.0
    264    255    256    251   5     0.00000    30.33400     0.00000  0.0
    264    255    256    265   5     0.00000    30.33400     0.00000  0.0
    254    257    271    266   5     0.00000     3.94551     0.00000  0.0
    254    257    271    270   5     0.00000     3.94551     0.00000  0.0
    271    266    267    268   5     0.00000    30.33400     0.00000  0.0
    271    266    267    283   5     0.00000    30.33400     0.00000  0.0
    282    266    267    268   5     0.00000    30.33400     0.00000  0.0
    282    266    267    283   5     0.00000    30.33400     0.00000  0.0
    267    266    271    257   5     0.00000    30.33400     0.00000  0.0
    267    266    271    270   5     0.00000    30.33400     0.00000  0.0
    282    266    271    257   5     0.00000    30.33400     0.00000  0.0
    282    266    271    270   5     0.00000    30.33400     0.00000  0.0
    266    267    268    269   5     0.00000    30.33400     0.00000  0.0
    266    267    268    272   5     0.00000    30.33400     0.00000  0.0
    283    267    268    269   5     0.00000    30.33400     0.00000  0.0
    283    267    268    272   5     0.00000    30.33400     0.00000  0.0
    267    268    269    270   5     0.00000    30.33400     0.00000  0.0
    267    268    269    284   5     0.00000    30.33400     0.00000  0.0
    272    268    269    270   5     0.00000    30.33400     0.00000  0.0
    272    268    269    284   5     0.00000    30.33400     0.00000  0.0
    267    268    272    273   5     1.63176     1.00416     0.00000  0.0
    267    268    272    274   5     1.63176     1.00416     0.00000  0.0
    267    268    272    275   5     0.00000     3.76560     0.00000  0.0
    269    268    272    273   5     1.63176     1.00416     0.00000  0.0
    269    268    272    274   5     1.63176     1.00416     0.00000  0.0
    269    268    272    275   5     0.00000     3.76560     0.00000  0.0
    268    269    270    271   5     0.00000    30.33400     0.00000  0.0
    268    269    270    285   5     0.00000    30.33400     0.00000  0.0
    284    269    270    271   5     0.00000    30.33400     0.00000  0.0
    284    269    270    285   5     0.00000    30.33400     0.00000  0.0
    269    270    271    257   5     0.00000    30.33400     0.00000  0.0
    269    270    271    266   5     0.00000    30.33400     0.00000  0.0
    285    270    271    257   5     0.00000    30.33400     0.00000  0.0
    285    270    271    266   5     0.00000    30.33400     0.00000  0.0
    268    272    275    276   5     0.00000     3.76560     0.00000  0.0
    268    272    275    280   5     0.00000     3.76560     0.00000  0.0
    273    272    275    276   5     1.63176     1.00416     0.00000  0.0
    273    272    275    280   5     1.63176     1.00416     0.00000  0.0
    274    272    275    276   5     1.63176     1.00416     0.00000  0.0
    274    272    275    280   5     1.63176     1.00416     0.00000  0.0
    272    275    276    277   5     0.00000    30.33400     0.00000  0.0
    272    275    276    286   5     0.00000    30.33400     0.00000  0.0
    280    275    276    277   5     0.00000    30.33400     0.00000  0.0
    280    275    276    286   5     0.00000    30.33400     0.00000  0.0
    272    275    280    279   5     0.00000    30.33400     0.00000  0.0
    272    275    280    289   5     0.00000    30.33400     0.00000  0.0
    276    275    280    279   5     0.00000    30.33400     0.00000  0.0
    276    275    280    289   5     0.00000    30.33400     0.00000  0.0
    275    276    277    278   5     0.00000    30.33400     0.00000  0.0
    275    276    277    287   5     0.00000    30.33400     0.00000  0.0
    286    276    277    278   5     0.00000    30.33400     0.00000  0.0
    286    276    277    287   5     0.00000    30.33400     0.00000  0.0
    276    277    278    279   5     0.00000    30.33400     0.00000  0.0
    276    277    278    281   5     0.00000    30.33400     0.00000  0.0
    287    277    278    279   5     0.00000    30.33400     0.00000  0.0
    287    277    278    281   5     0.00000    30.33400     0.00000  0.0
    277    278    279    280   5     0.00000    30.33400     0.00000  0.0
    277    278    279    288   5     0.00000    30.33400     0.00000  0.0
    281    278    279    280   5     0.00000    30.33400     0.00000  0.0
    281    278    279    288   5     0.00000    30.33400     0.00000  0.0
    277    278    281    295   5     0.00000     3.94551     0.00000  0.0
    279    278    281    295   5     0.00000     3.94551     0.00000  0.0
    278    279    280    275   5     0.00000    30.33400     0.00000  0.0
    278    279    280    289   5     0.00000    30.33400     0.00000  0.0
    288    279    280    275   5     0.00000    30.33400     0.00000  0.0
    288    279    280    289   5     0.00000    30.33400     0.00000  0.0
    278    281    295    290   5     0.00000     3.94551     0.00000  0.0
    278    281    295    294   5     0.00000     3.94551     0.00000  0.0
    295    290    291    292   5     0.00000    30.33400     0.00000  0.0
    295    290    291    307   5     0.00000    30.33400     0.00000  0.0
    306    290    291    292   5     0.00000    30.33400     0.00000  0.0
    306    290    291    307   5     0.00000    30.33400     0.00000  0.0
    291    290    295    281   5     0.00000    30.33400     0.00000  0.0
    291    290    295    294   5     0.00000    30.33400     0.00000  0.0
    306    290    295    281   5     0.00000    30.33400     0.00000  0.0
    306    290    295    294   5     0.00000    30.33400     0.00000  0.0
    290    291    292    293   5     0.00000    30.33400     0.00000  0.0
    290    291    292    296   5     0.00000    30.33400     0.00000  0.0
    307    291    292    293   5     0.00000    30.33400     0.00000  0.0
    307    291    292    296   5     0.00000    30.33400     0.00000  0.0
    291    292    293    294   5     0.00000    30.33400     0.00000  0.0
    291    292    293    308   5     0.00000    30.33400     0.00000  0.0
    296    292    293    294   5     0.00000    30.33400     0.00000  0.0
    296    292    293    308   5     0.00000    30.33400     0.00000  0.0
    291    292    296    297   5     1.63176     1.00416     0.00000  0.0
    291    292    296    298   5     1.63176     1.00416     0.00000  0.0
    291    292    296    299   5     0.00000     3.76560     0.00000  0.0
    293    292    296    297   5     1.63176     1.00416     0.00000  0.0
    293    292    296    298   5     1.63176     1.00416     0.00000  0.0
    293    292    296    299   5     0.00000     3.76560     0.00000  0.0
    292    293    294    295   5     0.00000    30.33400     0.00000  0.0
    292    293    294    309   5     0.00000    30.33400     0.00000  0.0
    308    293    294    295   5     0.00000    30.33400     0.00000  0.0
    308    293    294    309   5     0.00000    30.33400     0.00000  0.0
    293    294    295    281   5     0.00000    30.33400     0.00000  0.0
    293    294    295    290   5     0.00000    30.33400     0.00000  0.0
    309    294    295    281   5     0.00000    30.33400     0.00000  0.0
    309    294    295    290   5     0.00000    30.33400     0.00000  0.0
    292    296    299    300   5     0.00000     3.76560     0.00000  0.0
    292    296    299    304   5     0.00000     3.76560     0.00000  0.0
    297    296    299    300   5     1.63176     1.00416     0.00000  0.0
    297    296    299    304   5     1.63176     1.00416     0.00000  0.0
    298    296    299    300   5     1.63176     1.00416     0.00000  0.0
    298    296    299    304   5     1.63176     1.00416     0.00000  0.0
    296    299    300    301   5     0.00000    30.33400     0.00000  0.0
    296    299    300    310   5     0.00000    30.33400     0.00000  0.0
    304    299    300    301   5     0.00000    30.33400     0.00000  0.0
    304    299    300    310   5     0.00000    30.33400     0.00000  0.0
    296    299    304    303   5     0.00000    30.33400     0.00000  0.0
    296    299    304    313   5     0.00000    30.33400     0.00000  0.0
    300    299    304    303   5     0.00000    30.33400     0.00000  0.0
    300    299    304    313   5     0.00000    30.33400     0.00000  0.0
    299    300    301    302   5     0.00000    30.33400     0.00000  0.0
    299    300    301    311   5     0.00000    30.33400     0.00000  0.0
    310    300    301    302   5     0.00000    30.33400     0.00000  0.0
    310    300    301    311   5     0.00000    30.33400     0.00000  0.0
    300    301    302    303   5     0.00000    30.33400     0.00000  0.0
    300    301    302    305   5     0.00000    30.33400     0.00000  0.0
    311    301    302    303   5     0.00000    30.33400     0.00000  0.0
    311    301    302    305   5     0.00000    30.33400     0.00000  0.0
    301    302    303    304   5     0.00000    30.33400     0.00000  0.0
    301    302    303    312   5     0.00000    30.33400     0.00000  0.0
    305    302    303    304   5     0.00000    30.33400     0.00000  0.0
    305    302    303    312   5     0.00000    30.33400     0.00000  0.0
    301    302    305    319   5     0.00000     3.94551     0.00000  0.0
    303    302    305    319   5     0.00000     3.94551     0.00000  0.0
    302    303    304    299   5     0.00000    30.33400     0.00000  0.0
    302    303    304    313   5     0.00000    30.33400     0.00000  0.0
    312    303    304    299   5     0.00000    30.33400     0.00000  0.0
    312    303    304    313   5     0.00000    30.33400     0.00000  0.0
    302    305    319    314   5     0.00000     3.94551     0.00000  0.0
    302    305    319    318   5     0.00000     3.94551     0.00000  0.0
    319    314    315    316   5     0.00000    30.33400     0.00000  0.0
    319    314    315    331   5     0.00000    30.33400     0.00000  0.0
    330    314    315    316   5     0.00000    30.33400     0.00000  0.0
    330    314    315    331   5     0.00000    30.33400     0.00000  0.0
    315    314    319    305   5     0.00000    30.33400     0.00000  0.0
    315    314    319    318   5     0.00000    30.33400     0.00000  0.0
    330    314    319    305   5     0.00000    30.33400     0.00000  0.0
    330    314    319    318   5     0.00000    30.33400     0.00000  0.0
    314    315    316    317   5     0.00000    30.33400     0.00000  0.0
    314    315    316    320   5     0.00000    30.33400     0.00000  0.0
    331    315    316    317   5     0.00000    30.33400     0.00000  0.0
    331    315    316    320   5     0.00000    30.33400     0.00000  0.0
    315    316    317    318   5     0.00000    30.33400     0.00000  0.0
    315    316    317    332   5     0.00000    30.33400     0.00000  0.0
    320    316    317    318   5     0.00000    30.33400     0.00000  0.0
    320    316    317    332   5     0.00000    30.33400     0.00000  0.0
    315    316    320    321   5     1.63176     1.00416     0.00000  0.0
    315    316    320    322   5     1.63176     1.00416     0.00000  0.0
    315    316    320    323   5     0.00000     3.76560     0.00000  0.0
    317    316    320    321   5     1.63176     1.00416     0.00000  0.0
    317    316    320    322   5     1.63176     1.00416     0.00000  0.0
    317    316    320    323   5     0.00000     3.76560     0.00000  0.0
    316    317    318    319   5     0.00000    30.33400     0.00000  0.0
    316    317    318    333   5     0.00000    30.33400     0.00000  0.0
    332    317    318    319   5     0.00000    30.33400     0.00000  0.0
    332    317    318    333   5     0.00000    30.33400     0.00000  0.0
    317    318    319    305   5     0.00000    30.33400     0.00000  0.0
    317    318    319    314   5     0.00000    30.33400     0.00000  0.0
    333    318    319    305   5     0.00000    30.33400     0.00000  0.0
    333    318    319    314   5     0.00000    30.33400     0.00000  0.0
    316    320    323    324   5     0.00000     3.76560     0.00000  0.0
    316    320    323    328   5     0.00000     3.76560     0.00000  0.0
    321    320    323    324   5     1.63176     1.00416     0.00000  0.0
    321    320    323    328   5     1.63176     1.00416     0.00000  0.0
    322    320    323    324   5     1.63176     1.00416     0.00000  0.0
    322    320    323    328   5     1.63176     1.00416     0.00000  0.0
    320    323    324    325   5     0.00000    30.33400     0.00000  0.0
    320    323    324    334   5     0.00000    30.33400     0.00000  0.0
    328    323    324    325   5     0.00000    30.33400     0.00000  0.0
    328    323    324    334   5     0.00000    30.33400     0.00000  0.0
    320    323    328    327   5     0.00000    30.33400     0.00000  0.0
    320    323    328    337   5     0.00000    30.33400     0.00000  0.0
    324    323    328    327   5     0.00000    30.33400     0.00000  0.0
    324    323    328    337   5     0.00000    30.33400     0.00000  0.0
    323    324    325    326   5     0.00000    30.33400     0.00000  0.0
    323    324    325    335   5     0.00000    30.33400     0.00000  0.0
    334    324    325    326   5     0.00000    30.33400     0.00000  0.0
    334    324    325    335   5     0.00000    30.33400     0.00000  0.0
    324    325    326    327   5     0.00000    30.33400     0.00000  0.0
    324    325    326    329   5     0.00000    30.33400     0.00000  0.0
    335    325    326    327   5     0.00000    30.33400     0.00000  0.0
    335    325    326    329   5     0.00000    30.33400     0.00000  0.0
    325    326    327    328   5     0.00000    30.33400     0.00000  0.0
    325    326    327    336   5     0.00000    30.33400     0.00000  0.0
    329    326    327    328   5     0.00000    30.33400     0.00000  0.0
    329    326    327    336   5     0.00000    30.33400     0.00000  0.0
    325    326    329    343   5     0.00000     3.94551     0.00000  0.0
    327    326    329    343   5     0.00000     3.94551     0.00000  0.0
    326    327    328    323   5     0.00000    30.33400     0.00000  0.0
    326    327    328    337   5     0.00000    30.33400     0.00000  0.0
    336    327    328    323   5     0.00000    30.33400     0.00000  0.0
    336    327    328    337   5     0.00000    30.33400     0.00000  0.0
    326    329    343    338   5     0.00000     3.94551     0.00000  0.0
    326    329    343    342   5     0.00000     3.94551     0.00000  0.0
    343    338    339    340   5     0.00000    30.33400     0.00000  0.0
    343    338    339    355   5     0.00000    30.33400     0.00000  0.0
    354    338    339    340   5     0.00000    30.33400     0.00000  0.0
    354    338    339    355   5     0.00000    30.33400     0.00000  0.0
    339    338    343    329   5     0.00000    30.33400     0.00000  0.0
    339    338    343    342   5     0.00000    30.33400     0.00000  0.0
    354    338    343    329   5     0.00000    30.33400     0.00000  0.0
    354    338    343    342   5     0.00000    30.33400     0.00000  0.0
    338    339    340    341   5     0.00000    30.33400     0.00000  0.0
    338    339    340    344   5     0.00000    30.33400     0.00000  0.0
    355    339    340    341   5     0.00000    30.33400     0.00000  0.0
    355    339    340    344   5     0.00000    30.33400     0.00000  0.0
    339    340    341    342   5     0.00000    30.33400     0.00000  0.0
    339    340    341    356   5     0.00000    30.33400     0.00000  0.0
    344    340    341    342   5     0.00000    30.33400     0.00000  0.0
    344    340    341    356   5     0.00000    30.33400     0.00000  0.0
    339    340    344    345   5     1.63176     1.00416     0.00000  0.0
    339    340    344    346   5     1.63176     1.00416     0.00000  0.0
    339    340    344    347   5     0.00000     3.76560     0.00000  0.0
    341    340    344    345   5     1.63176     1.00416     0.00000  0.0
    341    340    344    346   5     1.63176     1.00416     0.00000  0.0
    341    340    344    347   5     0.00000     3.76560     0.00000  0.0
    340    341    342    343   5     0.00000    30.33400     0.00000  0.0
    340    341    342    357   5     0.00000    30.33400     0.00000  0.0
    356    341    342    343   5     0.00000    30.33400     0.00000  0.0
    356    341    342    357   5     0.00000    30.33400     0.00000  0.0
    341    342    343    329   5     0.00000    30.33400     0.00000  0.0
    341    342    343    338   5     0.00000    30.33400     0.00000  0.0
    357    342    343    329   5     0.00000    30.33400     0.00000  0.0
    357    342    343    338   5     0.00000    30.33400     0.00000  0.0
    340    344    347    348   5     0.00000     3.76560     0.00000  0.0
    340    344    347    352   5     0.00000     3.76560     0.00000  0.0
    345    344    347    348   5     1.63176     1.00416     0.00000  0.0
    345    344    347    352   5     1.63176     1.00416     0.00000  0.0
    346    344    347    348   5     1.63176     1.00416     0.00000  0.0
    346    344    347    352   5     1.63176     1.00416     0.00000  0.0
    344    347    348    349   5     0.00000    30.33400     0.00000  0.0
    344    347    348    358   5     0.00000    30.33400     0.00000  0.0
    352    347    348    349   5     0.00000    30.33400     0.00000  0.0
    352    347    348    358   5     0.00000    30.33400     0.00000  0.0
    344    347    352    351   5     0.00000    30.33400     0.00000  0.0
    344    347    352    361   5     0.00000    30.33400     0.00000  0.0
    348    347    352    351   5     0.00000    30.33400     0.00000  0.0
    348    347    352    361   5     0.00000    30.33400     0.00000  0.0
    347    348    349    350   5     0.00000    30.33400     0.00000  0.0
    347    348    349    359   5     0.00000    30.33400     0.00000  0.0
    358    348    349    350   5     0.00000    30.33400     0.00000  0.0
    358    348    349    359   5     0.00000    30.33400     0.00000  0.0
    348    349    350    351   5     0.00000    30.33400     0.00000  0.0
    348    349    350    353   5     0.00000    30.33400     0.00000  0.0
    359    349    350    351   5     0.00000    30.33400     0.00000  0.0
    359    349    350    353   5     0.00000    30.33400     0.00000  0.0
    349    350    351    352   5     0.00000    30.33400     0.00000  0.0
    349    350    351    360   5     0.00000    30.33400     0.00000  0.0
    353    350    351    352   5     0.00000    30.33400     0.00000  0.0
    353    350    351    360   5     0.00000    30.33400     0.00000  0.0
    349    350    353    367   5     0.00000     3.94551     0.00000  0.0
    351    350    353    367   5     0.00000     3.94551     0.00000  0.0
    350    351    352    347   5     0.00000    30.33400     0.00000  0.0
    350    351    352    361   5     0.00000    30.33400     0.00000  0.0
    360    351    352    347   5     0.00000    30.33400     0.00000  0.0
    360    351    352    361   5     0.00000    30.33400     0.00000  0.0
    350    353    367    362   5     0.00000     3.94551     0.00000  0.0
    350    353    367    366   5     0.00000     3.94551     0.00000  0.0
    367    362    363    364   5     0.00000    30.33400     0.00000  0.0
    367    362    363    379   5     0.00000    30.33400     0.00000  0.0
    378    362    363    364   5     0.00000    30.33400     0.00000  0.0
    378    362    363    379   5     0.00000    30.33400     0.00000  0.0
    363    362    367    353   5     0.00000    30.33400     0.00000  0.0
    363    362    367    366   5     0.00000    30.33400     0.00000  0.0
    378    362    367    353   5     0.00000    30.33400     0.00000  0.0
    378    362    367    366   5     0.00000    30.33400     0.00000  0.0
    362    363    364    365   5     0.00000    30.33400     0.00000  0.0
    362    363    364    368   5     0.00000    30.33400     0.00000  0.0
    379    363    364    365   5     0.00000    30.33400     0.00000  0.0
    379    363    364    368   5     0.00000    30.33400     0.00000  0.0
    363    364    365    366   5     0.00000    30.33400     0.00000  0.0
    363    364    365    380   5     0.00000    30.33400     0.00000  0.0
    368    364    365    366   5     0.00000    30.33400     0.00000  0.0
    368    364    365    380   5     0.00000    30.33400     0.00000  0.0
    363    364    368    369   5     1.63176     1.00416     0.00000  0.0
    363    364    368    370   5     1.63176     1.00416     0.00000  0.0
    363    364    368    371   5     0.00000     3.76560     0.00000  0.0
    365    364    368    369   5     1.63176     1.00416     0.00000  0.0
    365    364    368    370   5     1.63176     1.00416     0.00000  0.0
    365    364    368    371   5     0.00000     3.76560     0.00000  0.0
    364    365    366    367   5     0.00000    30.33400     0.00000  0.0
    364    365    366    381   5     0.00000    30.33400     0.00000  0.0
    380    365    366    367   5     0.00000    30.33400     0.00000  0.0
    380    365    366    381   5     0.00000    30.33400     0.00000  0.0
    365    366    367    353   5     0.00000    30.33400     0.00000  0.0
    365    366    367    362   5     0.00000    30.33400     0.00000  0.0
    381    366    367    353   5     0.00000    30.33400     0.00000  0.0
    381    366    367    362   5     0.00000    30.33400     0.00000  0.0
    364    368    371    372   5     0.00000     3.76560     0.00000  0.0
    364    368    371    376   5     0.00000     3.76560     0.00000  0.0
    369    368    371    372   5     1.63176     1.00416     0.00000  0.0
    369    368    371    376   5     1.63176     1.00416     0.00000  0.0
    370    368    371    372   5     1.63176     1.00416     0.00000  0.0
    370    368    371    376   5     1.63176     1.00416     0.00000  0.0
    368    371    372    373   5     0.00000    30.33400     0.00000  0.0
    368    371    372    382   5     0.00000    30.33400     0.00000  0.0
    376    371    372    373   5     0.00000    30.33400     0.00000  0.0
    376    371    372    382   5     0.00000    30.33400     0.00000  0.0
    368    371    376    375   5     0.00000    30.33400     0.00000  0.0
    368    371    376    385   5     0.00000    30.33400     0.00000  0.0
    372    371    376    375   5     0.00000    30.33400     0.00000  0.0
    372    371    376    385   5     0.00000    30.33400     0.00000  0.0
    371    372    373    374   5     0.00000    30.33400     0.00000  0.0
    371    372    373    383   5     0.00000    30.33400     0.00000  0.0
    382    372    373    374   5     0.00000    30.33400     0.00000  0.0
    382    372    373    383   5     0.00000    30.33400     0.00000  0.0
    372    373    374    375   5     0.00000    30.33400     0.00000  0.0
    372    373    374    377   5     0.00000    30.33400     0.00000  0.0
    383    373    374    375   5     0.00000    30.33400     0.00000  0.0
    383    373    374    377   5     0.00000    30.33400     0.00000  0.0
    373    374    375    376   5     0.00000    30.33400     0.00000  0.0
    373    374    375    384   5     0.00000    30.33400     0.00000  0.0
    377    374    375    376   5     0.00000    30.33400     0.00000  0.0
    377    374    375    384   5     0.00000    30.33400     0.00000  0.0
    373    374    377    391   5     0.00000     3.94551     0.00000  0.0
    375    374    377    391   5     0.00000     3.94551     0.00000  0.0
    374    375    376    371   5     0.00000    30.33400     0.00000  0.0
    374    375    376    385   5     0.00000    30.33400     0.00000  0.0
    384    375    376    371   5     0.00000    30.33400     0.00000  0.0
    384    375    376    385   5     0.00000    30.33400     0.00000  0.0
    374    377    391    386   5     0.00000     3.94551     0.00000  0.0
    374    377    391    390   5     0.00000     3.94551     0.00000  0.0
    391    386    387    388   5     0.00000    30.33400     0.00000  0.0
    391    386    387    403   5     0.00000    30.33400     0.00000  0.0
    402    386    387    388   5     0.00000    30.33400     0.00000  0.0
    402    386    387    403   5     0.00000    30.33400     0.00000  0.0
    387    386    391    377   5     0.00000    30.33400     0.00000  0.0
    387    386    391    390   5     0.00000    30.33400     0.00000  0.0
    402    386    391    377   5     0.00000    30.33400     0.00000  0.0
    402    386    391    390   5     0.00000    30.33400     0.00000  0.0
    386    387    388    389   5     0.00000    30.33400     0.00000  0.0
    386    387    388    392   5     0.00000    30.33400     0.00000  0.0
    403    387    388    389   5     0.00000    30.33400     0.00000  0.0
    403    387    388    392   5     0.00000    30.33400     0.00000  0.0
    387    388    389    390   5     0.00000    30.33400     0.00000  0.0
    387    388    389    404   5     0.00000    30.33400     0.00000  0.0
    392    388    389    390   5     0.00000    30.33400     0.00000  0.0
    392    388    389    404   5     0.00000    30.33400     0.00000  0.0
    387    388    392    393   5     1.63176     1.00416     0.00000  0.0
    387    388    392    394   5     1.63176     1.00416     0.00000  0.0
    387    388    392    395   5     0.00000     3.76560     0.00000  0.0
    389    388    392    393   5     1.63176     1.00416     0.00000  0.0
    389    388    392    394   5     1.63176     1.00416     0.00000  0.0
    389    388    392    395   5     0.00000     3.76560     0.00000  0.0
    388    389    390    391   5     0.00000    30.33400     0.00000  0.0
    388    389    390    405   5     0.00000    30.33400     0.00000  0.0
    404    389    390    391   5     0.00000    30.33400     0.00000  0.0
    404    389    390    405   5     0.00000    30.33400     0.00000  0.0
    389    390    391    377   5     0.00000    30.33400     0.00000  0.0
    389    390    391    386   5     0.00000    30.33400     0.00000  0.0
    405    390    391    377   5     0.00000    30.33400     0.00000  0.0
    405    390    391    386   5     0.00000    30.33400     0.00000  0.0
    388    392    395    396   5     0.00000     3.76560     0.00000  0.0
    388    392    395    400   5     0.00000     3.76560     0.00000  0.0
    393    392    395    396   5     1.63176     1.00416     0.00000  0.0
    393    392    395    400   5     1.63176     1.00416     0.00000  0.0
    394    392    395    396   5     1.63176     1.00416     0.00000  0.0
    394    392    395    400   5     1.63176     1.00416     0.00000  0.0
    392    395    396    397   5     0.00000    30.33400     0.00000  0.0
    392    395    396    406   5     0.00000    30.33400     0.00000  0.0
    400    395    396    397   5     0.00000    30.33400     0.00000  0.0
    400    395    396    406   5     0.00000    30.33400     0.00000  0.0
    392    395    400    399   5     0.00000    30.33400     0.00000  0.0
    392    395    400    409   5     0.00000    30.33400     0.00000  0.0
    396    395    400    399   5     0.00000    30.33400     0.00000  0.0
    396    395    400    409   5     0.00000    30.33400     0.00000  0.0
    395    396    397    398   5     0.00000    30.33400     0.00000  0.0
    395    396    397    407   5     0.00000    30.33400     0.00000  0.0
    406    396    397    398   5     0.00000    30.33400     0.00000  0.0
    406    396    397    407   5     0.00000    30.33400     0.00000  0.0
    396    397    398    399   5     0.00000    30.33400     0.00000  0.0
    396    397    398    401   5     0.00000    30.33400     0.00000  0.0
    407    397    398    399   5     0.00000    30.33400     0.00000  0.0
    407    397    398    401   5     0.00000    30.33400     0.00000  0.0
    397    398    399    400   5     0.00000    30.33400     0.00000  0.0
    397    398    399    408   5     0.00000    30.33400     0.00000  0.0
    401    398    399    400   5     0.00000    30.33400     0.00000  0.0
    401    398    399    408   5     0.00000    30.33400     0.00000  0.0
    397    398    401    415   5     0.00000     3.94551     0.00000  0.0
    399    398    401    415   5     0.00000     3.94551     0.00000  0.0
    398    399    400    395   5     0.00000    30.33400     0.00000  0.0
    398    399    400    409   5     0.00000    30.33400     0.00000  0.0
    408    399    400    395   5     0.00000    30.33400     0.00000  0.0
    408    399    400    409   5     0.00000    30.33400     0.00000  0.0
    398    401    415    410   5     0.00000     3.94551     0.00000  0.0
    398    401    415    414   5     0.00000     3.94551     0.00000  0.0
    415    410    411    412   5     0.00000    30.33400     0.00000  0.0
    415    410    411    427   5     0.00000    30.33400     0.00000  0.0
    426    410    411    412   5     0.00000    30.33400     0.00000  0.0
    426    410    411    427   5     0.00000    30.33400     0.00000  0.0
    411    410    415    401   5     0.00000    30.33400     0.00000  0.0
    411    410    415    414   5     0.00000    30.33400     0.00000  0.0
    426    410    415    401   5     0.00000    30.33400     0.00000  0.0
    426    410    415    414   5     0.00000    30.33400     0.00000  0.0
    410    411    412    413   5     0.00000    30.33400     0.00000  0.0
    410    411    412    416   5     0.00000    30.33400     0.00000  0.0
    427    411    412    413   5     0.00000    30.33400     0.00000  0.0
    427    411    412    416   5     0.00000    30.33400     0.00000  0.0
    411    412    413    414   5     0.00000    30.33400     0.00000  0.0
    411    412    413    428   5     0.00000    30.33400     0.00000  0.0
    416    412    413    414   5     0.00000    30.33400     0.00000  0.0
    416    412    413    428   5     0.00000    30.33400     0.00000  0.0
    411    412    416    417   5     1.63176     1.00416     0.00000  0.0
    411    412    416    418   5     1.63176     1.00416     0.00000  0.0
    411    412    416    419   5     0.00000     3.76560     0.00000  0.0
    413    412    416    417   5     1.63176     1.00416     0.00000  0.0
    413    412    416    418   5     1.63176     1.00416     0.00000  0.0
    413    412    416    419   5     0.00000     3.76560     0.00000  0.0
    412    413    414    415   5     0.00000    30.33400     0.00000  0.0
    412    413    414    429   5     0.00000    30.33400     0.00000  0.0
    428    413    414    415   5     0.00000    30.33400     0.00000  0.0
    428    413    414    429   5     0.00000    30.33400     0.00000  0.0
    413    414    415    401   5     0.00000    30.33400     0.00000  0.0
    413    414    415    410   5     0.00000    30.33400     0.00000  0.0
    429    414    415    401   5     0.00000    30.33400     0.00000  0.0
    429    414    415    410   5     0.00000    30.33400     0.00000  0.0
    412    416    419    420   5     0.00000     3.76560     0.00000  0.0
    412    416    419    424   5     0.00000     3.76560     0.00000  0.0
    417    416    419    420   5     1.63176     1.00416     0.00000  0.0
    417    416    419    424   5     1.63176     1.00416     0.00000  0.0
    418    416    419    420   5     1.63176     1.00416     0.00000  0.0
    418    416    419    424   5     1.63176     1.00416     0.00000  0.0
    416    419    420    421   5     0.00000    30.33400     0.00000  0.0
    416    419    420    430   5     0.00000    30.33400     0.00000  0.0
    424    419    420    421   5     0.00000    30.33400     0.00000  0.0
    424    419    420    430   5     0.00000    30.33400     0.00000  0.0
    416    419    424    423   5     0.00000    30.33400     0.00000  0.0
    416    419    424    433   5     0.00000    30.33400     0.00000  0.0
    420    419    424    423   5     0.00000    30.33400     0.00000  0.0
    420    419    424    433   5     0.00000    30.33400     0.00000  0.0
    419    420    421    422   5     0.00000    30.33400     0.00000  0.0
    419    420    421    431   5     0.00000    30.33400     0.00000  0.0
    430    420    421    422   5     0.00000    30.33400     0.00000  0.0
    430    420    421    431   5     0.00000    30.33400     0.00000  0.0
    420    421    422    423   5     0.00000    30.33400     0.00000  0.0
    420    421    422    425   5     0.00000    30.33400     0.00000  0.0
    431    421    422    423   5     0.00000    30.33400     0.00000  0.0
    431    421    422    425   5     0.00000    30.33400     0.00000  0.0
    421    422    423    424   5     0.00000    30.33400     0.00000  0.0
    421    422    423    432   5     0.00000    30.33400     0.00000  0.0
    425    422    423    424   5     0.00000    30.33400     0.00000  0.0
    425    422    423    432   5     0.00000    30.33400     0.00000  0.0
    421    422    425    439   5     0.00000     3.94551     0.00000  0.0
    423    422    425    439   5     0.00000     3.94551     0.00000  0.0
    422    423    424    419   5     0.00000    30.33400     0.00000  0.0
    422    423    424    433   5     0.00000    30.33400     0.00000  0.0
    432    423    424    419   5     0.00000    30.33400     0.00000  0.0
    432    423    424    433   5     0.00000    30.33400     0.00000  0.0
    422    425    439    434   5     0.00000     3.94551     0.00000  0.0
    422    425    439    438   5     0.00000     3.94551     0.00000  0.0
    439    434    435    436   5     0.00000    30.33400     0.00000  0.0
    439    434    435    451   5     0.00000    30.33400     0.00000  0.0
    450    434    435    436   5     0.00000    30.33400     0.00000  0.0
    450    434    435    451   5     0.00000    30.33400     0.00000  0.0
    435    434    439    425   5     0.00000    30.33400     0.00000  0.0
    435    434    439    438   5     0.00000    30.33400     0.00000  0.0
    450    434    439    425   5     0.00000    30.33400     0.00000  0.0
    450    434    439    438   5     0.00000    30.33400     0.00000  0.0
    434    435    436    437   5     0.00000    30.33400     0.00000  0.0
    434    435    436    440   5     0.00000    30.33400     0.00000  0.0
    451    435    436    437   5     0.00000    30.33400     0.00000  0.0
    451    435    436    440   5     0.00000    30.33400     0.00000  0.0
    435    436    437    438   5     0.00000    30.33400     0.00000  0.0
    435    436    437    452   5     0.00000    30.33400     0.00000  0.0
    440    436    437    438   5     0.00000    30.33400     0.00000  0.0
    440    436    437    452   5     0.00000    30.33400     0.00000  0.0
    435    436    440    441   5     1.63176     1.00416     0.00000  0.0
    435    436    440    442   5     1.63176     1.00416     0.00000  0.0
    435    436    440    443   5     0.00000     3.76560     0.00000  0.0
    437    436    440    441   5     1.63176     1.00416     0.00000  0.0
    437    436    440    442   5     1.63176     1.00416     0.00000  0.0
    437    436    440    443   5     0.00000     3.76560     0.00000  0.0
    436    437    438    439   5     0.00000    30.33400     0.00000  0.0
    436    437    438    453   5     0.00000    30.33400     0.00000  0.0
    452    437    438    439   5     0.00000    30.33400     0.00000  0.0
    452    437    438    453   5     0.00000    30.33400     0.00000  0.0
    437    438    439    425   5     0.00000    30.33400     0.00000  0.0
    437    438    439    434   5     0.00000    30.33400     0.00000  0.0
    453    438    439    425   5     0.00000    30.33400     0.00000  0.0
    453    438    439    434   5     0.00000    30.33400     0.00000  0.0
    436    440    443    444   5     0.00000     3.76560     0.00000  0.0
    436    440    443    448   5     0.00000     3.76560     0.00000  0.0
    441    440    443    444   5     1.63176     1.00416     0.00000  0.0
    441    440    443    448   5     1.63176     1.00416     0.00000  0.0
    442    440    443    444   5     1.63176     1.00416     0.00000  0.0
    442    440    443    448   5     1.63176     1.00416     0.00000  0.0
    440    443    444    445   5     0.00000    30.33400     0.00000  0.0
    440    443    444    454   5     0.00000    30.33400     0.00000  0.0
    448    443    444    445   5     0.00000    30.33400     0.00000  0.0
    448    443    444    454   5     0.00000    30.33400     0.00000  0.0
    440    443    448    447   5     0.00000    30.33400     0.00000  0.0
    440    443    448    457   5     0.00000    30.33400     0.00000  0.0
    444    443    448    447   5     0.00000    30.33400     0.00000  0.0
    444    443    448    457   5     0.00000    30.33400     0.00000  0.0
    443    444    445    446   5     0.00000    30.33400     0.00000  0.0
    443    444    445    455   5     0.00000    30.33400     0.00000  0.0
    454    444    445    446   5     0.00000    30.33400     0.00000  0.0
    454    444    445    455   5     0.00000    30.33400     0.00000  0.0
    444    445    446    447   5     0.00000    30.33400     0.00000  0.0
    444    445    446    449   5     0.00000    30.33400     0.00000  0.0
    455    445    446    447   5     0.00000    30.33400     0.00000  0.0
    455    445    446    449   5     0.00000    30.33400     0.00000  0.0
    445    446    447    448   5     0.00000    30.33400     0.00000  0.0
    445    446    447    456   5     0.00000    30.33400     0.00000  0.0
    449    446    447    448   5     0.00000    30.33400     0.00000  0.0
    449    446    447    456   5     0.00000    30.33400     0.00000  0.0
    445    446    449    463   5     0.00000     3.94551     0.00000  0.0
    447    446    449    463   5     0.00000     3.94551     0.00000  0.0
    446    447    448    443   5     0.00000    30.33400     0.00000  0.0
    446    447    448    457   5     0.00000    30.33400     0.00000  0.0
    456    447    448    443   5     0.00000    30.33400     0.00000  0.0
    456    447    448    457   5     0.00000    30.33400     0.00000  0.0
    446    449    463    458   5     0.00000     3.94551     0.00000  0.0
    446    449    463    462   5     0.00000     3.94551     0.00000  0.0
    463    458    459    460   5     0.00000    30.33400     0.00000  0.0
    463    458    459    475   5     0.00000    30.33400     0.00000  0.0
    474    458    459    460   5     0.00000    30.33400     0.00000  0.0
    474    458    459    475   5     0.00000    30.33400     0.00000  0.0
    459    458    463    449   5     0.00000    30.33400     0.00000  0.0
    459    458    463    462   5     0.00000    30.33400     0.00000  0.0
    474    458    463    449   5     0.00000    30.33400     0.00000  0.0
    474    458    463    462   5     0.00000    30.33400     0.00000  0.0
    458    459    460    461   5     0.00000    30.33400     0.00000  0.0
    458    459    460    464   5     0.00000    30.33400     0.00000  0.0
    475    459    460    461   5     0.00000    30.33400     0.00000  0.0
    475    459    460    464   5     0.00000    30.33400     0.00000  0.0
    459    460    461    462   5     0.00000    30.33400     0.00000  0.0
    459    460    461    476   5     0.00000    30.33400     0.00000  0.0
    464    460    461    462   5     0.00000    30.33400     0.00000  0.0
    464    460    461    476   5     0.00000    30.33400     0.00000  0.0
    459    460    464    465   5     1.63176     1.00416     0.00000  0.0
    459    460    464    466   5     1.63176     1.00416     0.00000  0.0
    459    460    464    467   5     0.00000     3.76560     0.00000  0.0
    461    460    464    465   5     1.63176     1.00416     0.00000  0.0
    461    460    464    466   5     1.63176     1.00416     0.00000  0.0
    461    460    464    467   5     0.00000     3.76560     0.00000  0.0
    460    461    462    463   5     0.00000    30.33400     0.00000  0.0
    460    461    462    477   5     0.00000    30.33400     0.00000  0.0
    476    461    462    463   5     0.00000    30.33400     0.00000  0.0
    476    461    462    477   5     0.00000    30.33400     0.00000  0.0
    461    462    463    449   5     0.00000    30.33400     0.00000  0.0
    461    462    463    458   5     0.00000    30.33400     0.00000  0.0
    477    462    463    449   5     0.00000    30.33400     0.00000  0.0
    477    462    463    458   5     0.00000    30.33400     0.00000  0.0
    460    464    467    468   5     0.00000     3.76560     0.00000  0.0
    460    464    467    472   5     0.00000     3.76560     0.00000  0.0
    465    464    467    468   5     1.63176     1.00416     0.00000  0.0
    465    464    467    472   5     1.63176     1.00416     0.00000  0.0
    466    464    467    468   5     1.63176     1.00416     0.00000  0.0
    466    464    467    472   5     1.63176     1.00416     0.00000  0.0
    464    467    468    469   5     0.00000    30.33400     0.00000  0.0
    464    467    468    478   5     0.00000    30.33400     0.00000  0.0
    472    467    468    469   5     0.00000    30.33400     0.00000  0.0
    472    467    468    478   5     0.00000    30.33400     0.00000  0.0
    464    467    472    471   5     0.00000    30.33400     0.00000  0.0
    464    467    472    481   5     0.00000    30.33400     0.00000  0.0
    468    467    472    471   5     0.00000    30.33400     0.00000  0.0
    468    467    472    481   5     0.00000    30.33400     0.00000  0.0
    467    468    469    470   5     0.00000    30.33400     0.00000  0.0
    467    468    469    479   5     0.00000    30.33400     0.00000  0.0
    478    468    469    470   5     0.00000    30.33400     0.00000  0.0
    478    468    469    479   5     0.00000    30.33400     0.00000  0.0
    468    469    470    471   5     0.00000    30.33400     0.00000  0.0
    468    469    470    473   5     0.00000    30.33400     0.00000  0.0
    479    469    470    471   5     0.00000    30.33400     0.00000  0.0
    479    469    470    473   5     0.00000    30.33400     0.00000  0.0
    469    470    471    472   5     0.00000    30.33400     0.00000  0.0
    469    470    471    480   5     0.00000    30.33400     0.00000  0.0
    473    470    471    472   5     0.00000    30.33400     0.00000  0.0
    473    470    471    480   5     0.00000    30.33400     0.00000  0.0
    469    470    473    482   5     0.00000     7.03749     0.00000  0.0
    471    470    473    482   5     0.00000     7.03749     0.00000  0.0
    470    471    472    467   5     0.00000    30.33400     0.00000  0.0
    470    471    472    481   5     0.00000    30.33400     0.00000  0.0
    480    471    472    467   5     0.00000    30.33400     0.00000  0.0
    480    471    472    481   5     0.00000    30.33400     0.00000  0.0

[ dihedrals ]
; Improper dihedrals
; h   i   j   k   funct
      2      6      1     17   5     0.00000     9.20480     0.00000  0.0
      1      3      2     18   5     0.00000     9.20480     0.00000  0.0
      2      4      3      7   5     0.00000    33.47200     0.00000  0.0
      3      5      4     19   5     0.00000     9.20480     0.00000  0.0
      4      6      5     20   5     0.00000     9.20480     0.00000  0.0
      1      5      6     25   5     0.00000     9.20480     0.00000  0.0
      7     11     10     15   5     0.00000    33.47200     0.00000  0.0
     10     12     11     21   5     0.00000     9.20480     0.00000  0.0
     11     13     12     22   5     0.00000     9.20480     0.00000  0.0
     12     14     13     16   5     0.00000    33.47200     0.00000  0.0
     13     15     14     23   5     0.00000     9.20480     0.00000  0.0
     10     14     15     24   5     0.00000     9.20480     0.00000  0.0
     27     31     26     42   5     0.00000     9.20480     0.00000  0.0
     26     28     27     43   5     0.00000     9.20480     0.00000  0.0
     27     29     28     32   5     0.00000    33.47200     0.00000  0.0
     28     30     29     44   5     0.00000     9.20480     0.00000  0.0
     29     31     30     45   5     0.00000     9.20480     0.00000  0.0
     16     26     31     30   5     0.00000    33.47200     0.00000  0.0
     32     36     35     40   5     0.00000    33.47200     0.00000  0.0
     35     37     36     46   5     0.00000     9.20480     0.00000  0.0
     36     38     37     47   5     0.00000     9.20480     0.00000  0.0
     37     39     38     41   5     0.00000    33.47200     0.00000  0.0
     38     40     39     48   5     0.00000     9.20480     0.00000  0.0
     35     39     40     49   5     0.00000     9.20480     0.00000  0.0
     51     55     50     66   5     0.00000     9.20480     0.00000  0.0
     50     52     51     67   5     0.00000     9.20480     0.00000  0.0
     51     53     52     56   5     0.00000    33.47200     0.00000  0.0
     52     54     53     68   5     0.00000     9.20480     0.00000  0.0
     53     55     54     69   5     0.00000     9.20480     0.00000  0.0
     41     50     55     54   5     0.00000    33.47200     0.00000  0.0
     56     60     59     64   5     0.00000    33.47200     0.00000  0.0
     59     61     60     70   5     0.00000     9.20480     0.00000  0.0
     60     62     61     71   5     0.00000     9.20480     0.00000  0.0
     61     63     62     65   5     0.00000    33.47200     0.00000  0.0
     62     64     63     72   5     0.00000     9.20480     0.00000  0.0
     59     63     64     73   5     0.00000     9.20480     0.00000  0.0
     75     79     74     90   5     0.00000     9.20480     0.00000  0.0
     74     76     75     91   5     0.00000     9.20480     0.00000  0.0
     75     77     76     80   5     0.00000    33.47200     0.00000  0.0
     76     78     77     92   5     0.00000     9.20480     0.00000  0.0
     77     79     78     93   5     0.00000     9.20480     0.00000  0.0
     65     74     79     78   5     0.00000    33.47200     0.00000  0.0
     80     84     83     88   5     0.00000    33.47200     0.00000  0.0
     83     85     84     94   5     0.00000     9.20480     0.00000  0.0
     84     86     85     95   5     0.00000     9.20480     0.00000  0.0
     85     87     86     89   5     0.00000    33.47200     0.00000  0.0
     86     88     87     96   5     0.00000     9.20480     0.00000  0.0
     83     87     88     97   5     0.00000     9.20480     0.00000  0.0
     99    103     98    114   5     0.00000     9.20480     0.00000  0.0
     98    100     99    115   5     0.00000     9.20480     0.00000  0.0
     99    101    100    104   5     0.00000    33.47200     0.00000  0.0
    100    102    101    116   5     0.00000     9.20480     0.00000  0.0
    101    103    102    117   5     0.00000     9.20480     0.00000  0.0
     89     98    103    102   5     0.00000    33.47200     0.00000  0.0
    104    108    107    112   5     0.00000    33.47200     0.00000  0.0
    107    109    108    118   5     0.00000     9.20480     0.00000  0.0
    108    110    109    119   5     0.00000     9.20480     0.00000  0.0
    109    111    110    113   5     0.00000    33.47200     0.00000  0.0
    110    112    111    120   5     0.00000     9.20480     0.00000  0.0
    107    111    112    121   5     0.00000     9.20480     0.00000  0.0
    123    127    122    138   5     0.00000     9.20480     0.00000  0.0
    122    124    123    139   5     0.00000     9.20480     0.00000  0.0
    123    125    124    128   5     0.00000    33.47200     0.00000  0.0
    124    126    125    140   5     0.00000     9.20480     0.00000  0.0
    125    127    126    141   5     0.00000     9.20480     0.00000  0.0
    113    122    127    126   5     0.00000    33.47200     0.00000  0.0
    128    132    131    136   5     0.00000    33.47200     0.00000  0.0
    131    133    132    142   5     0.00000     9.20480     0.00000  0.0
    132    134    133    143   5     0.00000     9.20480     0.00000  0.0
    133    135    134    137   5     0.00000    33.47200     0.00000  0.0
    134    136    135    144   5     0.00000     9.20480     0.00000  0.0
    131    135    136    145   5     0.00000     9.20480     0.00000  0.0
    147    151    146    162   5     0.00000     9.20480     0.00000  0.0
    146    148    147    163   5     0.00000     9.20480     0.00000  0.0
    147    149    148    152   5     0.00000    33.47200     0.00000  0.0
    148    150    149    164   5     0.00000     9.20480     0.00000  0.0
    149    151    150    165   5     0.00000     9.20480     0.00000  0.0
    137    146    151    150   5     0.00000    33.47200     0.00000  0.0
    152    156    155    160   5     0.00000    33.47200     0.00000  0.0
    155    157    156    166   5     0.00000     9.20480     0.00000  0.0
    156    158    157    167   5     0.00000     9.20480     0.00000  0.0
    157    159    158    161   5     0.00000    33.47200     0.00000  0.0
    158    160    159    168   5     0.00000     9.20480     0.00000  0.0
    155    159    160    169   5     0.00000     9.20480     0.00000  0.0
    171    175    170    186   5     0.00000     9.20480     0.00000  0.0
    170    172    171    187   5     0.00000     9.20480     0.00000  0.0
    171    173    172    176   5     0.00000    33.47200     0.00000  0.0
    172    174    173    188   5     0.00000     9.20480     0.00000  0.0
    173    175    174    189   5     0.00000     9.20480     0.00000  0.0
    161    170    175    174   5     0.00000    33.47200     0.00000  0.0
    176    180    179    184   5     0.00000    33.47200     0.00000  0.0
    179    181    180    190   5     0.00000     9.20480     0.00000  0.0
    180    182    181    191   5     0.00000     9.20480     0.00000  0.0
    181    183    182    185   5     0.00000    33.47200     0.00000  0.0
    182    184    183    192   5     0.00000     9.20480     0.00000  0.0
    179    183    184    193   5     0.00000     9.20480     0.00000  0.0
    195    199    194    210   5     0.00000     9.20480     0.00000  0.0
    194    196    195    211   5     0.00000     9.20480     0.00000  0.0
    195    197    196    200   5     0.00000    33.47200     0.00000  0.0
    196    198    197    212   5     0.00000     9.20480     0.00000  0.0
    197    199    198    213   5     0.00000     9.20480     0.00000  0.0
    185    194    199    198   5     0.00000    33.47200     0.00000  0.0
    200    204    203    208   5     0.00000    33.47200     0.00000  0.0
    203    205    204    214   5     0.00000     9.20480     0.00000  0.0
    204    206    205    215   5     0.00000     9.20480     0.00000  0.0
    205    207    206    209   5     0.00000    33.47200     0.00000  0.0
    206    208    207    216   5     0.00000     9.20480     0.00000  0.0
    203    207    208    217   5     0.00000     9.20480     0.00000  0.0
    219    223    218    234   5     0.00000     9.20480     0.00000  0.0
    218    220    219    235   5     0.00000     9.20480     0.00000  0.0
    219    221    220    224   5     0.00000    33.47200     0.00000  0.0
    220    222    221    236   5     0.00000     9.20480     0.00000  0.0
    221    223    222    237   5     0.00000     9.20480     0.00000  0.0
    209    218    223    222   5     0.00000    33.47200     0.00000  0.0
    224    228    227    232   5     0.00000    33.47200     0.00000  0.0
    227    229    228    238   5     0.00000     9.20480     0.00000  0.0
    228    230    229    239   5     0.00000     9.20480     0.00000  0.0
    229    231    230    233   5     0.00000    33.47200     0.00000  0.0
    230    232    231    240   5     0.00000     9.20480     0.00000  0.0
    227    231    232    241   5     0.00000     9.20480     0.00000  0.0
    243    247    242    258   5     0.00000     9.20480     0.00000  0.0
    242    244    243    259   5     0.00000     9.20480     0.00000  0.0
    243    245    244    248   5     0.00000    33.47200     0.00000  0.0
    244    246    245    260   5     0.00000     9.20480     0.00000  0.0
    245    247    246    261   5     0.00000     9.20480     0.00000  0.0
    233    242    247    246   5     0.00000    33.47200     0.00000  0.0
    248    252    251    256   5     0.00000    33.47200     0.00000  0.0
    251    253    252    262   5     0.00000     9.20480     0.00000  0.0
    252    254    253    263   5     0.00000     9.20480     0.00000  0.0
    253    255    254    257   5     0.00000    33.47200     0.00000  0.0
    254    256    255    264   5     0.00000     9.20480     0.00000  0.0
    251    255    256    265   5     0.00000     9.20480     0.00000  0.0
    267    271    266    282   5     0.00000     9.20480     0.00000  0.0
    266    268    267    283   5     0.00000     9.20480     0.00000  0.0
    267    269    268    272   5     0.00000    33.47200     0.00000  0.0
    268    270    269    284   5     0.00000     9.20480     0.00000  0.0
    269    271    270    285   5     0.00000     9.20480     0.00000  0.0
    257    266    271    270   5     0.00000    33.47200     0.00000  0.0
    272    276    275    280   5     0.00000    33.47200     0.00000  0.0
    275    277    276    286   5     0.00000     9.20480     0.00000  0.0
    276    278    277    287   5     0.00000     9.20480     0.00000  0.0
    277    279    278    281   5     0.00000    33.47200     0.00000  0.0
    278    280    279    288   5     0.00000     9.20480     0.00000  0.0
    275    279    280    289   5     0.00000     9.20480     0.00000  0.0
    291    295    290    306   5     0.00000     9.20480     0.00000  0.0
    290    292    291    307   5     0.00000     9.20480     0.00000  0.0
    291    293    292    296   5     0.00000    33.47200     0.00000  0.0
    292    294    293    308   5     0.00000     9.20480     0.00000  0.0
    293    295    294    309   5     0.00000     9.20480     0.00000  0.0
    281    290    295    294   5     0.00000    33.47200     0.00000  0.0
    296    300    299    304   5     0.00000    33.47200     0.00000  0.0
    299    301    300    310   5     0.00000     9.20480     0.00000  0.0
    300    302    301    311   5     0.00000     9.20480     0.00000  0.0
    301    303    302    305   5     0.00000    33.47200     0.00000  0.0
    302    304    303    312   5     0.00000     9.20480     0.00000  0.0
    299    303    304    313   5     0.00000     9.20480     0.00000  0.0
    315    319    314    330   5     0.00000     9.20480     0.00000  0.0
    314    316    315    331   5     0.00000     9.20480     0.00000  0.0
    315    317    316    320   5     0.00000    33.47200     0.00000  0.0
    316    318    317    332   5     0.00000     9.20480     0.00000  0.0
    317    319    318    333   5     0.00000     9.20480     0.00000  0.0
    305    314    319    318   5     0.00000    33.47200     0.00000  0.0
    320    324    323    328   5     0.00000    33.47200     0.00000  0.0
    323    325    324    334   5     0.00000     9.20480     0.00000  0.0
    324    326    325    335   5     0.00000     9.20480     0.00000  0.0
    325    327    326    329   5     0.00000    33.47200     0.00000  0.0
    326    328    327    336   5     0.00000     9.20480     0.00000  0.0
    323    327    328    337   5     0.00000     9.20480     0.00000  0.0
    339    343    338    354   5     0.00000     9.20480     0.00000  0.0
    338    340    339    355   5     0.00000     9.20480     0.00000  0.0
    339    341    340    344   5     0.00000    33.47200     0.00000  0.0
    340    342    341    356   5     0.00000     9.20480     0.00000  0.0
    341    343    342    357   5     0.00000     9.20480     0.00000  0.0
    329    338    343    342   5     0.00000    33.47200     0.00000  0.0
    344    348    347    352   5     0.00000    33.47200     0.00000  0.0
    347    349    348    358   5     0.00000     9.20480     0.00000  0.0
    348    350    349    359   5     0.00000     9.20480     0.00000  0.0
    349    351    350    353   5     0.00000    33.47200     0.00000  0.0
    350    352    351    360   5     0.00000     9.20480     0.00000  0.0
    347    351    352    361   5     0.00000     9.20480     0.00000  0.0
    363    367    362    378   5     0.00000     9.20480     0.00000  0.0
    362    364    363    379   5     0.00000     9.20480     0.00000  0.0
    363    365    364    368   5     0.00000    33.47200     0.00000  0.0
    364    366    365    380   5     0.00000     9.20480     0.00000  0.0
    365    367    366    381   5     0.00000     9.20480     0.00000  0.0
    353    362    367    366   5     0.00000    33.47200     0.00000  0.0
    368    372    371    376   5     0.00000    33.47200     0.00000  0.0
    371    373    372    382   5     0.00000     9.20480     0.00000  0.0
    372    374    373    383   5     0.00000     9.20480     0.00000  0.0
    373    375    374    377   5     0.00000    33.47200     0.00000  0.0
    374    376    375    384   5     0.00000     9.20480     0.00000  0.0
    371    375    376    385   5     0.00000     9.20480     0.00000  0.0
    387    391    386    402   5     0.00000     9.20480     0.00000  0.0
    386    388    387    403   5     0.00000     9.20480     0.00000  0.0
    387    389    388    392   5     0.00000    33.47200     0.00000  0.0
    388    390    389    404   5     0.00000     9.20480     0.00000  0.0
    389    391    390    405   5     0.00000     9.20480     0.00000  0.0
    377    386    391    390   5     0.00000    33.47200     0.00000  0.0
    392    396    395    400   5     0.00000    33.47200     0.00000  0.0
    395    397    396    406   5     0.00000     9.20480     0.00000  0.0
    396    398    397    407   5     0.00000     9.20480     0.00000  0.0
    397    399    398    401   5     0.00000    33.47200     0.00000  0.0
    398    400    399    408   5     0.00000     9.20480     0.00000  0.0
    395    399    400    409   5     0.00000     9.20480     0.00000  0.0
    411    415    410    426   5     0.00000     9.20480     0.00000  0.0
    410    412    411    427   5     0.00000     9.20480     0.00000  0.0
    411    413    412    416   5     0.00000    33.47200     0.00000  0.0
    412    414    413    428   5     0.00000     9.20480     0.00000  0.0
    413    415    414    429   5     0.00000     9.20480     0.00000  0.0
    401    410    415    414   5     0.00000    33.47200     0.00000  0.0
    416    420    419    424   5     0.00000    33.47200     0.00000  0.0
    419    421    420    430   5     0.00000     9.20480     0.00000  0.0
    420    422    421    431   5     0.00000     9.20480     0.00000  0.0
    421    423    422    425   5     0.00000    33.47200     0.00000  0.0
    422    424    423    432   5     0.00000     9.20480     0.00000  0.0
    419    423    424    433   5     0.00000     9.20480     0.00000  0.0
    435    439    434    450   5     0.00000     9.20480     0.00000  0.0
    434    436    435    451   5     0.00000     9.20480     0.00000  0.0
    435    437    436    440   5     0.00000    33.47200     0.00000  0.0
    436    438    437    452   5     0.00000     9.20480     0.00000  0.0
    437    439    438    453   5     0.00000     9.20480     0.00000  0.0
    425    434    439    438   5     0.00000    33.47200     0.00000  0.0
    440    444    443    448   5     0.00000    33.47200     0.00000  0.0
    443    445    444    454   5     0.00000     9.20480     0.00000  0.0
    444    446    445    455   5     0.00000     9.20480     0.00000  0.0
    445    447    446    449   5     0.00000    33.47200     0.00000  0.0
    446    448    447    456   5     0.00000     9.20480     0.00000  0.0
    443    447    448    457   5     0.00000     9.20480     0.00000  0.0
    459    463    458    474   5     0.00000     9.20480     0.00000  0.0
    458    460    459    475   5     0.00000     9.20480     0.00000  0.0
    459    461    460    464   5     0.00000    33.47200     0.00000  0.0
    460    462    461    476   5     0.00000     9.20480     0.00000  0.0
    461    463    462    477   5     0.00000     9.20480     0.00000  0.0
    449    458    463    462   5     0.00000    33.47200     0.00000  0.0
    464    468    467    472   5     0.00000    33.47200     0.00000  0.0
    467    469    468    478   5     0.00000     9.20480     0.00000  0.0
    468    470    469    479   5     0.00000     9.20480     0.00000  0.0
    469    471    470    473   5     0.00000    33.47200     0.00000  0.0
    470    472    471    480   5     0.00000     9.20480     0.00000  0.0
    467    471    472    481   5     0.00000     9.20480     0.00000  0.0
