Control file title. For DL_FIELD 4.10
49646
    1MOL     C1    1   2.308   0.132   5.491  0.0218  0.2262  0.0175
    1MOL     C2    2   2.171   0.129   5.511 -0.6995  0.1543  0.5189
    1MOL     C3    3   2.122   0.151   5.639 -0.0127 -0.2597 -0.4370
    1MOL     C4    4   2.208   0.176   5.749  0.0389  0.3250  0.1760
    1MOL     C5    5   2.346   0.191   5.722  0.0949  0.1606  0.7497
    1MOL     C6    6   2.395   0.177   5.593 -0.8385  0.0626 -0.1320
    1MOL     S7    7   1.951   0.186   5.658 -0.1792 -0.5754 -0.1841
    1MOL     O8    8   1.923   0.330   5.634  0.0463  0.0829 -0.1289
    1MOL     O9    9   1.911   0.137   5.789  0.0323  0.8265  0.1672
    1MOL    C10   10   1.869   0.075   5.535  0.7298  0.1672  0.1868
    1MOL    C11   11   1.814   0.128   5.413 -0.0138  0.4319  0.0643
    1MOL    C12   12   1.730   0.057   5.329 -0.6581 -0.4100  0.6769
    1MOL    C13   13   1.695   8.349   5.368 -0.4437 -0.2540 -0.0384
    1MOL    C14   14   1.759   8.288   5.482 -0.5800  0.0520  0.2812
    1MOL    C15   15   1.840   8.365   5.568 -0.9098 -0.5012 -0.2250
    1MOL    O16   16   1.626   8.261   5.286 -0.6453  0.0363 -0.0639
    1MOL    H17   17   2.352   0.120   5.393  0.1986 -0.2246  0.1519
    1MOL    H18   18   2.112   0.125   5.421  0.9980 -0.2238 -0.5838
    1MOL    H19   19   2.162   0.208   5.841 -1.9221  5.4308 -2.3959
    1MOL    H20   20   2.406   0.237   5.799 -1.2866  3.1236  0.1424
    1MOL    H21   21   1.831   0.234   5.402 -3.8336  1.1801  0.4909
    1MOL    H22   22   1.698   0.111   5.241  3.9252 -0.3113 -1.0806
    1MOL    H23   23   1.747   8.183   5.504  2.0221 -0.7590 -1.9769
    1MOL    H24   24   1.878   8.325   5.661 -1.9400 -3.0705 -0.8680
    1MOL    H25   25   2.501   0.187   5.576 -1.0843  0.0125 -1.7874
    1MOL    C26   26   1.414   8.213   5.381  0.5000 -0.1177 -0.3906
    1MOL    C27   27   1.279   8.234   5.386  0.1424 -0.1000 -0.0809
    1MOL    C28   28   1.218   8.329   5.308 -0.7170  0.0707 -0.3727
    1MOL    C29   29   1.297   8.406   5.215 -0.4617  0.3882 -0.5420
    1MOL    C30   30   1.437   8.370   5.203  0.2023 -0.5861  0.0742
    1MOL    C31   31   1.493   8.283   5.291 -0.4350 -0.9512  0.3072
    1MOL    S32   32   1.046   8.359   5.333 -0.3931 -0.0813  0.0069
    1MOL    O33   33   0.990   8.231   5.288  0.1798  0.1038 -0.4717
    1MOL    O34   34   1.020   0.059   5.257  0.0304  0.1158 -0.0606
    1MOL    C35   35   1.019   8.390   5.500 -0.4269 -0.7438 -0.1058
    1MOL    C36   36   0.932   8.304   5.572 -0.0424  1.2312 -0.0337
    1MOL    C37   37   0.902   8.336   5.703 -0.4644  0.0332  0.5275
    1MOL    C38   38   0.955   0.028   5.767  0.3117  0.7887  0.4792
    1MOL    C39   39   1.043   0.114   5.694  0.3922  0.1711  0.0176
    1MOL    C40   40   1.077   0.083   5.561  0.1206  0.3717 -0.3779
    1MOL    O41   41   0.923   0.060   5.898 -0.5790 -0.2960 -0.4645
    1MOL    H42   42   1.458   8.141   5.449  1.7375 -0.1525 -1.2060
    1MOL    H43   43   1.222   8.184   5.463  1.0879 -1.1495 -0.0426
    1MOL    H44   44   1.267   0.067   5.157 -0.7944  2.0954  2.0434
    1MOL    H45   45   1.500   8.421   5.131 -0.8555  0.0255 -0.4409
    1MOL    H46   46   0.887   8.215   5.532  0.9626  0.9934 -0.6525
    1MOL    H47   47   0.836   8.269   5.757  2.6450 -2.5055  1.2844
    1MOL    H48   48   1.080   0.207   5.734  1.4471 -0.4659  0.5305
    1MOL    H49   49   1.147   0.152   5.515  2.7689 -1.1221  1.2999
    1MOL    C50   50   0.807   0.259   5.960  0.5821 -0.5218 -0.6139
    1MOL    C51   51   0.802   0.380   6.028  1.3443 -0.1546 -0.6352
    1MOL    C52   52   0.908   0.420   6.114  0.2695 -0.0912 -0.1005
    1MOL    C53   53   1.029   0.348   6.100 -0.0730  0.1206  0.0624
    1MOL    C54   54   1.041   0.237   6.015  0.3764  0.7172  0.1976
    1MOL    C55   55   0.926   0.185   5.955  0.0604  0.0655 -0.4861
    1MOL    S56   56   0.900   0.558   6.229 -0.0897  0.2783  0.1686
    1MOL    O57   57   0.799   0.651   6.176  0.3168 -0.4324 -0.2900
    1MOL    O58   58   1.036   0.604   6.258 -0.6316  0.4727 -0.0270
    1MOL    C59   59   0.838   0.471   6.369  0.4536  0.6192 -0.0064
    1MOL    C60   60   0.700   0.460   6.386 -0.1375 -0.0636 -0.4768
    1MOL    C61   61   0.650   0.378   6.489  0.2820  0.1348  1.5529
    1MOL    C62   62   0.742   0.305   6.572  0.3962 -0.5245  0.1310
    1MOL    C63   63   0.885   0.306   6.544 -0.4168  0.5682 -0.0925
    1MOL    C64   64   0.926   0.391   6.442  0.0106  0.2992 -0.4036
    1MOL    O65   65   0.695   0.226   6.674  0.1012  0.4380  0.2611
    1MOL    H66   66   0.718   0.222   5.912  0.5512  0.0536 -0.9997
    1MOL    H67   67   0.705   0.426   6.032  0.1893 -2.5203 -0.9089
    1MOL    H68   68   1.108   0.377   6.168 -0.2278  0.0592  0.2718
    1MOL    H69   69   1.134   0.181   6.018 -0.4912 -0.6839  2.2264
    1MOL    H70   70   0.631   0.519   6.326  1.6462  2.4664 -0.1220
    1MOL    H71   71   0.542   0.372   6.500  0.0509 -1.6234 -1.1669
    1MOL    H72   72   0.965   0.258   6.597 -1.0377 -0.1716  0.1915
    1MOL    H73   73   1.029   0.379   6.413 -0.2423  0.0241 -1.1969
    1MOL    C74   74   0.763   0.389   6.842  0.3107 -0.4756 -0.7103
    1MOL    C75   75   0.804   0.421   6.974  0.1962  0.0633  0.2660
    1MOL    C76   76   0.819   0.316   7.069  0.1836  0.1075  0.1500
    1MOL    C77   77   0.800   0.179   7.029 -0.2110 -0.5915 -0.2843
    1MOL    C78   78   0.760   0.153   6.896 -0.2562 -0.6300  0.3286
    1MOL    C79   79   0.741   0.257   6.803 -0.4315 -0.3609 -0.5636
    1MOL    S80   80   0.871   0.365   7.235  0.1098  0.2102  0.4272
    1MOL    O81   81   0.756   0.329   7.319 -0.4797  0.3605  0.1465
    1MOL    O82   82   0.914   0.506   7.225 -0.1010 -0.6660  0.1993
    1MOL    C83   83   1.014   0.256   7.268 -0.2463 -0.1363 -0.2238
    1MOL    C84   84   1.123   0.277   7.186 -0.3737 -0.4810 -0.2853
    1MOL    C85   85   1.240   0.203   7.210  0.4292  0.2120  0.8062
    1MOL    C86   86   1.234   0.092   7.291  0.1979 -0.1631 -0.5015
    1MOL    C87   87   1.121   0.059   7.365  0.3120 -0.3248  0.2466
    1MOL    C88   88   1.006   0.150   7.354  0.1864  0.2382 -0.8373
    1MOL    O89   89   1.353   0.028   7.311  0.5115 -0.2188 -0.3721
    1MOL    H90   90   0.738   0.469   6.774 -0.7089 -0.4973 -0.3684
    1MOL    H91   91   0.823   0.523   7.003 -1.4004  0.5931 -0.5089
    1MOL    H92   92   0.817   0.103   7.104  0.2014 -0.1946  0.0316
    1MOL    H93   93   0.742   0.053   6.861 -0.4519  0.7614 -3.8704
    1MOL    H94   94   1.122   0.359   7.116  2.3661  0.0388  0.2331
    1MOL    H95   95   1.329   0.229   7.154 -0.9277 -1.3973 -2.2111
    1MOL    H96   96   1.131   8.402   7.435  1.0938 -1.4834 -1.2081
    1MOL    H97   97   0.923   0.123   7.417  1.5873  2.0174  1.8495
    1MOL    C98   98   1.520   8.368   7.174  0.2552  0.7435 -0.8224
    1MOL    C99   99   1.576   8.265   7.099  1.0807  0.1010  0.3979
    1MOL   C100  100   1.508   8.141   7.066 -0.1916  0.2433 -1.0671
    1MOL   C101  101   1.370   8.134   7.113  1.2582  0.4696 -0.0467
    1MOL   C102  102   1.314   8.233   7.193  0.8106 -0.0859 -0.0712
    1MOL   C103  103   1.392   8.353   7.219  0.1006  0.0174 -0.7076
    1MOL   S104  104   1.586   8.011   6.964 -0.2443  0.3888 -0.3292
    1MOL   O105  105   1.731   8.012   7.001  0.4163  0.7758  0.6376
    1MOL   O106  106   1.551   8.038   6.826  0.0199  0.7886 -0.6539
    1MOL   C107  107   1.520   7.857   7.013  0.1383  0.5421 -0.7758
    1MOL   C108  108   1.441   7.784   6.923 -0.5884 -0.5513  0.1686
    1MOL   C109  109   1.373   7.676   6.973 -0.2313 -0.0599 -0.0942
    1MOL   C110  110   1.393   7.628   7.106  0.8501  0.6702  0.5331
    1MOL   C111  111   1.475   7.697   7.194  0.4787 -0.0438  0.4201
    1MOL   C112  112   1.538   7.814   7.149 -0.0570 -0.7279 -0.2682
    1MOL   O113  113   1.322   7.517   7.138  0.2551  0.2703 -0.8901
    1MOL   H114  114   1.580   0.025   7.212  2.8027 -1.3757 -0.1253
    1MOL   H115  115   1.683   8.275   7.085  1.0379  1.4027  0.9106
    1MOL   H116  116   1.310   8.046   7.091  1.5886  0.2830 -0.2073
    1MOL   H117  117   1.215   8.219   7.235  0.8555 -0.6244 -0.1344
    1MOL   H118  118   1.419   7.811   6.821 -0.3263 -2.1467 -0.3220
    1MOL   H119  119   1.317   7.610   6.909 -0.4737  1.8529 -1.9192
    1MOL   H120  120   1.474   7.666   7.297  1.4488 -2.3889 -0.2533
    1MOL   H121  121   1.605   7.863   7.218 -0.9464 -0.2196  0.2368
    1MOL   C122  122   1.197   7.489   7.336  0.0882  0.2455  0.5214
    1MOL   C123  123   1.079   7.508   7.408 -0.0676  0.8594  0.2069
    1MOL   C124  124   0.974   7.581   7.356 -0.0258 -0.1773  0.1163
    1MOL   C125  125   0.979   7.628   7.225  0.6266  0.3230  0.1835
    1MOL   C126  126   1.095   7.601   7.147  0.3268 -0.3538 -0.7404
    1MOL   C127  127   1.206   7.535   7.205 -0.1695 -0.0341 -0.3369
    1MOL   S128  128   0.832   7.613   7.458  0.0026  0.2879 -0.3234
    1MOL   O129  129   0.874   7.632   7.599 -0.0274 -0.0607 -0.4071
    1MOL   O130  130   0.733   7.504   7.434 -0.0920 -0.0014  0.3299
    1MOL   C131  131   0.778   7.773   7.403  0.3704  0.3279 -1.0134
    1MOL   C132  132   0.679   7.787   7.310  0.1524 -1.2871  0.1016
    1MOL   C133  133   0.632   7.918   7.273  0.0260 -0.0699  0.3785
    1MOL   C134  134   0.679   8.031   7.335  0.6577 -0.1912  0.0737
    1MOL   C135  135   0.779   8.019   7.436  0.8612  0.4413 -0.3179
    1MOL   C136  136   0.833   7.890   7.461 -0.2509 -0.2340  0.1222
    1MOL   O137  137   0.624   8.156   7.307  0.0783  0.5929  0.2117
    1MOL   H138  138   1.280   7.441   7.385  1.5210  1.2794 -0.8468
    1MOL   H139  139   1.074   7.481   7.512  0.2274 -0.2877 -0.0696
    1MOL   H140  140   0.894   7.676   7.179 -0.2787 -0.7036  0.7605
    1MOL   H141  141   1.098   7.643   7.047  0.1937 -0.2488 -0.7005
    1MOL   H142  142   0.634   7.703   7.260 -2.8109 -0.3922  1.1901
    1MOL   H143  143   0.553   7.931   7.200 -0.6035 -2.1426  0.6483
    1MOL   H144  144   0.814   8.107   7.487  1.2358  1.3386 -2.0722
    1MOL   H145  145   0.907   7.878   7.539 -1.5780 -1.3339  1.2268
    1MOL   C146  146   0.418   8.266   7.255 -0.3471  0.4492 -0.2385
    1MOL   C147  147   0.285   8.297   7.292  0.0744  0.5064  0.3759
    1MOL   C148  148   0.213   8.227   7.396 -0.4921  0.0655  0.1680
    1MOL   C149  149   0.285   8.127   7.469  0.2023 -0.4546  0.3627
    1MOL   C150  150   0.422   8.106   7.435 -0.1492  0.1432 -0.3444
    1MOL   C151  151   0.488   8.174   7.328  0.0028  0.4817  0.4325
    1MOL   S152  152   0.046   8.275   7.439 -0.0508 -0.0815 -0.1025
    1MOL   O153  153   8.424   8.188   7.547 -0.6327 -0.1195  0.9385
    1MOL   O154  154   8.396   8.289   7.314  0.0669 -0.7073 -0.2816
    1MOL   C155  155   0.062   0.006   7.520 -0.1147  0.1497 -0.3433
    1MOL   C156  156   0.010   0.016   7.653  0.3189  0.8188 -0.5081
    1MOL   C157  157   0.024   0.130   7.729  0.2134 -0.2071 -0.5224
    1MOL   C158  158   0.108   0.234   7.681  0.4391 -0.1624  0.8871
    1MOL   C159  159   0.161   0.226   7.545  0.7064  0.5824  0.5972
    1MOL   C160  160   0.136   0.112   7.465  0.2203 -0.6122 -0.4451
    1MOL   O161  161   0.112   0.349   7.752  0.1685  0.4270 -0.4109
    1MOL   H162  162   0.467   8.314   7.172  0.6703  1.2351  0.8136
    1MOL   H163  163   0.241   8.378   7.236 -0.8960  0.0841  0.5103
    1MOL   H164  164   0.228   8.074   7.544  0.0049 -0.8372 -0.0593
    1MOL   H165  165   0.470   8.031   7.496  1.9612 -0.7882 -3.0160
    1MOL   H166  166   8.373   8.364   7.697 -0.8681  1.2659 -1.3939
    1MOL   H167  167   8.419   0.145   7.831  2.4332  1.2980 -0.0439
    1MOL   H168  168   0.227   0.304   7.510  1.2754 -1.9540 -4.4433
    1MOL   H169  169   0.183   0.113   7.368  3.2741  3.7113  0.9575
    1MOL   C170  170   0.334   0.441   7.760 -0.1216 -0.2092 -0.2031
    1MOL   C171  171   0.448   0.478   7.835 -0.6924  0.3881 -0.0992
    1MOL   C172  172   0.453   0.446   7.974 -0.0435  0.6065 -0.1569
    1MOL   C173  173   0.344   0.382   8.034  0.7641  0.1008  0.1999
    1MOL   C174  174   0.232   0.340   7.961  1.4271 -0.1285  0.2909
    1MOL   C175  175   0.226   0.377   7.822  0.1763  0.4597 -0.5905
    1MOL   S176  176   0.605   0.490   8.062 -0.4154 -0.1045  0.0969
    1MOL   O177  177   0.568   0.537   8.197  0.2635 -0.0018  0.1602
    1MOL   O178  178   0.701   0.570   7.980  0.3004 -0.3406  0.0929
    1MOL   C179  179   0.689   0.337   8.084  0.3151  0.2895  0.2357
    1MOL   C180  180   0.826   0.330   8.067 -0.0742  0.0565  0.7733
    1MOL   C181  181   0.901   0.212   8.082 -0.0168 -0.0298 -0.1760
    1MOL   C182  182   0.828   0.099   8.121 -0.0969 -0.5735 -0.0855
    1MOL   C183  183   0.696   0.113   8.163  0.2370 -0.3264 -0.6738
    1MOL   C184  184   0.619   0.228   8.145 -0.9166  0.2410  0.2348
    1MOL   O185  185   0.886   8.405   8.100  0.0164  0.0767 -0.0652
    1MOL   H186  186   0.334   0.461   7.654  1.2093 -1.2821 -0.4241
    1MOL   H187  187   0.534   0.525   7.789  0.1818 -0.0915  1.0235
    1MOL   H188  188   0.349   0.368   8.141  0.3370 -1.2763  0.0513
    1MOL   H189  189   0.143   0.295   8.002  0.1173 -0.3492 -2.6485
    1MOL   H190  190   0.883   0.419   8.045 -0.5958  0.1053 -0.3990
    1MOL   H191  191   1.008   0.225   8.073  0.0542 -0.0781  0.5471
    1MOL   H192  192   0.653   0.025   8.209  1.1572 -0.1059  0.6217
    1MOL   H193  193   0.514   0.228   8.171 -0.2176 -1.9477  3.3060
    1MOL   C194  194   0.790   8.217   8.222 -0.2147 -0.3142  0.5467
    1MOL   C195  195   0.798   8.115   8.314  0.0962 -0.4443 -0.0280
    1MOL   C196  196   0.920   8.093   8.386  0.0504 -0.3219  0.1289
    1MOL   C197  197   1.027   8.179   8.359 -0.1706 -0.0804 -0.5771
    1MOL   C198  198   1.017   8.287   8.265 -0.1695  0.5630  0.1182
    1MOL   C199  199   0.894   8.309   8.198  0.6466  0.2650  0.4994
    1MOL   S200  200   0.947   7.963   0.092 -0.1999 -0.2722  0.1967
    1MOL   O201  201   1.025   7.852   0.032 -0.4137  0.4282  0.1423
    1MOL   O202  202   0.811   7.940   0.144  0.4124 -0.0217  0.0786
    1MOL   C203  203   1.046   8.041   0.222  1.2754 -0.4438 -0.0558
    1MOL   C204  204   0.976   8.090   0.334  0.1588 -0.2284 -0.4288
    1MOL   C205  205   1.049   8.155   0.440 -0.0075 -0.5791 -0.5592
    1MOL   C206  206   1.193   8.151   0.436  0.4143 -0.6954 -0.2721
    1MOL   C207  207   1.258   8.110   0.318  0.8913  0.0157  0.5724
    1MOL   C208  208   1.185   8.065   0.208 -0.1264  0.0537  0.3574
    1MOL   O209  209   1.263   8.185   0.547 -0.0243  0.0264 -0.2111
    1MOL   H210  210   0.697   8.226   8.169 -0.9385 -0.5437  1.7583
    1MOL   H211  211   0.719   8.044   8.335  0.8793 -0.6705  2.2751
    1MOL   H212  212   1.125   8.153   8.397 -1.6593 -2.3547  1.8803
    1MOL   H213  213   1.106   8.338   8.232  0.4528 -0.2933  0.4745
    1MOL   H214  214   0.868   8.085   0.329  0.1933 -1.6383  0.1355
    1MOL   H215  215   0.993   8.207   0.517  1.2908  1.6453 -1.0574
    1MOL   H216  216   1.364   8.126   0.305  0.7098 -0.2522 -1.3280
    1MOL   H217  217   1.242   8.041   0.119  0.8939  0.8642  0.7839
    1MOL   C218  218   1.212   7.995   0.695  0.1649  0.2151  0.1148
    1MOL   C219  219   1.257   7.904   0.793  0.2871 -1.2701 -0.4460
    1MOL   C220  220   1.397   7.897   0.819  0.2780 -0.2024  0.4791
    1MOL   C221  221   1.493   7.976   0.749  0.3496  0.0894  0.8791
    1MOL   C222  222   1.443   8.075   0.657  0.2092  0.1292  0.3450
    1MOL   C223  223   1.308   8.081   0.627  0.3094  0.3972 -0.2272
    1MOL   S224  224   1.454   7.797   0.953 -0.2942  0.4142  0.1063
    1MOL   O225  225   1.505   7.669   0.903  0.3368  0.1843 -0.4608
    1MOL   O226  226   1.346   7.787   1.057 -0.4473  0.3569 -0.2146
    1MOL   C227  227   1.591   7.878   1.029 -0.6831  0.3924  0.5532
    1MOL   C228  228   1.568   7.976   1.128  0.0788 -0.2645 -0.2267
    1MOL   C229  229   1.678   8.036   1.196  0.3617  0.3140 -0.5750
    1MOL   C230  230   1.812   8.004   1.167  0.2247 -0.7425 -0.1617
    1MOL   C231  231   1.827   7.915   1.065 -0.1715 -0.4875  0.3081
    1MOL   C232  232   1.723   7.846   0.995  0.2054  0.3915  0.3858
    1MOL   O233  233   1.915   8.034   1.248  0.2284  0.1731 -0.4678
    1MOL   H234  234   1.106   8.008   0.674  0.4078  1.3985 -0.4013
    1MOL   H235  235   1.181   7.854   0.852  1.0188 -0.2003  1.4474
    1MOL   H236  236   1.596   7.983   0.780  0.4363 -0.1970  0.6497
    1MOL   H237  237   1.503   8.148   0.604  0.8111 -1.2698 -0.9077
    1MOL   H238  238   1.468   7.997   1.162 -0.8493 -2.1247 -1.7103
    1MOL   H239  239   1.653   8.095   1.282  0.0979 -0.3664 -0.1846
    1MOL   H240  240   1.925   7.880   1.037  0.1373  0.5862  0.0265
    1MOL   H241  241   1.732   7.774   0.914  2.9048  1.9560 -0.7399
    1MOL   C242  242   2.118   8.156   1.189 -0.6011 -0.4544 -0.1514
    1MOL   C243  243   2.198   8.271   1.190  0.2999 -0.2351  0.4240
    1MOL   C244  244   2.132   8.387   1.235  0.0740 -0.1506 -1.1013
    1MOL   C245  245   2.002   8.390   1.289 -0.5263 -0.2944  1.6780
    1MOL   C246  246   1.928   8.272   1.292 -0.2555  0.4731  0.7176
    1MOL   C247  247   1.987   8.151   1.237  0.9887  0.5867 -0.0204
    1MOL   S248  248   2.228   0.119   1.241 -0.1558 -0.3951 -0.0178
    1MOL   O249  249   2.352   0.085   1.169  0.2515 -0.0339  0.1412
    1MOL   O250  250   2.224   0.177   1.381 -0.3369  0.3073 -0.1482
    1MOL   C251  251   2.126   0.226   1.143 -0.2752 -0.2286 -0.3359
    1MOL   C252  252   2.131   0.224   1.001  0.4277 -0.0112 -0.0682
    1MOL   C253  253   2.050   0.306   0.919  0.1922  0.3535 -1.1789
    1MOL   C254  254   1.964   0.401   0.983 -0.3290 -0.0462 -0.1293
    1MOL   C255  255   1.960   0.408   1.128 -0.3594  0.4837 -0.1393
    1MOL   C256  256   2.043   0.322   1.206  0.8260  0.1512  0.6614
    1MOL   O257  257   1.873   0.474   0.914 -0.0522  0.0686  0.0634
    1MOL   H258  258   2.165   8.068   1.148 -2.3465 -0.8199 -1.4761
    1MOL   H259  259   2.300   8.276   1.155  0.8868  2.3916  2.2976
    1MOL   H260  260   1.962   0.053   1.339 -1.0715  0.9692 -0.9035
    1MOL   H261  261   1.835   8.264   1.347 -1.3015  1.1579 -0.9004
    1MOL   H262  262   2.187   0.142   0.958 -3.0590 -2.1507 -0.7821
    1MOL   H263  263   2.039   0.284   0.814 -2.0025  0.0415 -0.8886
    1MOL   H264  264   1.905   0.482   1.183  0.0236  1.4690 -1.0663
    1MOL   H265  265   2.029   0.330   1.313  0.6634 -3.2717  0.9524
    1MOL   C266  266   1.916   0.623   0.736  0.6419 -0.2191  0.5541
    1MOL   C267  267   1.953   0.748   0.687  0.0872  0.3432  0.2998
    1MOL   C268  268   1.974   0.857   0.780  0.8883 -0.3501  0.3489
    1MOL   C269  269   1.971   0.828   0.923  0.2108  0.5087 -0.1624
    1MOL   C270  270   1.940   0.700   0.967  0.4136  0.3994  0.3048
    1MOL   C271  271   1.908   0.598   0.874  0.1899 -0.1532 -0.0621
    1MOL   S272  272   2.019   1.023   0.725  0.4506  0.2925 -0.3084
    1MOL   O273  273   1.894   1.095   0.719 -0.2813  0.2509  0.2001
    1MOL   O274  274   2.105   1.005   0.611  0.0979 -0.1942  0.0730
    1MOL   C275  275   2.108   1.106   0.858  0.0902 -0.3594  0.6473
    1MOL   C276  276   2.036   1.173   0.953  0.3977 -0.3219  0.2689
    1MOL   C277  277   2.115   1.255   1.043  0.0793  0.1989 -0.5126
    1MOL   C278  278   2.258   1.255   1.039  0.2299 -0.3748  0.2222
    1MOL   C279  279   2.324   1.186   0.941  0.2041  0.2524 -0.4002
    1MOL   C280  280   2.248   1.117   0.842 -0.1574  0.2886 -0.1520
    1MOL   O281  281   2.316   1.335   1.128 -0.2507 -0.1715  0.0449
    1MOL   H282  282   1.905   0.547   0.660 -0.2463 -0.8828  1.3339
    1MOL   H283  283   1.965   0.770   0.582  1.6624 -1.3962  0.0923
    1MOL   H284  284   1.990   0.903   0.999  1.1164  0.6723 -0.5346
    1MOL   H285  285   1.941   0.684   1.074 -0.2164  2.2823  0.6094
    1MOL   H286  286   1.931   1.168   0.974  0.4707  0.0491  0.7531
    1MOL   H287  287   2.062   1.314   1.116 -0.5891  0.1548 -0.9589
    1MOL   H288  288   2.432   1.184   0.933  0.3386 -0.8908  1.5658
    1MOL   H289  289   2.303   1.071   0.761 -0.6038 -1.8091  0.7032
    1MOL   C290  290   2.552   1.374   1.144 -0.4013  0.3463  0.1242
    1MOL   C291  291   2.681   1.331   1.189  0.2518 -0.3099 -0.6647
    1MOL   C292  292   2.689   1.218   1.273  0.9737 -1.0163 -0.5810
    1MOL   C293  293   2.571   1.148   1.314 -0.3402 -0.5746  0.0408
    1MOL   C294  294   2.450   1.192   1.262 -0.4114 -0.5509  0.0749
    1MOL   C295  295   2.436   1.304   1.179 -0.1814  0.1811  0.0066
    1MOL   S296  296   2.854   1.158   1.310  0.1134  0.1019  0.1528
    1MOL   O297  297   2.846   1.081   1.440 -0.3984 -0.1926 -0.2008
    1MOL   O298  298   2.948   1.267   1.290 -0.4132 -0.3025 -0.4590
    1MOL   C299  299   2.889   1.037   1.175 -0.0743  0.2308 -0.3294
    1MOL   C300  300   2.786   0.984   1.089  0.2044 -0.2320 -0.4051
    1MOL   C301  301   2.823   0.890   0.984 -0.3147 -0.0970 -0.2349
    1MOL   C302  302   2.958   0.839   0.979  0.2605  0.0801  0.5517
    1MOL   C303  303   3.048   0.884   1.074  0.1229  0.0939 -0.6033
    1MOL   C304  304   3.020   0.982   1.165  0.6287  0.1786  0.1414
    1MOL   O305  305   2.990   0.735   0.889 -0.6167 -0.1348  0.0765
    1MOL   H306  306   2.555   1.458   1.076  2.7833  0.2586  0.0706
    1MOL   H307  307   2.763   1.395   1.162  1.0640 -0.6393  0.9850
    1MOL   H308  308   2.585   1.060   1.375  1.4970 -1.2275 -1.2599
    1MOL   H309  309   2.360   1.138   1.285  0.0959 -0.8358  1.3821
    1MOL   H310  310   2.683   1.015   1.098 -0.0284 -1.1092  0.0357
    1MOL   H311  311   2.752   0.861   0.908  0.7117 -0.7910 -0.9513
    1MOL   H312  312   3.144   0.836   1.078  0.0805  0.1263  1.3501
    1MOL   H313  313   3.093   1.024   1.232  0.0650  1.2059  0.1198
    1MOL   C314  314   3.014   0.535   1.016 -0.0474  0.1158  0.0838
    1MOL   C315  315   2.956   0.416   1.058  0.2334  0.4526  0.4688
    1MOL   C316  316   2.835   0.371   1.011  0.7413 -0.5400 -0.0006
    1MOL   C317  317   2.768   0.443   0.908  0.2303 -0.3652 -0.4771
    1MOL   C318  318   2.826   0.558   0.857 -0.3243  0.3616  0.6614
    1MOL   C319  319   2.945   0.612   0.916 -0.9333 -0.8107  0.0667
    1MOL   S320  320   2.765   0.213   1.066  0.4851  0.0648 -0.1103
    1MOL   O321  321   2.888   0.138   1.102 -0.2154  0.4949 -0.4924
    1MOL   O322  322   2.667   0.167   0.964 -0.5088  0.1308 -0.0549
    1MOL   C323  323   2.677   0.244   1.218 -0.1605  0.9495 -0.2535
    1MOL   C324  324   2.640   0.131   1.294  0.5207  0.0052 -0.5964
    1MOL   C325  325   2.576   0.146   1.419  0.1378 -0.1865 -0.6000
    1MOL   C326  326   2.557   0.275   1.471 -0.0997  0.0484 -0.1617
    1MOL   C327  327   2.596   0.385   1.397  0.4984 -0.1586  0.1507
    1MOL   C328  328   2.654   0.374   1.271  0.9168 -0.1123  0.3428
    1MOL   O329  329   2.486   0.286   1.589  0.5086 -1.0242 -0.1578
    1MOL   H330  330   3.110   0.566   1.055  1.5749 -0.7986 -2.9973
    1MOL   H331  331   3.009   0.355   1.130  1.1602 -0.7230 -1.1624
    1MOL   H332  332   2.677   0.393   0.877  1.1776 -2.6780  0.3055
    1MOL   H333  333   2.776   0.607   0.775 -0.0567  1.3080  1.0521
    1MOL   H334  334   2.670   0.035   1.256  1.8184  0.9995 -2.1965
    1MOL   H335  335   2.551   0.066   1.487  0.5506 -0.2542 -0.5249
    1MOL   H336  336   2.570   0.483   1.435  2.0227  0.6785 -0.8728
    1MOL   H337  337   2.681   0.461   1.213  0.0625  0.9141  1.4646
    1MOL   C338  338   2.544   0.443   1.764 -0.5039 -0.5466  0.5286
    1MOL   C339  339   2.624   0.471   1.873  1.0751  0.4270  0.1596
    1MOL   C340  340   2.720   0.380   1.926  0.1825  0.1400 -0.8689
    1MOL   C341  341   2.722   0.253   1.872  0.5667 -0.0601  0.1731
    1MOL   C342  342   2.644   0.223   1.757 -0.1299 -0.1576 -0.0168
    1MOL   C343  343   2.557   0.323   1.697 -0.0129  0.0530 -0.0719
    1MOL   S344  344   2.795   0.421   2.076  0.3079 -0.0824  0.0770
    1MOL   O345  345   2.723   0.526   2.144 -0.2530  0.2204  0.3221
    1MOL   O346  346   2.939   0.449   2.038  0.3964 -0.5729  1.1660
    1MOL   C347  347   2.786   0.274   2.185 -0.0821  0.1935 -0.2088
    1MOL   C348  348   2.906   0.218   2.230  0.2839 -0.0305 -0.2652
    1MOL   C349  349   2.900   0.099   2.304  0.8170 -0.3207 -0.2223
    1MOL   C350  350   2.777   0.035   2.330  0.0089  0.6201 -0.0971
    1MOL   C351  351   2.663   0.103   2.296 -0.2567  0.1280 -0.4299
    1MOL   C352  352   2.661   0.223   2.222 -0.0943 -0.1541  1.5396
    1MOL   O353  353   2.767   8.338   2.393  0.0913  0.3026 -0.1378
    1MOL   H354  354   2.478   0.521   1.729  0.0861  0.2164  1.1065
    1MOL   H355  355   2.601   0.568   1.915  2.1613  0.4271  0.7734
    1MOL   H356  356   2.785   0.179   1.920  0.6059 -0.6291 -0.7266
    1MOL   H357  357   2.655   0.124   1.714  1.9918 -0.2868  0.7323
    1MOL   H358  358   3.006   0.256   2.217  0.2152  0.7319  1.3550
    1MOL   H359  359   2.995   0.055   2.333  1.5747 -0.1962 -2.4550
    1MOL   H360  360   2.564   0.067   2.318 -0.8150  1.7421 -0.1760
    1MOL   H361  361   2.564   0.258   2.188  0.3196 -1.8929 -1.6380
    1MOL   C362  362   2.858   8.173   2.240 -0.4588  0.6171  0.5655
    1MOL   C363  363   2.835   8.067   2.150 -0.2745  1.1986  0.1024
    1MOL   C364  364   2.708   8.011   2.134  0.0528  0.9656  0.5651
    1MOL   C365  365   2.597   8.056   2.215 -0.6707 -0.0377  0.1849
    1MOL   C366  366   2.617   8.166   2.308 -0.6966 -0.2248  0.6704
    1MOL   C367  367   2.750   8.229   2.311  0.1567 -0.1267  0.7487
    1MOL   S368  368   2.680   7.870   2.025  0.3081 -0.0188 -0.4304
    1MOL   O369  369   2.596   7.770   2.096  0.0401 -0.4478  0.0043
    1MOL   O370  370   2.814   7.838   1.975  0.1862 -0.1367  0.1579
    1MOL   C371  371   2.583   7.930   1.888  0.1191  0.2500  0.9450
    1MOL   C372  372   2.622   8.044   1.823  0.6112  0.3169 -0.8958
    1MOL   C373  373   2.537   8.090   1.716 -0.3604 -0.2651 -0.0222
    1MOL   C374  374   2.419   8.028   1.675  0.0967 -0.1341 -0.3129
    1MOL   C375  375   2.377   7.913   1.749 -0.4612 -0.2671  0.8331
    1MOL   C376  376   2.465   7.862   1.846  0.1053 -0.4473 -0.3315
    1MOL   O377  377   2.356   8.062   1.560 -0.4257 -0.4075  0.4490
    1MOL   H378  378   2.954   8.220   2.248  0.1414 -0.3810 -0.5696
    1MOL   H379  379   2.914   8.033   2.085  0.1675 -1.9350  2.1488
    1MOL   H380  380   2.494   8.025   2.208  0.1427 -2.5613 -1.1500
    1MOL   H381  381   2.537   8.209   2.367 -2.8555  0.3534 -2.5184
    1MOL   H382  382   2.711   8.099   1.851 -0.4919  0.5453  2.3392
    1MOL   H383  383   2.573   8.170   1.653 -0.0302  0.0300  0.5327
    1MOL   H384  384   2.291   7.862   1.709  0.0717  1.0374 -2.1239
    1MOL   H385  385   2.444   7.770   1.899 -1.2373  0.5879  0.9871
    1MOL   C386  386   2.134   8.104   1.643 -0.1188 -0.5630  0.2868
    1MOL   C387  387   2.051   8.202   1.704  0.3821 -0.6756  0.2317
    1MOL   C388  388   2.073   8.340   1.677  0.0631  0.1951 -0.3580
    1MOL   C389  389   2.182   8.379   1.596 -0.8921  0.2277 -0.9431
    1MOL   C390  390   2.275   8.282   1.543  0.4610 -0.9309  1.1927
    1MOL   C391  391   2.249   8.146   1.566 -0.7964  1.1164 -0.6722
    1MOL   S392  392   1.974   0.017   1.778 -0.1945 -0.0614  0.3063
    1MOL   O393  393   2.028   0.010   1.915  0.1508  0.2464 -0.7171
    1MOL   O394  394   1.835   8.394   1.766  0.1300 -0.3213  0.3699
    1MOL   C395  395   1.986   0.182   1.720 -0.2536  0.1340 -0.6839
    1MOL   C396  396   1.907   0.231   1.617 -0.2249 -0.7494 -0.1078
    1MOL   C397  397   1.917   0.365   1.577  0.5822  0.1071 -0.3975
    1MOL   C398  398   2.014   0.443   1.636  0.0299 -0.0889 -0.1123
    1MOL   C399  399   2.103   0.390   1.733 -0.4013  0.3673  0.7455
    1MOL   C400  400   2.091   0.256   1.777 -0.8352 -0.7955  0.4226
    1MOL   O401  401   2.013   0.577   1.613 -0.5812  0.1853 -0.1890
    1MOL   H402  402   2.128   8.000   1.671 -1.3462 -0.1719  1.5526
    1MOL   H403  403   1.975   8.187   1.779  1.6422  0.7018  1.8302
    1MOL   H404  404   2.204   0.059   1.582  0.4410  0.2419  1.0311
    1MOL   H405  405   2.362   8.314   1.489 -1.0296 -1.3325 -1.5492
    1MOL   H406  406   1.836   0.165   1.571 -1.0914  0.1572 -0.0761
    1MOL   H407  407   1.841   0.410   1.514 -1.8568  0.5774  2.7230
    1MOL   H408  408   2.185   0.445   1.776  0.9008 -0.0553 -1.1683
    1MOL   H409  409   2.165   0.213   1.843 -0.8311 -2.1938 -0.4579
    1MOL   C410  410   2.247   0.625   1.532  0.0680 -0.0554 -0.1623
    1MOL   C411  411   2.331   0.683   1.430  0.5853  0.3338 -0.2929
    1MOL   C412  412   2.266   0.729   1.313 -0.0257  0.4599  0.0882
    1MOL   C413  413   2.127   0.712   1.297  0.1333 -0.5378 -0.2301
    1MOL   C414  414   2.043   0.670   1.402 -0.3405 -0.1772  0.6617
    1MOL   C415  415   2.107   0.620   1.517  0.6348  0.3178 -0.5254
    1MOL   S416  416   2.366   0.793   1.185 -0.4216  0.6031  0.4290
    1MOL   O417  417   2.506   0.804   1.232  0.1600  0.1052 -0.3404
    1MOL   O418  418   2.298   0.913   1.143 -0.6797 -0.6954 -0.6849
    1MOL   C419  419   2.378   0.678   1.053 -0.1517  0.2774 -0.0935
    1MOL   C420  420   2.359   0.724   0.919  0.0158  0.0883 -0.1401
    1MOL   C421  421   2.364   0.631   0.809 -0.1353  0.0259 -0.5165
    1MOL   C422  422   2.375   0.492   0.833 -0.5420 -0.5198  0.4200
    1MOL   C423  423   2.396   0.443   0.969  0.2960  0.3026 -0.2704
    1MOL   C424  424   2.400   0.539   1.074  0.4707 -0.1850 -0.3127
    1MOL   O425  425   2.371   0.398   0.739 -0.6848 -0.5141  0.4674
    1MOL   H426  426   2.294   0.603   1.627  1.0430 -0.1774 -0.6672
    1MOL   H427  427   2.435   0.710   1.440  0.2927  1.3233  0.1547
    1MOL   H428  428   2.077   0.757   1.212 -0.1879  1.5796  1.0268
    1MOL   H429  429   1.935   0.666   1.400 -0.3122 -0.9310  0.5171
    1MOL   H430  430   2.336   0.829   0.906 -1.7982 -0.5146 -2.1267
    1MOL   H431  431   2.357   0.669   0.708  1.6758 -0.3582 -0.7976
    1MOL   H432  432   2.407   0.336   0.983  2.4665  0.4260 -0.8734
    1MOL   H433  433   2.417   0.495   1.172 -3.1569 -0.1389  0.3944
    1MOL   C434  434   2.492   0.444   0.536  0.7519  0.4476 -0.2336
    1MOL   C435  435   2.494   0.467   0.397  0.5060  0.6844 -0.4746
    1MOL   C436  436   2.371   0.512   0.336 -0.5132 -0.6785 -1.0329
    1MOL   C437  437   2.249   0.511   0.405 -0.1639  0.0041 -0.4604
    1MOL   C438  438   2.248   0.470   0.540 -0.3130  0.4286 -0.0714
    1MOL   C439  439   2.369   0.437   0.603 -0.8451 -0.3781 -0.7693
    1MOL   S440  440   2.371   0.588   0.176 -0.4496  0.2836  0.5361
    1MOL   O441  441   2.347   0.473   0.084 -0.6570 -0.2158  0.0061
    1MOL   O442  442   2.499   0.664   0.160  0.1053 -0.0068  0.1818
    1MOL   C443  443   2.235   0.699   0.175  0.4099 -0.6289 -0.5897
    1MOL   C444  444   2.243   0.819   0.253  0.0978 -0.1858  0.1748
    1MOL   C445  445   2.139   0.919   0.246 -0.4541 -0.5427  0.2871
    1MOL   C446  446   2.025   0.889   0.171  0.4518 -1.2404  1.1593
    1MOL   C447  447   2.019   0.772   0.094 -0.0815  0.0331 -0.4143
    1MOL   C448  448   2.116   0.672   0.098  0.3721 -0.3505 -0.4987
    1MOL   O449  449   1.915   0.974   0.159 -0.4527  0.3667  0.1250
    1MOL   H450  450   2.585   0.421   0.586  0.1957 -1.0899  0.1136
    1MOL   H451  451   2.579   0.468   0.330  0.7935 -1.0981 -0.1590
    1MOL   H452  452   2.153   0.521   0.356 -0.2530 -3.4018 -1.0769
    1MOL   H453  453   2.155   0.454   0.593 -0.0815  1.9624  0.8212
    1MOL   H454  454   2.331   0.834   0.314  1.4372 -3.8643 -0.7007
    1MOL   H455  455   2.140   1.007   0.309 -0.1932 -2.1229  2.5608
    1MOL   H456  456   1.940   0.748   0.023  1.8307 -2.7911 -1.6949
    1MOL   H457  457   2.112   0.584   0.035 -1.4332 -1.6325  1.3240
    1MOL   C458  458   1.830   0.934   0.381 -0.0123 -0.6604  0.0962
    1MOL   C459  459   1.727   0.925   0.471 -0.1347  0.3921 -0.5712
    1MOL   C460  460   1.599   0.912   0.419  1.0064  0.6618 -0.2623
    1MOL   C461  461   1.576   0.915   0.280  0.1307  0.0203  0.2355
    1MOL   C462  462   1.678   0.938   0.196  0.0687 -0.2126 -0.2884
    1MOL   C463  463   1.810   0.948   0.242  0.3875  0.1096 -0.5359
    1MOL   S464  464   1.463   0.872   0.529 -0.3442  0.2636 -0.1078
    1MOL   O465  465   1.391   0.751   0.488 -0.0512 -0.0228  0.0508
    1MOL   O466  466   1.389   1.002   0.533  0.0595 -0.3059 -0.9836
    1MOL   C467  467   1.526   0.837   0.695 -0.1841  0.4863 -0.1616
    1MOL   C468  468   1.520   0.711   0.757 -0.2438  0.2934  0.6173
    1MOL   C469  469   1.549   0.699   0.888 -0.4429  0.0201  0.2956
    1MOL   C470  470   1.611   0.805   0.960  0.1557 -0.6223  0.3471
    1MOL   C471  471   1.625   0.930   0.901  0.1718  0.2105  0.7343
    1MOL   C472  472   1.578   0.945   0.766 -0.2740  0.1764  0.3158
    1MOL   O473  473   1.643   0.789   1.092 -0.3379  0.5299  0.3020
    1MOL   H474  474   1.923   0.935   0.437 -0.3523  2.8578  0.7610
    1MOL   H475  475   1.735   0.900   0.575  0.4654 -2.3381 -1.2262
    1MOL   H476  476   1.478   0.895   0.240 -0.0661  2.3871 -0.5710
    1MOL   H477  477   1.658   0.945   0.090 -0.5193  0.3640 -0.1453
    1MOL   H478  478   1.476   0.623   0.714  1.6703 -0.3217 -0.1488
    1MOL   H479  479   1.540   0.607   0.944 -2.1060 -1.1495 -1.8014
    1MOL   H480  480   1.665   1.015   0.954 -0.8644  2.2812 -1.6472
    1MOL   H481  481   1.583   1.043   0.722  0.6851 -0.1094 -0.2251
    1MOL   H482  482   1.644   0.871   1.139  1.7579  1.3034 -1.0107
    2MOL     C1  483   0.087   2.998   1.254  0.0178 -0.3147  0.0825
    2MOL     C2  484   0.153   3.095   1.182 -0.0598  0.0191  0.6972
    2MOL     C3  485   0.074   3.194   1.117  0.6379 -0.3364  0.2485
    2MOL     C4  486   8.357   3.197   1.121  0.1233 -0.0614  0.0497
    2MOL     C5  487   8.291   3.092   1.185 -0.2990 -0.1467 -0.1712
    2MOL     C6  488   8.371   3.002   1.261  0.0627 -0.3402  0.3281
    2MOL     S7  489   0.158   3.335   1.045  0.4539 -0.0304 -0.1356
    2MOL     O8  490   0.075   3.409   0.948  0.0897  0.1394  0.4938
    2MOL     O9  491   0.285   3.283   0.993 -0.7958  0.0803 -0.5051
    2MOL    C10  492   0.198   3.443   1.186 -0.3104 -0.2869  0.6981
    2MOL    C11  493   0.177   3.404   1.319  0.5452 -0.1988  0.4839
    2MOL    C12  494   0.226   3.493   1.416  0.2497  0.6234  0.2667
    2MOL    C13  495   0.280   3.618   1.388  0.0462  0.0559 -0.4183
    2MOL    C14  496   0.295   3.660   1.252 -0.3425  0.3506 -0.3169
    2MOL    C15  497   0.253   3.573   1.152 -0.4228  0.8143  0.1623
    2MOL    O16  498   0.324   3.701   1.489 -0.0491  0.1620  0.3789
    2MOL    H17  499   0.149   2.928   1.310 -0.4034  0.0373  0.9986
    2MOL    H18  500   0.259   3.100   1.165 -0.1148  6.1403  0.9338
    2MOL    H19  501   8.297   3.277   1.080 -1.3246  0.2243  2.5943
    2MOL    H20  502   8.183   3.084   1.190 -0.2254 -0.3886  1.1061
    2MOL    H21  503   0.138   3.307   1.346 -2.8242  0.1626 -2.7213
    2MOL    H22  504   0.233   3.455   1.518 -0.2450  2.6443  1.0781
    2MOL    H23  505   0.343   3.755   1.231 -2.4227  2.0536  2.3441
    2MOL    H24  506   0.250   3.595   1.047  0.3871 -0.6847 -0.1845
    2MOL    H25  507   8.317   2.937   1.328 -0.3556  1.0225  1.3415
    2MOL    C26  508   0.559   3.679   1.449  0.3126  0.8320  0.3555
    2MOL    C27  509   0.687   3.636   1.487  0.0294 -0.3307 -0.1089
    2MOL    C28  510   0.697   3.566   1.609 -0.7101 -0.1111 -0.3182
    2MOL    C29  511   0.583   3.542   1.685  0.6002  0.3222  0.2614
    2MOL    C30  512   0.453   3.590   1.645 -0.2851 -0.2196 -0.0122
    2MOL    C31  513   0.446   3.657   1.527  0.4810 -0.0197 -1.3343
    2MOL    S32  514   0.861   3.519   1.670  0.0123  0.5206 -0.4297
    2MOL    O33  515   0.875   3.376   1.636  0.2903 -0.0580 -0.4527
    2MOL    O34  516   0.860   3.558   1.809  0.2832 -0.2420  0.1938
    2MOL    C35  517   0.985   3.620   1.602 -0.5016  0.5694 -0.1152
    2MOL    C36  518   1.093   3.563   1.532 -0.3515  0.2697  0.3032
    2MOL    C37  519   1.183   3.653   1.466 -0.6623 -0.5004  0.0624
    2MOL    C38  520   1.157   3.790   1.461  0.1886 -0.3024 -0.3835
    2MOL    C39  521   1.049   3.847   1.528  0.3040 -0.5584  0.3027
    2MOL    C40  522   0.964   3.761   1.603  0.1312 -0.4773 -0.0800
    2MOL    O41  523   1.235   3.861   1.374 -0.6443 -0.6565 -0.6232
    2MOL    H42  524   0.536   3.723   1.353  0.3314 -1.5109 -0.7758
    2MOL    H43  525   0.768   3.662   1.420  1.6621  0.8417  2.2799
    2MOL    H44  526   0.594   3.488   1.778 -1.1066  0.3892  0.5087
    2MOL    H45  527   0.370   3.582   1.713 -0.6944  0.3607 -0.4345
    2MOL    H46  528   1.098   3.455   1.531 -3.1027  0.1161 -1.0276
    2MOL    H47  529   1.268   3.618   1.409  0.7941 -0.5009  2.1761
    2MOL    H48  530   1.037   3.955   1.523 -1.0893 -0.7082  0.3149
    2MOL    H49  531   0.878   3.812   1.644 -0.1605 -0.0596 -1.1798
    2MOL    C50  532   1.305   4.090   1.426  0.1723  0.2062  0.3154
    2MOL    C51  533   1.409   4.178   1.465  0.0977 -0.7440 -0.0513
    2MOL    C52  534   1.534   4.123   1.504  0.4626 -0.1764 -0.1650
    2MOL    C53  535   1.548   3.987   1.525  0.0844 -0.1344  0.8159
    2MOL    C54  536   1.444   3.902   1.478 -0.8874  0.3469 -0.2536
    2MOL    C55  537   1.323   3.949   1.425  0.2430 -0.4560 -0.9821
    2MOL    S56  538   1.666   4.239   1.537 -0.0931 -0.0076  0.6104
    2MOL    O57  539   1.666   4.264   1.679 -0.3026 -0.1129  0.3561
    2MOL    O58  540   1.658   4.348   1.443 -0.0505  0.1911  0.4652
    2MOL    C59  541   1.819   4.157   1.503 -0.1100  0.0916 -0.2240
    2MOL    C60  542   1.884   4.082   1.599  0.0082  0.3990 -0.1301
    2MOL    C61  543   2.000   4.012   1.573  1.3023  0.6607 -0.1475
    2MOL    C62  544   2.057   4.024   1.445  0.1500 -0.0630 -0.5839
    2MOL    C63  545   2.009   4.117   1.350  0.0241  0.7131 -0.1999
    2MOL    C64  546   1.888   4.179   1.378  0.0301 -0.3009  0.2536
    2MOL    O65  547   2.181   3.965   1.420 -0.1203 -0.2562  0.2693
    2MOL    H66  548   1.214   4.133   1.387  0.2701 -1.1642 -1.4806
    2MOL    H67  549   1.393   4.285   1.456  0.3871 -0.4560  2.4497
    2MOL    H68  550   1.639   3.933   1.549  0.0233 -0.0600  1.2273
    2MOL    H69  551   1.465   3.796   1.486  1.2768  0.8054  0.4725
    2MOL    H70  552   1.836   4.060   1.693  1.1057 -1.4133  0.0385
    2MOL    H71  553   2.046   3.947   1.646  0.1018  0.2326  0.2483
    2MOL    H72  554   2.060   4.111   1.254  1.6552 -2.2657  0.8185
    2MOL    H73  555   1.839   4.248   1.311 -0.7753 -1.0159  0.0925
    2MOL    C74  556   2.118   3.767   1.301  0.2100 -0.3654 -0.2100
    2MOL    C75  557   2.107   3.629   1.297  0.2927 -0.1238  0.1934
    2MOL    C76  558   2.169   3.549   1.401  0.0572  0.0856 -0.2731
    2MOL    C77  559   2.251   3.607   1.496 -0.1988 -0.5060  0.1133
    2MOL    C78  560   2.256   3.749   1.502 -0.1151  0.2719 -0.4747
    2MOL    C79  561   2.180   3.831   1.412 -0.2308  0.6736  0.0040
    2MOL    S80  562   2.135   3.366   1.413 -0.0104 -0.0542  0.0497
    2MOL    O81  563   2.034   3.341   1.309  0.1187 -0.5249  0.0575
    2MOL    O82  564   2.108   3.321   1.548  0.7155  0.1869  0.1712
    2MOL    C83  565   2.283   3.289   1.347  1.0018 -0.0444 -1.0556
    2MOL    C84  566   2.323   3.314   1.210 -0.6465 -0.1300 -0.0536
    2MOL    C85  567   2.433   3.244   1.157  0.0844  1.1005 -0.5690
    2MOL    C86  568   2.508   3.152   1.241 -0.2121  0.3643 -0.1848
    2MOL    C87  569   2.471   3.132   1.376 -0.5117 -0.1765 -0.6261
    2MOL    C88  570   2.357   3.198   1.426  0.3807  0.0879  0.9574
    2MOL    O89  571   2.624   3.098   1.196  0.2472  0.3221 -0.0985
    2MOL    H90  572   2.066   3.817   1.221  0.4156 -2.9960 -2.0287
    2MOL    H91  573   2.035   3.576   1.237  0.4467 -0.0775 -0.0330
    2MOL    H92  574   2.299   3.544   1.569 -0.2871 -1.4949 -0.6760
    2MOL    H93  575   2.312   3.797   1.581 -0.7410  1.8778 -0.9925
    2MOL    H94  576   2.270   3.393   1.159  0.4687 -0.3676 -1.6134
    2MOL    H95  577   2.467   3.276   1.060 -2.2778 -0.3255 -1.9310
    2MOL    H96  578   2.526   3.061   1.437 -1.4423 -0.7859 -0.4767
    2MOL    H97  579   2.321   3.181   1.526 -0.7946 -3.3727  0.0332
    2MOL    C98  580   2.770   3.252   1.078  0.0050  0.1289  0.1331
    2MOL    C99  581   2.877   3.344   1.079 -0.0064  0.1319  0.2781
    2MOL   C100  582   2.946   3.371   1.199  0.0830 -0.2597  0.7359
    2MOL   C101  583   2.916   3.292   1.315 -0.4803  0.2557  0.7490
    2MOL   C102  584   2.812   3.199   1.310 -0.5191 -0.1781 -0.2111
    2MOL   C103  585   2.734   3.182   1.194  0.5789  0.0777 -0.2687
    2MOL   S104  586   3.079   3.487   1.207  0.2433 -0.3314 -0.1353
    2MOL   O105  587   3.073   3.538   1.346  0.0689  0.3469  0.6300
    2MOL   O106  588   3.049   3.582   1.101  0.7388 -0.0675  0.5704
    2MOL   C107  589   3.228   3.388   1.178 -0.0072  0.3293 -0.1020
    2MOL   C108  590   3.222   3.247   1.176  0.2794  0.2097 -0.8183
    2MOL   C109  591   3.342   3.175   1.140 -0.3431  0.5615 -0.0318
    2MOL   C110  592   3.460   3.245   1.116  0.0849  0.4053  0.2572
    2MOL   C111  593   3.466   3.389   1.119  0.2728  0.3290  0.2220
    2MOL   C112  594   3.350   3.459   1.163  0.8537 -0.0158 -0.0729
    2MOL   O113  595   3.578   3.176   1.075  0.4055 -0.3327 -0.3469
    2MOL   H114  596   2.715   3.242   0.985 -0.7696  1.1389  0.4807
    2MOL   H115  597   2.903   3.395   0.987  1.6019  0.3572  0.8469
    2MOL   H116  598   2.977   3.297   1.404  0.1003  0.8667  0.3284
    2MOL   H117  599   2.788   3.156   1.406  0.6060 -0.7601 -0.1831
    2MOL   H118  600   3.133   3.186   1.189  0.0183  1.2245  2.3248
    2MOL   H119  601   3.344   3.068   1.128  1.3890  0.6639 -0.6776
    2MOL   H120  602   3.564   3.432   1.112  0.9099 -0.6929  2.2940
    2MOL   H121  603   3.349   3.564   1.187  0.7153 -0.0959  0.2604
    2MOL   C122  604   3.572   2.966   0.962 -0.0327 -0.1361  0.0257
    2MOL   C123  605   3.568   2.824   0.972  0.6690  0.3663 -0.7494
    2MOL   C124  606   3.590   2.757   1.095 -0.3019  0.2779  1.2088
    2MOL   C125  607   3.621   2.828   1.214  0.3726 -0.4652 -0.0734
    2MOL   C126  608   3.606   2.973   1.206 -0.4354  0.0952  0.4124
    2MOL   C127  609   3.581   3.041   1.082 -0.6279 -0.0702 -0.3395
    2MOL   S128  610   3.594   2.572   1.087 -0.1492 -0.2690 -0.2639
    2MOL   O129  611   3.463   2.520   1.055 -0.2296 -0.2970 -0.1672
    2MOL   O130  612   3.645   2.546   1.222 -0.4890  0.1816 -0.2731
    2MOL   C131  613   3.716   2.542   0.957 -0.4513 -0.4027  0.4002
    2MOL   C132  614   3.673   2.472   0.841 -0.3544  0.1055  0.2357
    2MOL   C133  615   3.759   2.471   0.731  0.1343 -0.2620  0.3635
    2MOL   C134  616   3.887   2.519   0.732  0.0448  0.2215 -0.4117
    2MOL   C135  617   3.927   2.575   0.853 -0.2322 -0.1195 -0.8103
    2MOL   C136  618   3.843   2.593   0.967  0.2165  0.4108 -0.1282
    2MOL   O137  619   3.969   2.517   0.623 -0.4005 -0.7711  0.1622
    2MOL   H138  620   3.570   3.020   0.869  1.3356  0.3979  0.3041
    2MOL   H139  621   3.534   2.764   0.888  1.5759 -1.1035 -0.0842
    2MOL   H140  622   3.652   2.777   1.304  0.2990 -0.9716 -0.3395
    2MOL   H141  623   3.624   3.031   1.295 -2.6722  0.8360  0.4052
    2MOL   H142  624   3.573   2.432   0.835  0.4523 -2.0186  0.5973
    2MOL   H143  625   3.723   2.422   0.642  0.6788 -0.8306  0.4502
    2MOL   H144  626   4.030   2.603   0.871 -0.1479 -0.8469 -0.0916
    2MOL   H145  627   3.883   2.640   1.055  1.0860 -1.1995  0.3591
    2MOL   C146  628   3.970   2.281   0.604  0.0006 -0.5594 -0.5511
    2MOL   C147  629   4.055   2.169   0.578 -0.2845  0.2351 -0.3914
    2MOL   C148  630   4.187   2.174   0.526  0.0703  0.5584 -0.1435
    2MOL   C149  631   4.246   2.300   0.508  0.4177 -0.2749  0.1050
    2MOL   C150  632   4.169   2.410   0.543 -0.0364  0.8221  0.0512
    2MOL   C151  633   4.037   2.404   0.589 -0.5845  0.6051  0.2603
    2MOL   S152  634   4.275   2.027   0.471  0.1935  0.4019 -0.2951
    2MOL   O153  635   4.417   2.056   0.464  0.5489  0.5568 -0.1617
    2MOL   O154  636   4.208   1.971   0.350 -0.7797 -0.4029  0.5525
    2MOL   C155  637   4.263   1.894   0.593  0.1395  0.1509  0.4295
    2MOL   C156  638   4.207   1.772   0.550  0.3560 -0.2265 -0.2229
    2MOL   C157  639   4.195   1.657   0.633 -0.1311  0.5470 -0.0108
    2MOL   C158  640   4.241   1.673   0.770  0.1661  0.2429 -0.3616
    2MOL   C159  641   4.295   1.796   0.807 -0.3639  0.7615  0.0144
    2MOL   C160  642   4.315   1.904   0.721  0.1294 -0.0943 -0.2378
    2MOL   O161  643   4.222   1.569   0.857 -0.1606 -0.0342 -0.1068
    2MOL   H162  644   3.871   2.266   0.645 -0.2321  2.2985  0.0343
    2MOL   H163  645   4.011   2.071   0.587  1.7707 -0.7031 -0.3792
    2MOL   H164  646   4.348   2.308   0.473  1.4506 -1.0130  2.8262
    2MOL   H165  647   4.218   2.503   0.518 -0.0216  0.3982 -1.5759
    2MOL   H166  648   4.175   1.765   0.446 -2.4180 -0.7380  0.6066
    2MOL   H167  649   4.153   1.568   0.589 -2.4590  2.4066 -1.6116
    2MOL   H168  650   4.318   1.813   0.911  1.2803  0.7621 -0.3383
    2MOL   H169  651   4.348   1.998   0.763 -1.4061 -1.0362  3.2632
    2MOL   C170  652   3.987   1.527   0.909 -0.2814 -0.1113  0.2044
    2MOL   C171  653   3.880   1.533   0.997  0.4664  0.2242 -0.1483
    2MOL   C172  654   3.894   1.584   1.122 -0.2769 -0.2875  0.1794
    2MOL   C173  655   4.020   1.638   1.162 -0.3056 -0.2383 -0.1389
    2MOL   C174  656   4.133   1.635   1.069 -0.0343 -0.0299 -0.1298
    2MOL   C175  657   4.114   1.579   0.941 -0.3170  0.0025 -0.7477
    2MOL   S176  658   3.750   1.588   1.231  0.1319  0.1981 -0.2260
    2MOL   O177  659   3.770   1.496   1.341  0.2349  0.4359  0.2233
    2MOL   O178  660   3.632   1.579   1.141 -0.3271  0.1207 -0.4084
    2MOL   C179  661   3.751   1.749   1.297  0.0122 -0.3621  0.0012
    2MOL   C180  662   3.666   1.850   1.241 -0.4577 -1.2325  0.6457
    2MOL   C181  663   3.675   1.983   1.291  0.0428 -0.4353 -0.8980
    2MOL   C182  664   3.782   2.013   1.379 -0.0562  0.3192 -0.3598
    2MOL   C183  665   3.852   1.910   1.444  0.3746  0.1122  0.4467
    2MOL   C184  666   3.831   1.780   1.409  0.4387 -0.0393 -0.3079
    2MOL   O185  667   3.809   2.142   1.395  0.7014  0.0374  0.1559
    2MOL   H186  668   3.963   1.478   0.815 -0.1815 -1.5955  0.9382
    2MOL   H187  669   3.784   1.492   0.969 -0.1251  0.4672  1.4956
    2MOL   H188  670   4.035   1.666   1.265  0.6354 -0.2329 -0.2771
    2MOL   H189  671   4.225   1.672   1.111  0.1393 -1.4114  0.7617
    2MOL   H190  672   3.602   1.837   1.156 -0.4536 -0.7384  0.5655
    2MOL   H191  673   3.622   2.061   1.239  2.0384  1.2104 -0.5466
    2MOL   H192  674   3.931   1.931   1.515  1.0945 -0.0941 -0.2833
    2MOL   H193  675   3.882   1.698   1.458 -2.0043 -0.6282  1.3641
    2MOL   C194  676   3.881   2.277   1.207 -0.0251  0.1784  0.8990
    2MOL   C195  677   3.985   2.321   1.128  0.1105 -0.0637 -0.2027
    2MOL   C196  678   4.116   2.279   1.148 -0.0810  0.0527 -0.2406
    2MOL   C197  679   4.143   2.200   1.256  0.4327  0.0621 -0.2925
    2MOL   C198  680   4.043   2.161   1.351 -0.1337 -0.0288 -0.2084
    2MOL   C199  681   3.910   2.196   1.323  0.9186  0.0454  0.2031
    2MOL   S200  682   4.246   2.327   1.031  0.3367 -0.3766  0.1290
    2MOL   O201  683   4.200   2.447   0.957 -0.3002 -0.2265 -0.1716
    2MOL   O202  684   4.278   2.207   0.950 -0.2357 -0.5138 -0.5560
    2MOL   C203  685   4.390   2.381   1.122 -0.1637 -0.2854  1.2794
    2MOL   C204  686   4.369   2.469   1.225 -0.0757  0.2955 -0.2630
    2MOL   C205  687   4.476   2.508   1.308 -0.6206  0.2588 -0.5578
    2MOL   C206  688   4.606   2.458   1.283 -0.0799  0.2622 -0.0251
    2MOL   C207  689   4.624   2.360   1.182 -1.4414  1.0684  0.4936
    2MOL   C208  690   4.513   2.324   1.099 -0.2045 -0.1310 -0.0019
    2MOL   O209  691   4.717   2.485   1.360  0.4261 -0.4208 -0.3997
    2MOL   H210  692   3.782   2.314   1.186  0.2619  0.4075 -0.0722
    2MOL   H211  693   3.973   2.370   1.032  2.4858  0.2664 -0.3701
    2MOL   H212  694   4.245   2.175   1.280 -0.0025 -0.6929  0.8276
    2MOL   H213  695   4.071   2.096   1.432 -0.1921  0.9748  0.6217
    2MOL   H214  696   4.268   2.500   1.247 -0.2135 -0.3512  0.0349
    2MOL   H215  697   4.465   2.569   1.396  0.6998 -1.3921  0.8006
    2MOL   H216  698   4.720   2.312   1.173 -0.9032  2.3393 -0.6599
    2MOL   H217  699   4.525   2.246   1.025  0.6481 -1.1769  1.2143
    2MOL   C218  700   4.746   2.501   1.595  0.6230 -0.1951 -0.1076
    2MOL   C219  701   4.748   2.443   1.722 -0.0881 -0.7878 -0.5206
    2MOL   C220  702   4.745   2.299   1.739  0.6002 -0.5120  0.4627
    2MOL   C221  703   4.730   2.218   1.622  0.9151  0.7724  0.6749
    2MOL   C222  704   4.715   2.285   1.499  0.1126  1.1831 -0.2359
    2MOL   C223  705   4.722   2.423   1.481  0.3207 -0.5931  0.1834
    2MOL   S224  706   4.758   2.239   1.904 -0.3492  0.5207 -0.1898
    2MOL   O225  707   4.763   2.344   2.007 -0.3106 -0.3513 -0.3091
    2MOL   O226  708   4.861   2.129   1.909 -0.2907  0.1937  0.0483
    2MOL   C227  709   4.601   2.156   1.923  0.6941  0.4948  0.9147
    2MOL   C228  710   4.578   2.035   1.852 -0.4066 -0.0214  0.4053
    2MOL   C229  711   4.449   1.974   1.853 -1.0600 -0.1540  1.0889
    2MOL   C230  712   4.343   2.035   1.927  0.7356  0.0271  0.2348
    2MOL   C231  713   4.364   2.167   1.974 -0.6911 -0.2965  0.5301
    2MOL   C232  714   4.496   2.218   1.986  0.6063  1.1466  0.1862
    2MOL   O233  715   4.222   1.974   1.945 -0.0983 -0.1759 -1.1315
    2MOL   H234  716   4.755   2.608   1.586  0.6625 -0.3694 -2.2724
    2MOL   H235  717   4.763   2.509   1.807  1.5429 -0.6976 -0.8498
    2MOL   H236  718   4.736   2.110   1.625  0.2991  0.6835 -0.6458
    2MOL   H237  719   4.699   2.225   1.411  2.2035 -0.6469  0.5871
    2MOL   H238  720   4.665   1.990   1.807  1.0738  0.9027  2.2505
    2MOL   H239  721   4.437   1.883   1.797  0.8494  0.0575  0.2945
    2MOL   H240  722   4.288   2.223   2.027  0.1876  2.8431 -1.4626
    2MOL   H241  723   4.511   2.311   2.038  2.1322  1.6522 -1.1287
    2MOL   C242  724   4.159   1.775   2.065 -0.0771  0.0667  0.1408
    2MOL   C243  725   4.136   1.704   2.185 -0.8548  0.0241  0.2156
    2MOL   C244  726   4.151   1.776   2.304  0.1526  0.2500 -0.4885
    2MOL   C245  727   4.190   1.912   2.311  0.1957 -0.5998  0.3032
    2MOL   C246  728   4.200   1.984   2.185 -0.9262  1.2202  0.0762
    2MOL   C247  729   4.190   1.917   2.066  1.2323  0.1556 -0.1491
    2MOL   S248  730   4.129   1.681   2.460 -0.0838 -0.2507 -0.0944
    2MOL   O249  731   4.186   1.765   2.566 -0.4249  0.2840 -0.2425
    2MOL   O250  732   4.173   1.544   2.443 -0.0295  0.1002  0.4949
    2MOL   C251  733   3.951   1.677   2.490 -0.1649 -0.1814 -0.2071
    2MOL   C252  734   3.859   1.680   2.383 -0.6392  0.8771  0.2587
    2MOL   C253  735   3.717   1.695   2.395 -0.3012 -0.2099 -0.0223
    2MOL   C254  736   3.663   1.707   2.524  0.7445  1.0504 -0.0286
    2MOL   C255  737   3.756   1.698   2.637 -0.1597 -0.1653 -0.2287
    2MOL   C256  738   3.897   1.689   2.620  0.1652  0.1118 -0.0634
    2MOL   O257  739   3.530   1.720   2.556 -0.3687 -0.0264  0.1526
    2MOL   H258  740   4.153   1.725   1.970  1.3457  1.3430 -0.6399
    2MOL   H259  741   4.127   1.597   2.183  0.5250 -0.1036  0.0044
    2MOL   H260  742   4.211   1.948   2.410  0.2738 -0.5576  0.2716
    2MOL   H261  743   4.246   2.081   2.191  1.8947 -0.0804  0.1843
    2MOL   H262  744   3.899   1.664   2.284  0.3479 -1.2616  0.9630
    2MOL   H263  745   3.662   1.687   2.302 -0.8739 -0.3263  0.3247
    2MOL   H264  746   3.708   1.702   2.734  1.6970 -0.5344  0.7168
    2MOL   H265  747   3.963   1.675   2.705 -0.8429  0.1772  0.7460
    2MOL   C266  748   3.440   1.941   2.521  0.5176 -0.1639 -0.6548
    2MOL   C267  749   3.363   2.030   2.444  0.1300 -0.3751 -0.4451
    2MOL   C268  750   3.310   1.994   2.318  0.0459  0.4630 -0.0412
    2MOL   C269  751   3.351   1.872   2.259  0.3380 -0.1732  0.3888
    2MOL   C270  752   3.418   1.780   2.342  0.0686 -0.1963  0.6098
    2MOL   C271  753   3.461   1.811   2.476 -0.0287 -0.4563  0.3064
    2MOL   S272  754   3.192   2.091   2.237 -0.0093  0.2842 -0.1927
    2MOL   O273  755   3.071   2.104   2.317  0.0777 -0.8482 -0.1754
    2MOL   O274  756   3.191   2.053   2.093 -0.0342  0.7142  0.2587
    2MOL   C275  757   3.272   2.261   2.233  0.4751  0.4888 -0.0356
    2MOL   C276  758   3.271   2.335   2.353 -0.3798  0.3982 -0.4988
    2MOL   C277  759   3.321   2.466   2.349  0.0483 -0.0072 -0.9055
    2MOL   C278  760   3.363   2.525   2.226  0.9043 -0.5503 -0.4184
    2MOL   C279  761   3.374   2.448   2.109 -0.8741  0.5811  0.0027
    2MOL   C280  762   3.328   2.312   2.114 -0.3050 -0.9398  0.1312
    2MOL   O281  763   3.381   2.657   2.220  0.3139 -0.8889 -0.5214
    2MOL   H282  764   3.477   1.965   2.619 -1.1006 -1.3306  0.2534
    2MOL   H283  765   3.347   2.127   2.490  1.6713 -0.6932  0.7911
    2MOL   H284  766   3.315   1.847   2.160 -1.0863 -0.5330  0.9858
    2MOL   H285  767   3.441   1.688   2.290 -0.3525  0.0302  0.0183
    2MOL   H286  768   3.244   2.300   2.452 -0.3294  1.3831 -0.1202
    2MOL   H287  769   3.318   2.525   2.440 -1.4183 -0.9152 -0.3542
    2MOL   H288  770   3.406   2.492   2.016 -0.4014  0.1981 -0.0142
    2MOL   H289  771   3.338   2.254   2.024  0.4577  1.2378 -1.2086
    2MOL   C290  772   3.512   2.763   2.048  0.0454 -0.2833 -0.2676
    2MOL   C291  773   3.629   2.813   1.997 -0.2793  0.5583 -0.7185
    2MOL   C292  774   3.746   2.805   2.081 -0.7124  0.7359  0.1107
    2MOL   C293  775   3.745   2.743   2.203  0.1988  0.7202 -0.3444
    2MOL   C294  776   3.625   2.685   2.245  0.1911 -0.0061  0.8041
    2MOL   C295  777   3.502   2.696   2.173 -0.1699 -0.1981 -0.3308
    2MOL   S296  778   3.895   2.879   2.002 -0.0529 -0.0554  0.3350
    2MOL   O297  779   3.912   2.814   1.875 -0.1806 -0.0650  0.0930
    2MOL   O298  780   4.008   2.858   2.098 -0.4964 -0.4730  0.7491
    2MOL   C299  781   3.876   3.051   1.950 -0.9585  0.5275 -0.0192
    2MOL   C300  782   3.956   3.155   2.006 -1.4061  0.2958 -1.0109
    2MOL   C301  783   3.945   3.280   1.941 -0.4316  0.3575 -0.2609
    2MOL   C302  784   3.870   3.302   1.826  0.3917 -0.6619  0.1269
    2MOL   C303  785   3.799   3.196   1.765  0.0561  0.1779  0.7969
    2MOL   C304  786   3.806   3.071   1.826 -0.5001  0.1756  0.6689
    2MOL   O305  787   3.868   3.431   1.769  0.1923 -0.3732  0.4676
    2MOL   H306  788   3.428   2.784   1.984  0.7356  0.5402 -0.9166
    2MOL   H307  789   3.629   2.864   1.902 -0.1825  1.9124 -0.0136
    2MOL   H308  790   3.833   2.741   2.266  0.1056  1.7522 -0.1666
    2MOL   H309  791   3.622   2.634   2.340  0.3110  1.1579  1.4402
    2MOL   H310  792   4.012   3.142   2.098 -1.6674  0.5684 -0.8113
    2MOL   H311  793   4.013   3.349   1.989  0.3407 -0.5937  0.0403
    2MOL   H312  794   3.740   3.201   1.675 -0.4137  1.7085  1.1857
    2MOL   H313  795   3.771   2.981   1.777  1.2511 -0.4311  0.5060
    2MOL   C314  796   3.658   3.505   1.866 -0.2164 -0.1942  0.1477
    2MOL   C315  797   3.577   3.616   1.891 -0.1401 -0.5878 -0.0488
    2MOL   C316  798   3.636   3.744   1.904 -0.0559  0.8359 -0.0045
    2MOL   C317  799   3.775   3.761   1.873 -0.2820 -0.3976 -1.0487
    2MOL   C318  800   3.844   3.654   1.829 -0.3980 -0.5970  0.2023
    2MOL   C319  801   3.789   3.526   1.827  0.1190 -0.4253 -0.4514
    2MOL   S320  802   3.526   3.871   1.965  0.3977 -0.2407 -0.6372
    2MOL   O321  803   3.490   3.839   2.109 -0.1326 -0.3638 -0.6180
    2MOL   O322  804   3.410   3.892   1.873 -0.1050  0.1352 -0.1463
    2MOL   C323  805   3.627   4.016   1.962  0.2739  0.2723  0.3008
    2MOL   C324  806   3.652   4.088   1.837 -0.4075 -0.1309 -0.1269
    2MOL   C325  807   3.735   4.203   1.840 -0.5554  0.8208 -0.0821
    2MOL   C326  808   3.808   4.237   1.952  0.0857  0.5841 -0.9120
    2MOL   C327  809   3.788   4.163   2.072 -0.6448 -0.3196 -0.9240
    2MOL   C328  810   3.695   4.055   2.075  0.0111 -0.2754 -0.3707
    2MOL   O329  811   3.895   4.339   1.965  0.0869  0.0678  0.3416
    2MOL   H330  812   3.608   3.409   1.872  0.7094 -0.7880 -1.3934
    2MOL   H331  813   3.471   3.612   1.910 -0.1370 -0.9117 -0.0997
    2MOL   H332  814   3.823   3.857   1.862 -0.0298 -0.5718 -1.4887
    2MOL   H333  815   3.947   3.659   1.797 -0.2069 -1.3404  0.6893
    2MOL   H334  816   3.607   4.054   1.745 -3.1473  1.1654  0.6643
    2MOL   H335  817   3.750   4.257   1.748  2.0708 -1.3247 -0.9802
    2MOL   H336  818   3.839   4.179   2.165 -1.6035 -3.5435  0.2351
    2MOL   H337  819   3.668   4.001   2.165 -0.4124 -2.8120 -1.9713
    2MOL   C338  820   4.103   4.255   1.879  0.0371  0.8733 -0.2069
    2MOL   C339  821   4.206   4.266   1.785 -0.0426  0.2806  0.1420
    2MOL   C340  822   4.220   4.371   1.697  0.2115  0.2289 -0.0545
    2MOL   C341  823   4.117   4.470   1.695  1.1950  0.7781 -0.0755
    2MOL   C342  824   4.015   4.464   1.792  0.0649  0.8302  0.0065
    2MOL   C343  825   4.004   4.351   1.884  0.4124  0.7213  0.7491
    2MOL   S344  826   4.378   4.401   1.608  0.1762  0.0719  0.1037
    2MOL   O345  827   4.449   4.509   1.687 -0.8352 -0.1272 -0.0934
    2MOL   O346  828   4.352   4.422   1.464  0.4565 -0.2419 -0.3561
    2MOL   C347  829   4.473   4.249   1.626 -0.2999  0.4761  0.5134
    2MOL   C348  830   4.607   4.252   1.675  0.3186  0.0299 -0.2326
    2MOL   C349  831   4.683   4.130   1.688 -0.2807 -0.6983  0.2299
    2MOL   C350  832   4.611   4.008   1.651 -0.2067 -0.2024  0.5422
    2MOL   C351  833   4.482   4.013   1.601 -0.0253  0.0529 -0.2423
    2MOL   C352  834   4.411   4.131   1.584 -0.3159  0.2050  0.8399
    2MOL   O353  835   4.681   3.891   1.670  0.2758 -0.1775  0.2197
    2MOL   H354  836   4.102   4.171   1.947  1.7601  1.6156  0.7492
    2MOL   H355  837   4.291   4.201   1.800 -0.0574  0.6398  1.8001
    2MOL   H356  838   4.129   4.555   1.629  2.5095  1.1386  0.6269
    2MOL   H357  839   3.945   4.547   1.793 -0.5576  0.3066  0.6911
    2MOL   H358  840   4.655   4.348   1.687 -0.2180  0.5229 -1.9090
    2MOL   H359  841   4.783   4.133   1.728 -1.3036 -0.1212  2.9224
    2MOL   H360  842   4.434   3.917   1.593  0.2995 -0.2406  1.1031
    2MOL   H361  843   4.306   4.129   1.557 -0.3349 -1.4274  0.9749
    2MOL   C362  844   4.603   3.737   1.829  0.2305  0.4586 -0.1791
    2MOL   C363  845   4.588   3.698   1.963 -0.9187 -0.4710 -0.6832
    2MOL   C364  846   4.668   3.746   2.065  0.6212  0.0027  0.0959
    2MOL   C365  847   4.757   3.854   2.030  0.4415 -0.1967  0.3175
    2MOL   C366  848   4.761   3.905   1.901 -0.1434 -0.3358  0.4332
    2MOL   C367  849   4.688   3.839   1.799 -0.2141 -0.4561 -0.1148
    2MOL   S368  850   4.658   3.699   2.237  0.0351 -0.3075 -0.3535
    2MOL   O369  851   4.568   3.801   2.303 -0.0250  0.2181 -0.7439
    2MOL   O370  852   4.792   3.690   2.287  0.1450  0.2318  0.8837
    2MOL   C371  853   4.587   3.542   2.252  0.5273  0.4003 -0.3833
    2MOL   C372  854   4.446   3.524   2.248 -0.4749  0.2190  0.6814
    2MOL   C373  855   4.393   3.393   2.244 -0.2355 -0.6924 -0.6419
    2MOL   C374  856   4.476   3.280   2.267 -0.5218 -0.2820  0.0252
    2MOL   C375  857   4.618   3.302   2.284 -0.2758  0.2100  0.2642
    2MOL   C376  858   4.671   3.432   2.278  0.6797  0.2938  0.3178
    2MOL   O377  859   4.429   3.153   2.275  0.3275  0.0150  0.8544
    2MOL   H378  860   4.538   3.693   1.755  0.4903 -0.8222  0.3352
    2MOL   H379  861   4.511   3.626   1.987 -0.4703 -1.1329 -1.2308
    2MOL   H380  862   4.815   3.894   2.112 -1.2487  0.2810  1.3272
    2MOL   H381  863   4.816   3.994   1.875  0.1893 -0.1793  1.6159
    2MOL   H382  864   4.390   3.615   2.237  0.3112  0.7031  0.6635
    2MOL   H383  865   4.286   3.378   2.238 -0.5326  1.0882 -0.2215
    2MOL   H384  866   4.689   3.225   2.308  2.1690  0.7949 -4.4632
    2MOL   H385  867   4.767   3.451   2.324 -0.3408  3.2244  1.3623
    2MOL   C386  868   4.347   3.073   2.060  0.1627  0.0554  0.0330
    2MOL   C387  869   4.351   2.972   1.963  0.2728  0.9386  0.3177
    2MOL   C388  870   4.456   2.881   1.964 -0.3718  0.1908  0.3687
    2MOL   C389  871   4.555   2.882   2.063 -0.7561  0.2029  0.8734
    2MOL   C390  872   4.548   2.978   2.164  0.1397  0.5368  0.0222
    2MOL   C391  873   4.446   3.070   2.166  0.9396  1.0472 -0.1848
    2MOL   S392  874   4.459   2.766   1.821  0.0182 -0.0729 -0.0507
    2MOL   O393  875   4.586   2.692   1.823 -0.6359 -0.1198 -0.0868
    2MOL   O394  876   4.436   2.853   1.710 -0.6582 -0.2623  0.2031
    2MOL   C395  877   4.326   2.643   1.827 -0.0536  0.1721 -0.1017
    2MOL   C396  878   4.338   2.532   1.741  1.0221 -0.3267 -0.0730
    2MOL   C397  879   4.231   2.443   1.727 -0.7116  0.3140 -0.3922
    2MOL   C398  880   4.121   2.452   1.812  0.6196 -1.1200 -0.5974
    2MOL   C399  881   4.116   2.557   1.910 -0.5190 -0.0958 -0.0655
    2MOL   C400  882   4.205   2.662   1.900 -1.2311  0.4747 -1.0079
    2MOL   O401  883   4.018   2.361   1.798  0.3186  0.2480 -0.8490
    2MOL   H402  884   4.262   3.140   2.062  0.3732  0.3136  0.3989
    2MOL   H403  885   4.281   2.977   1.881 -1.0554  5.5942  1.5577
    2MOL   H404  886   4.633   2.808   2.068 -0.3376  0.6091  0.4352
    2MOL   H405  887   4.612   2.976   2.251  2.7361 -1.1067 -1.8417
    2MOL   H406  888   4.430   2.520   1.686 -0.1154 -1.6020 -1.7464
    2MOL   H407  889   4.236   2.362   1.656  1.2760 -1.0262  1.2087
    2MOL   H408  890   4.041   2.556   1.988 -0.4963  0.2513 -0.0406
    2MOL   H409  891   4.196   2.756   1.953  3.3530  1.9175 -2.4748
    2MOL   C410  892   3.845   2.400   1.964  0.4769 -0.2566  0.2603
    2MOL   C411  893   3.774   2.352   2.073  0.0572 -0.6874  0.0551
    2MOL   C412  894   3.778   2.215   2.107 -0.0154  0.5438 -0.0313
    2MOL   C413  895   3.859   2.125   2.032 -0.5335 -0.5873  0.2106
    2MOL   C414  896   3.940   2.176   1.925 -0.1488 -0.7395  0.6436
    2MOL   C415  897   3.938   2.316   1.898 -0.0357 -0.0039  0.2805
    2MOL   S416  898   3.688   2.138   2.241 -0.1690 -0.3440 -0.3249
    2MOL   O417  899   3.675   1.995   2.219  0.3693 -0.3048  0.3633
    2MOL   O418  900   3.567   2.217   2.249 -0.8186 -0.3336 -0.0579
    2MOL   C419  901   3.785   2.161   2.389 -0.1710 -0.0345 -0.0258
    2MOL   C420  902   3.763   2.273   2.476  0.0794 -0.0944 -0.0339
    2MOL   C421  903   3.839   2.282   2.597  0.1517  0.5694  0.3769
    2MOL   C422  904   3.915   2.165   2.649  0.8246  0.3421 -0.5606
    2MOL   C423  905   3.931   2.059   2.554  0.2706 -0.2115  0.2497
    2MOL   C424  906   3.874   2.061   2.428  0.0133 -0.0777  0.4338
    2MOL   O425  907   3.975   2.167   2.771 -0.0541 -0.0043  0.3463
    2MOL   H426  908   3.828   2.501   1.931 -0.8550 -0.5058  0.1701
    2MOL   H427  909   3.717   2.417   2.139 -0.3827 -0.6083 -0.3981
    2MOL   H428  910   3.864   2.017   2.044  3.5711 -1.1596 -4.7019
    2MOL   H429  911   4.001   2.104   1.871 -0.6934 -0.9396  0.2934
    2MOL   H430  912   3.699   2.356   2.450  1.6886  1.3783  0.5776
    2MOL   H431  913   3.824   2.371   2.658  2.9233  2.1937 -1.2193
    2MOL   H432  914   3.996   1.975   2.573  1.7866  1.0719  0.8467
    2MOL   H433  915   3.892   1.975   2.364 -0.0244  0.6665 -0.5881
    2MOL   C434  916   4.216   2.158   2.730  0.1861 -0.2419  0.9023
    2MOL   C435  917   4.340   2.203   2.760 -0.2115 -0.0547 -0.3241
    2MOL   C436  918   4.362   2.320   2.836 -0.2331 -0.3053  0.2732
    2MOL   C437  919   4.251   2.395   2.875  0.3757  0.0061 -0.0916
    2MOL   C438  920   4.123   2.345   2.856 -0.0048 -0.7277  0.3586
    2MOL   C439  921   4.100   2.226   2.781 -0.7299  0.3240 -0.9442
    2MOL   S440  922   4.526   2.382   2.877  0.0744 -0.0629  0.1086
    2MOL   O441  923   4.636   2.300   2.815 -0.0013  0.4942  0.3634
    2MOL   O442  924   4.534   2.425   3.017 -0.4680  0.1669 -0.5053
    2MOL   C443  925   4.519   2.538   2.785  0.0653 -0.3237 -0.1496
    2MOL   C444  926   4.569   2.533   2.658 -0.3162  0.5204  0.2258
    2MOL   C445  927   4.563   2.644   2.570  0.1836  0.3464 -0.2918
    2MOL   C446  928   4.508   2.765   2.624 -0.4302 -0.2917 -0.0249
    2MOL   C447  929   4.481   2.774   2.761  0.0737  0.1274  0.7659
    2MOL   C448  930   4.482   2.661   2.839  0.1341  0.0926 -0.3747
    2MOL   O449  931   4.494   2.876   2.547 -0.4360  0.0136 -0.6733
    2MOL   H450  932   4.207   2.066   2.674  0.8158  0.8521 -1.0789
    2MOL   H451  933   4.430   2.163   2.716  1.2179  3.2304 -0.5844
    2MOL   H452  934   4.273   2.482   2.935 -0.6573 -0.1940  0.5966
    2MOL   H453  935   4.030   2.384   2.895 -1.6972 -2.4609 -1.8449
    2MOL   H454  936   4.600   2.437   2.619  0.4528  1.0609 -0.5014
    2MOL   H455  937   4.590   2.636   2.465  2.6038  1.5702  0.1963
    2MOL   H456  938   4.429   2.858   2.805 -0.9527 -0.9167  1.5713
    2MOL   H457  939   4.450   2.668   2.942  1.4014 -0.8219  0.0940
    2MOL   C458  940   4.271   2.855   2.444  1.0174 -0.0921 -0.1086
    2MOL   C459  941   4.153   2.921   2.408  0.5745 -0.0893  1.2057
    2MOL   C460  942   4.126   3.051   2.451 -0.2588 -0.6367 -0.6904
    2MOL   C461  943   4.222   3.126   2.521  0.2088  0.9290 -0.7822
    2MOL   C462  944   4.341   3.056   2.554  0.9873  0.1396 -0.8178
    2MOL   C463  945   4.369   2.926   2.518 -0.1930  0.5634  0.1106
    2MOL   S464  946   3.972   3.135   2.418 -0.4607 -0.0663 -0.0657
    2MOL   O465  947   3.895   3.049   2.330 -0.3057  0.5197 -0.1166
    2MOL   O466  948   3.995   3.273   2.372  0.2782  0.3473  0.0953
    2MOL   C467  949   3.886   3.149   2.579  0.0057 -0.0547 -0.0516
    2MOL   C468  950   3.754   3.204   2.572 -0.2939 -0.2744  0.1679
    2MOL   C469  951   3.681   3.236   2.689  0.4131  0.3313 -0.1058
    2MOL   C470  952   3.740   3.219   2.815  0.1766  0.3607  0.3180
    2MOL   C471  953   3.870   3.163   2.825 -0.1284  0.0918 -0.6225
    2MOL   C472  954   3.944   3.125   2.710 -0.8020 -0.2675 -0.7382
    2MOL   O473  955   3.672   3.249   2.924  0.0224 -0.1987 -0.0819
    2MOL   H474  956   4.281   2.754   2.408  1.3780  0.6389 -2.1615
    2MOL   H475  957   4.081   2.858   2.357 -0.4098  1.0341  1.1924
    2MOL   H476  958   4.200   3.228   2.549  1.2227  1.2331 -1.0782
    2MOL   H477  959   4.416   3.110   2.610 -0.3735  1.3658 -0.1694
    2MOL   H478  960   3.708   3.230   2.479  0.9988 -1.3075 -0.7850
    2MOL   H479  961   3.580   3.273   2.680 -1.3562 -4.3096 -0.5523
    2MOL   H480  962   3.901   3.117   2.918 -1.9499 -1.0143 -0.5403
    2MOL   H481  963   4.033   3.064   2.705 -0.4879  0.2564 -1.5275
    2MOL   H482  964   3.593   3.299   2.911  1.1736  0.9140 -3.3857
    3MOL     C1  965   4.687   2.737   6.216  0.8975  0.3466  0.2903
    3MOL     C2  966   4.771   2.629   6.250 -0.6017  0.1181 -0.5832
    3MOL     C3  967   4.801   2.598   6.387 -0.7200 -0.3587  0.0992
    3MOL     C4  968   4.743   2.680   6.489 -0.1296 -0.2816  0.2004
    3MOL     C5  969   4.656   2.784   6.455  0.0535 -0.3426 -0.0163
    3MOL     C6  970   4.630   2.812   6.322 -0.3459 -0.3579 -0.3765
    3MOL     S7  971   4.927   2.481   6.429  0.2382 -0.0820  0.7227
    3MOL     O8  972   5.038   2.546   6.503  0.8262  0.3341  0.4756
    3MOL     O9  973   4.945   2.390   6.310  0.4097 -0.2242  0.3549
    3MOL    C10  974   4.839   2.375   6.545  0.0847  0.1647 -0.1480
    3MOL    C11  975   4.739   2.293   6.497 -0.1236  0.1893  0.2923
    3MOL    C12  976   4.664   2.219   6.588 -0.2259 -0.0972  0.4237
    3MOL    C13  977   4.698   2.219   6.723  0.4546  0.1425  0.1484
    3MOL    C14  978   4.810   2.294   6.767  0.9333 -0.3863 -0.2531
    3MOL    C15  979   4.878   2.375   6.681  0.5321  0.0758 -0.0311
    3MOL    O16  980   4.630   2.146   6.822  0.9058 -0.6721 -0.3237
    3MOL    H17  981   4.667   2.766   6.114  2.2453 -2.1037 -0.7014
    3MOL    H18  982   4.812   2.561   6.176 -0.8723 -1.9495  1.0993
    3MOL    H19  983   4.773   2.658   6.590 -0.7338 -1.9089  0.0258
    3MOL    H20  984   4.625   2.838   6.544 -0.2060 -0.6967  0.1103
    3MOL    H21  985   4.713   2.304   6.393 -0.5856  0.0013  0.3853
    3MOL    H22  986   4.580   2.156   6.563 -0.8520  1.9946 -3.1483
    3MOL    H23  987   4.848   2.295   6.868 -0.6203  1.0505  0.3282
    3MOL    H24  988   4.965   2.432   6.708  0.9597 -0.1083 -0.9890
    3MOL    H25  989   4.551   2.882   6.299 -0.0068  0.5963  1.2806
    3MOL    C26  990   4.463   2.318   6.871  0.2493  0.0966  0.1193
    3MOL    C27  991   4.330   2.345   6.902  0.4256  0.1261  0.0903
    3MOL    C28  992   4.243   2.232   6.924  0.1791 -0.5556  0.4507
    3MOL    C29  993   4.283   2.101   6.915 -0.3673 -0.1746  0.1267
    3MOL    C30  994   4.417   2.080   6.873 -0.2486 -0.2070  0.5349
    3MOL    C31  995   4.505   2.189   6.849 -0.3295  0.3354 -0.9967
    3MOL    S32  996   4.070   2.273   6.966  0.1716  0.3292 -0.0396
    3MOL    O33  997   4.012   2.146   7.012  0.2974 -0.3633  0.5962
    3MOL    O34  998   4.011   2.345   6.851  0.2032 -0.5667  0.9610
    3MOL    C35  999   4.080   2.388   7.104  0.4619 -0.5746  0.1509
    3MOL    C36 1000   4.052   2.525   7.088 -0.2365 -0.0601  0.5896
    3MOL    C37 1001   4.074   2.608   7.192  0.4555 -0.1160  0.7181
    3MOL    C38 1002   4.118   2.569   7.318  0.0119  0.4781 -0.1156
    3MOL    C39 1003   4.153   2.430   7.336  0.2212  0.1389  0.0646
    3MOL    C40 1004   4.122   2.341   7.234 -0.0367  0.0416  0.0571
    3MOL    O41 1005   4.158   2.655   7.416 -0.2263 -0.5881  0.1930
    3MOL    H42 1006   4.528   2.402   6.852 -0.1841  0.1888 -0.9731
    3MOL    H43 1007   4.295   2.446   6.914 -0.6738 -0.1539 -0.7033
    3MOL    H44 1008   4.214   2.019   6.910 -1.9156  1.1768 -1.3046
    3MOL    H45 1009   4.461   1.981   6.863  1.7003  0.5607  1.3041
    3MOL    H46 1010   4.025   2.571   6.994 -1.9509  1.7156  1.8954
    3MOL    H47 1011   4.052   2.714   7.180  2.7302  0.1195 -1.7024
    3MOL    H48 1012   4.201   2.395   7.426  0.9127 -0.0765 -0.3836
    3MOL    H49 1013   4.139   2.235   7.246  1.1870 -0.0394 -2.2174
    3MOL    C50 1014   3.958   2.708   7.541  0.3767  0.0166  0.0998
    3MOL    C51 1015   3.896   2.724   7.665  0.3746  0.2847  0.2399
    3MOL    C52 1016   3.967   2.685   7.784 -0.1405  0.1862  0.2928
    3MOL    C53 1017   4.103   2.635   7.777 -0.3316 -0.3191 -0.5450
    3MOL    C54 1018   4.163   2.624   7.652  0.0525 -0.2321  0.2072
    3MOL    C55 1019   4.091   2.661   7.537  0.5892  0.4015 -0.1355
    3MOL    S56 1020   3.895   2.718   7.947 -0.1890  0.0686 -0.3907
    3MOL    O57 1021   3.812   2.839   7.932  0.2642 -0.2741 -0.2207
    3MOL    O58 1022   4.001   2.718   8.049 -0.0378 -0.2239 -0.8859
    3MOL    C59 1023   3.794   2.578   7.978  0.4000 -0.2023  0.0396
    3MOL    C60 1024   3.659   2.576   7.968  0.1272 -0.1940 -0.0172
    3MOL    C61 1025   3.581   2.457   7.980  0.2699 -0.2313 -0.6813
    3MOL    C62 1026   3.644   2.335   8.009 -0.8582  0.4404  0.1230
    3MOL    C63 1027   3.784   2.339   8.018 -0.9824 -0.0808 -0.4094
    3MOL    C64 1028   3.858   2.459   8.004 -0.1525 -0.5135  0.1807
    3MOL    O65 1029   3.566   2.222   8.017 -0.0552 -0.7302  0.4122
    3MOL    H66 1030   3.902   2.742   7.456  1.3211  2.3188  0.3631
    3MOL    H67 1031   3.793   2.751   7.682 -0.2632 -2.8665  1.7010
    3MOL    H68 1032   4.163   2.621   7.866  1.0039  1.0759 -1.1844
    3MOL    H69 1033   4.267   2.600   7.642  0.3489  0.5926  1.2362
    3MOL    H70 1034   3.608   2.670   7.957 -1.1855 -0.8481  0.2996
    3MOL    H71 1035   3.474   2.465   7.963  0.0908 -0.6491  0.2437
    3MOL    H72 1036   3.835   2.247   8.040 -0.1953  0.5059  0.2430
    3MOL    H73 1037   3.966   2.458   8.000 -0.1664  0.9315 -1.0399
    3MOL    C74 1038   3.708   2.064   7.893  0.5834  1.0173  0.0955
    3MOL    C75 1039   3.783   1.944   7.893  0.0930 -0.5418 -0.5946
    3MOL    C76 1040   3.757   1.850   7.995 -0.2303  0.2959 -0.6881
    3MOL    C77 1041   3.665   1.877   8.098 -0.1328  0.4134  0.5704
    3MOL    C78 1042   3.599   2.001   8.106 -0.9960 -0.8288 -0.4025
    3MOL    C79 1043   3.623   2.097   8.001  0.3818 -0.7570 -0.5367
    3MOL    S80 1044   3.850   1.700   7.970 -0.0606  0.2466 -0.2487
    3MOL    O81 1045   3.841   1.614   8.091  0.8031  0.0838  0.1581
    3MOL    O82 1046   3.983   1.736   7.918  0.6418  0.9219  0.1297
    3MOL    C83 1047   3.754   1.623   7.835 -0.3508  0.0404 -0.0357
    3MOL    C84 1048   3.816   1.531   7.745  0.2447  0.0259  0.1214
    3MOL    C85 1049   3.741   1.471   7.645  0.0424  0.8883 -0.8106
    3MOL    C86 1050   3.600   1.489   7.629 -0.3941 -0.0752 -0.5437
    3MOL    C87 1051   3.541   1.579   7.720  0.4161  0.0435 -0.5438
    3MOL    C88 1052   3.621   1.652   7.815  0.1797  0.2073 -0.5414
    3MOL    O89 1053   3.532   1.413   7.549 -0.0913 -0.2891 -0.2376
    3MOL    H90 1054   3.714   2.134   7.810  0.9267 -1.1706 -1.7618
    3MOL    H91 1055   3.847   1.920   7.809  1.3227  2.4740 -0.5814
    3MOL    H92 1056   3.647   1.793   8.163  0.6066 -0.2142 -0.0250
    3MOL    H93 1057   3.526   2.026   8.180 -0.1641 -0.5418  0.3320
    3MOL    H94 1058   3.916   1.493   7.764 -0.6582 -1.9494  1.0898
    3MOL    H95 1059   3.797   1.392   7.598  0.1760  1.0434 -0.9125
    3MOL    H96 1060   3.433   1.591   7.720  0.1548 -1.8713  2.4849
    3MOL    H97 1061   3.573   1.714   7.889  0.2630  0.3828 -0.6345
    3MOL    C98 1062   3.433   1.264   7.710  0.2717 -0.6510 -0.2282
    3MOL    C99 1063   3.397   1.134   7.744  0.1672  0.4186  0.4341
    3MOL   C100 1064   3.450   1.029   7.668  0.3205 -0.9523 -0.3067
    3MOL   C101 1065   3.536   1.052   7.558 -0.6552 -0.0585  0.4360
    3MOL   C102 1066   3.572   1.187   7.519 -0.7710  0.5771 -0.2820
    3MOL   C103 1067   3.509   1.289   7.593  0.2049  0.5564  0.5355
    3MOL   S104 1068   3.397   0.854   7.701 -0.1851 -0.0529  0.1824
    3MOL   O105 1069   3.369   0.792   7.574 -0.3827  0.1930  0.4603
    3MOL   O106 1070   3.290   0.863   7.806 -0.0751  0.2077 -0.0861
    3MOL   C107 1071   3.533   0.757   7.776  0.2481  0.0224  0.6085
    3MOL   C108 1072   3.665   0.810   7.788  0.2043 -0.4795  0.1496
    3MOL   C109 1073   3.766   0.741   7.857  0.6854  0.1218 -0.1315
    3MOL   C110 1074   3.725   0.622   7.926 -0.5507 -0.3432 -0.4733
    3MOL   C111 1075   3.591   0.576   7.934 -0.1917  0.0241 -0.2653
    3MOL   C112 1076   3.494   0.644   7.856 -0.3084 -0.1113 -0.0581
    3MOL   O113 1077   3.818   0.564   8.013 -0.2419 -0.4645  0.4977
    3MOL   H114 1078   3.389   1.347   7.762  0.1992  0.0628 -1.4187
    3MOL   H115 1079   3.328   1.127   7.827  0.0326 -0.6242  0.2419
    3MOL   H116 1080   3.582   0.976   7.497 -0.9973  0.7795 -0.9108
    3MOL   H117 1081   3.642   1.203   7.439  0.0192 -0.5081  0.1851
    3MOL   H118 1082   3.687   0.898   7.730 -2.1973 -1.9406 -3.1363
    3MOL   H119 1083   3.867   0.778   7.868  0.4786  0.1445  1.8546
    3MOL   H120 1084   3.560   0.505   8.008 -1.3374  1.1749  0.3764
    3MOL   H121 1085   3.390   0.615   7.858 -0.4325  0.3599  3.0000
    3MOL   C122 1086   3.910   0.407   7.836  0.3032  0.1575  0.4012
    3MOL   C123 1087   4.017   0.315   7.815  0.7192 -0.4277  0.0487
    3MOL   C124 1088   4.085   0.262   7.923  0.6379  0.3240 -0.5224
    3MOL   C125 1089   4.062   0.307   8.053 -0.2793  0.6372  0.2408
    3MOL   C126 1090   3.979   0.412   8.074  0.2978 -0.4866  0.2118
    3MOL   C127 1091   3.906   0.467   7.966 -0.0028 -0.3157  0.1131
    3MOL   S128 1092   4.212   0.132   7.897 -0.1721 -0.2839  0.5317
    3MOL   O129 1093   4.158   0.037   7.795  0.6288  0.0858  0.7522
    3MOL   O130 1094   4.255   0.084   8.027  0.3058  0.2189 -0.0640
    3MOL   C131 1095   4.356   0.215   7.834  0.1823  0.0027 -0.7913
    3MOL   C132 1096   4.475   0.147   7.830  0.5261  0.7376 -0.2428
    3MOL   C133 1097   4.593   0.215   7.795  0.1297 -0.2695  0.0114
    3MOL   C134 1098   4.592   0.354   7.759 -0.5092 -0.4989 -0.2311
    3MOL   C135 1099   4.469   0.420   7.772 -0.1544 -0.2563 -0.5216
    3MOL   C136 1100   4.353   0.352   7.813 -0.4101 -0.9612 -0.0847
    3MOL   O137 1101   4.704   0.419   7.718 -0.0322  0.2642  0.2559
    3MOL   H138 1102   3.856   0.449   7.753  0.6172  1.5735  0.8948
    3MOL   H139 1103   4.018   0.279   7.713 -0.5999  1.6820 -0.7354
    3MOL   H140 1104   4.121   0.273   8.137  0.7934 -0.5578 -0.9874
    3MOL   H141 1105   3.968   0.450   8.175  0.3203  2.0936 -0.7109
    3MOL   H142 1106   4.472   0.042   7.854 -1.2845  0.5115 -1.3327
    3MOL   H143 1107   4.688   0.163   7.796  0.3434  0.1126  0.0056
    3MOL   H144 1108   4.469   0.526   7.749  0.9088  0.0956  1.0383
    3MOL   H145 1109   4.262   0.410   7.816 -0.1002 -0.4032 -1.0723
    3MOL   C146 1110   4.652   0.459   7.488 -0.2672  0.4666  0.0749
    3MOL   C147 1111   4.689   0.464   7.355 -0.1901 -0.1608 -0.3134
    3MOL   C148 1112   4.811   0.404   7.321 -0.4723  0.2398  0.2369
    3MOL   C149 1113   4.890   0.340   7.415 -0.6454 -0.0640 -0.1083
    3MOL   C150 1114   4.860   0.356   7.553  0.2498 -0.0399 -0.1419
    3MOL   C151 1115   4.738   0.416   7.589 -0.2035 -0.1651  0.0287
    3MOL   S152 1116   4.859   0.420   7.148  0.1328  0.1974 -0.3210
    3MOL   O153 1117   4.996   0.472   7.134  0.5610 -0.0225  0.1526
    3MOL   O154 1118   4.765   0.500   7.071 -0.0144 -0.8140  0.2366
    3MOL   C155 1119   4.860   0.257   7.071 -0.2954 -0.4945 -0.0198
    3MOL   C156 1120   4.881   0.257   6.930  0.7362  0.1888  0.2775
    3MOL   C157 1121   4.885   0.135   6.859  0.1980 -0.3198  0.2485
    3MOL   C158 1122   4.855   0.016   6.926 -0.3590 -0.2640  0.5889
    3MOL   C159 1123   4.829   0.010   7.064 -0.0867  0.0041  0.1795
    3MOL   C160 1124   4.835   0.136   7.136 -0.0250  0.2630  0.4292
    3MOL   O161 1125   4.842   8.326   6.855  0.2363  0.3706 -0.0011
    3MOL   H162 1126   4.554   0.490   7.520  0.1787 -0.4826  2.5065
    3MOL   H163 1127   4.617   0.494   7.279 -0.7758  0.2502  0.3951
    3MOL   H164 1128   4.981   0.289   7.387 -0.1664  0.0573  1.1817
    3MOL   H165 1129   4.926   0.308   7.625  0.8844  0.8954 -0.0960
    3MOL   H166 1130   4.891   0.349   6.874 -1.5130 -0.8893 -2.0260
    3MOL   H167 1131   4.908   0.133   6.753  0.7556 -0.5392  0.3709
    3MOL   H168 1132   4.795   8.350   7.121 -2.1166  1.0677  0.5743
    3MOL   H169 1133   4.808   0.135   7.241 -0.7122 -0.9385  0.2460
    3MOL   C170 1134   4.674   8.314   6.686  0.3053  0.6088  0.0555
    3MOL   C171 1135   4.550   8.267   6.639  0.5571 -0.0877  0.0855
    3MOL   C172 1136   4.468   8.185   6.726  0.2213  0.0135  0.2666
    3MOL   C173 1137   4.504   8.167   6.861 -0.9464 -0.3202  0.2602
    3MOL   C174 1138   4.623   8.227   6.908  0.2058  0.1306  0.2584
    3MOL   C175 1139   4.713   8.292   6.819 -0.0543  0.9547 -0.0753
    3MOL   S176 1140   4.323   8.100   6.657  0.2565  0.0029 -0.3932
    3MOL   O177 1141   4.311   7.974   6.733 -0.1860  0.1886  0.0095
    3MOL   O178 1142   4.338   8.102   6.512 -0.0288 -1.1558 -0.1334
    3MOL   C179 1143   4.184   8.203   6.702  0.5883  0.6477  0.7923
    3MOL   C180 1144   4.150   8.241   6.835  0.3869  0.9553  0.1954
    3MOL   C181 1145   4.036   8.325   6.856  0.4244 -0.7684  0.1346
    3MOL   C182 1146   3.970   8.382   6.742 -0.2329  0.0367  0.6446
    3MOL   C183 1147   4.007   8.342   6.615  0.0744 -0.7177 -0.6078
    3MOL   C184 1148   4.107   8.255   6.594 -0.0126 -0.1898 -0.0460
    3MOL   O185 1149   3.887   0.062   6.770 -0.2350  0.0225 -0.0259
    3MOL   H186 1150   4.743   8.367   6.622  0.7104 -0.1412 -0.1301
    3MOL   H187 1151   4.521   8.292   6.538 -0.0213  2.8099  0.9001
    3MOL   H188 1152   4.444   8.106   6.927 -3.8694  0.2322 -1.7513
    3MOL   H189 1153   4.647   8.209   7.012 -3.2141 -1.9500  0.7571
    3MOL   H190 1154   4.213   8.211   6.918 -2.1958  1.5529  2.4224
    3MOL   H191 1155   4.016   8.352   6.958  1.7690 -0.0151  0.2139
    3MOL   H192 1156   3.947   8.386   6.537 -0.0174  0.8593  0.3251
    3MOL   H193 1157   4.131   8.232   6.491 -1.1845  2.4766 -0.9533
    3MOL   C194 1158   4.036   0.228   6.679  0.7299 -0.1753 -0.6943
    3MOL   C195 1159   4.108   0.347   6.698  0.1879  0.3820 -0.7199
    3MOL   C196 1160   4.101   0.414   6.821  0.2830 -0.6999  0.1377
    3MOL   C197 1161   4.016   0.369   6.926 -0.6186 -0.0515 -0.2261
    3MOL   C198 1162   3.948   0.249   6.906 -0.5237 -0.4107  0.2830
    3MOL   C199 1163   3.956   0.181   6.788 -0.0503 -0.4494  0.5135
    3MOL   S200 1164   4.207   0.553   6.856  0.5796 -0.0429  0.0900
    3MOL   O201 1165   4.332   0.490   6.891  0.9663 -0.2028  0.0124
    3MOL   O202 1166   4.134   0.633   6.951 -0.0905 -0.7715  0.2742
    3MOL   C203 1167   4.222   0.649   6.706 -0.0246  0.0785  0.2796
    3MOL   C204 1168   4.343   0.651   6.638  0.0387 -0.0997  0.2817
    3MOL   C205 1169   4.360   0.727   6.524 -0.3887  0.1480 -0.3459
    3MOL   C206 1170   4.244   0.792   6.469  0.0095 -0.0623  0.5849
    3MOL   C207 1171   4.123   0.799   6.540  0.5948  0.0952 -0.0336
    3MOL   C208 1172   4.115   0.724   6.655 -0.4730 -0.5631  0.6473
    3MOL   O209 1173   4.253   0.857   6.345 -0.0812 -0.1450  0.4609
    3MOL   H210 1174   4.051   0.172   6.588  2.4344 -0.1220 -0.4581
    3MOL   H211 1175   4.180   0.384   6.626  0.1849  2.5667  0.3590
    3MOL   H212 1176   4.019   0.424   7.019  0.3435 -1.5739  0.6624
    3MOL   H213 1177   3.880   0.208   6.978 -0.7281 -0.1382  0.2468
    3MOL   H214 1178   4.425   0.592   6.676  0.3508  0.9234  1.2085
    3MOL   H215 1179   4.457   0.727   6.477  0.7930  1.0955  2.0255
    3MOL   H216 1180   4.033   0.852   6.508  0.1555 -0.3260  0.4975
    3MOL   H217 1181   4.014   0.729   6.692 -0.7079 -1.8733  0.2313
    3MOL   C218 1182   4.084   1.029   6.319 -0.5996  0.4360 -0.0995
    3MOL   C219 1183   4.052   1.161   6.331  0.5807  0.6167  0.1248
    3MOL   C220 1184   4.154   1.257   6.360 -0.2090  0.4384 -1.0932
    3MOL   C221 1185   4.285   1.210   6.381 -0.2095  0.2773  0.0586
    3MOL   C222 1186   4.320   1.071   6.376  0.0127 -0.3718  0.0567
    3MOL   C223 1187   4.220   0.986   6.339 -0.1888 -0.1716  0.1458
    3MOL   S224 1188   4.109   1.428   6.375 -0.1929 -0.1542  0.2627
    3MOL   O225 1189   3.972   1.430   6.429 -0.6574 -0.0248  0.4534
    3MOL   O226 1190   4.141   1.500   6.249  0.9755  0.3716 -0.0906
    3MOL   C227 1191   4.223   1.504   6.496  0.3735  0.2925 -0.5810
    3MOL   C228 1192   4.295   1.435   6.600  0.5714  0.9005  0.4750
    3MOL   C229 1193   4.394   1.503   6.669 -0.1745  0.1228 -0.3399
    3MOL   C230 1194   4.410   1.645   6.650  0.0994  0.0817 -0.0405
    3MOL   C231 1195   4.332   1.711   6.556  0.4239  0.8504  0.0521
    3MOL   C232 1196   4.241   1.639   6.468 -0.0511 -0.0633 -0.3939
    3MOL   O233 1197   4.503   1.718   6.726 -0.0652 -0.2516 -0.3695
    3MOL   H234 1198   4.007   0.954   6.315 -0.4337  0.0933  2.4072
    3MOL   H235 1199   3.950   1.197   6.321  0.6555  0.8712  0.2834
    3MOL   H236 1200   4.361   1.283   6.401 -1.3984  2.1619 -1.9837
    3MOL   H237 1201   4.423   1.041   6.385  1.1350  3.6882  2.2730
    3MOL   H238 1202   4.275   1.329   6.608 -0.2745  1.1583  2.0465
    3MOL   H239 1203   4.452   1.453   6.746 -0.2166 -1.9605 -1.6165
    3MOL   H240 1204   4.346   1.817   6.546 -0.5808  0.9231 -0.6426
    3MOL   H241 1205   4.205   1.685   6.377  3.2686  1.0370 -1.2445
    3MOL   C242 1206   4.384   1.734   6.938 -0.1635 -0.7192 -0.7245
    3MOL   C243 1207   4.364   1.699   7.068 -0.2592  0.2125 -0.0752
    3MOL   C244 1208   4.467   1.626   7.132 -0.3039  0.6154  0.5563
    3MOL   C245 1209   4.585   1.590   7.062  0.4253 -0.9272 -0.7894
    3MOL   C246 1210   4.599   1.613   6.926 -0.9290 -0.1510 -0.6894
    3MOL   C247 1211   4.498   1.689   6.862  0.7248 -1.0171  0.3623
    3MOL   S248 1212   4.443   1.581   7.310 -0.3771  0.1436 -0.4397
    3MOL   O249 1213   4.448   1.713   7.383  0.3181 -0.4189  1.6111
    3MOL   O250 1214   4.530   1.469   7.347 -0.3689 -0.5856 -0.0605
    3MOL   C251 1215   4.269   1.526   7.324 -0.2032  0.2637  0.2352
    3MOL   C252 1216   4.210   1.509   7.446  0.5287  0.5737  0.3360
    3MOL   C253 1217   4.076   1.470   7.455  0.0191  0.1972  0.5453
    3MOL   C254 1218   3.995   1.458   7.337  0.0355  0.0440 -0.0595
    3MOL   C255 1219   4.058   1.464   7.216 -0.3904 -0.0544  0.2885
    3MOL   C256 1220   4.198   1.485   7.205 -0.0711 -0.0448 -0.3178
    3MOL   O257 1221   3.860   1.433   7.336 -0.5413 -0.0882  0.2593
    3MOL   H258 1222   4.304   1.787   6.888 -1.2620 -0.6094  1.0986
    3MOL   H259 1223   4.278   1.726   7.128 -0.8750  1.4627 -1.4618
    3MOL   H260 1224   4.663   1.536   7.114  0.8186 -1.5058 -1.9373
    3MOL   H261 1225   4.687   1.576   6.875  0.4156 -0.8957  2.1233
    3MOL   H262 1226   4.270   1.544   7.529  1.7776  2.5934 -1.3644
    3MOL   H263 1227   4.033   1.464   7.554  0.3701 -0.0901  0.6807
    3MOL   H264 1228   4.007   1.439   7.124 -1.2645  1.5566  0.3188
    3MOL   H265 1229   4.245   1.485   7.107 -0.3406  0.7091 -0.4532
    3MOL   C266 1230   3.753   1.653   7.332 -0.1491  0.2204 -0.1988
    3MOL   C267 1231   3.651   1.740   7.277 -0.0433  0.3985 -0.0106
    3MOL   C268 1232   3.567   1.698   7.174  0.0874  0.0138  0.2943
    3MOL   C269 1233   3.582   1.575   7.121 -0.0618  0.2053  0.0384
    3MOL   C270 1234   3.679   1.481   7.180 -1.2665  0.2467  0.6372
    3MOL   C271 1235   3.770   1.524   7.283  0.6196  0.4444 -0.2706
    3MOL   S272 1236   3.448   1.803   7.100  0.3026 -0.0606 -0.8317
    3MOL   O273 1237   3.397   1.893   7.202  0.8157  0.1501  0.0537
    3MOL   O274 1238   3.345   1.725   7.024  0.0127 -0.3657  0.8377
    3MOL   C275 1239   3.532   1.911   6.983 -0.4241  0.3312 -0.7429
    3MOL   C276 1240   3.494   1.891   6.848 -0.4910  0.4299 -0.2292
    3MOL   C277 1241   3.530   1.983   6.749  0.1475 -0.3944  0.3532
    3MOL   C278 1242   3.613   2.090   6.792 -0.0128 -0.0174  0.4195
    3MOL   C279 1243   3.667   2.099   6.922 -1.0195 -0.1384 -0.9979
    3MOL   C280 1244   3.614   2.015   7.023  0.2501  1.2407  0.1428
    3MOL   O281 1245   3.662   2.186   6.704  0.5739 -0.6935  0.2666
    3MOL   H282 1246   3.799   1.682   7.425  0.1394 -0.2626 -0.1852
    3MOL   H283 1247   3.641   1.845   7.302 -0.7512  0.3527 -0.1120
    3MOL   H284 1248   3.532   1.545   7.030  2.9567 -2.5183 -0.8210
    3MOL   H285 1249   3.689   1.387   7.129 -0.0421  1.0859 -0.7093
    3MOL   H286 1250   3.425   1.811   6.826  0.1500 -0.6244  1.5127
    3MOL   H287 1251   3.491   1.969   6.649  1.9040  2.0628 -0.7095
    3MOL   H288 1252   3.732   2.183   6.942 -0.7368 -0.6146  0.0875
    3MOL   H289 1253   3.625   2.037   7.128 -0.0704  1.7237  0.0746
    3MOL   C290 1254   3.458   2.289   6.640 -0.1262  0.2567  0.1704
    3MOL   C291 1255   3.367   2.330   6.541  0.1235 -0.2342 -0.1065
    3MOL   C292 1256   3.396   2.298   6.403  0.6845  0.3911 -0.9260
    3MOL   C293 1257   3.515   2.231   6.368  0.2116  0.2740  0.3315
    3MOL   C294 1258   3.602   2.190   6.469 -0.2316  0.0399 -0.4619
    3MOL   C295 1259   3.578   2.227   6.605  0.2164 -0.3905  0.1712
    3MOL   S296 1260   3.273   2.343   6.278  0.0537  0.2944 -0.1391
    3MOL   O297 1261   3.344   2.350   6.153  0.2738  0.3334  0.4360
    3MOL   O298 1262   3.215   2.463   6.336 -0.0711  0.4929 -0.1209
    3MOL   C299 1263   3.147   2.217   6.269  0.1718 -0.7009 -0.3994
    3MOL   C300 1264   3.166   2.090   6.325  0.2930  0.4863  0.1709
    3MOL   C301 1265   3.065   1.997   6.310 -0.0980  0.0792 -0.2127
    3MOL   C302 1266   2.952   2.022   6.229 -0.1267  0.5859  0.3113
    3MOL   C303 1267   2.939   2.149   6.169 -0.2373 -0.4746 -0.1621
    3MOL   C304 1268   3.037   2.247   6.194  0.5675 -0.6872 -0.3233
    3MOL   O305 1269   2.845   1.939   6.220  0.2723 -0.2906  1.2641
    3MOL   H306 1270   3.450   2.298   6.747  2.5587  0.4135  0.4082
    3MOL   H307 1271   3.273   2.381   6.558 -0.0356 -0.1016 -1.3431
    3MOL   H308 1272   3.533   2.203   6.266  1.7667  0.4069  0.5562
    3MOL   H309 1273   3.688   2.127   6.450 -1.4501 -1.6073 -0.6535
    3MOL   H310 1274   3.255   2.052   6.373 -0.7108 -2.3444 -0.0740
    3MOL   H311 1275   3.079   1.897   6.349 -1.7638  0.7015  2.0888
    3MOL   H312 1276   2.860   2.184   6.104  0.1777  1.8304  0.5254
    3MOL   H313 1277   3.030   2.343   6.143  0.2233 -1.3208 -1.4792
    3MOL   C314 1278   2.868   1.711   6.310 -0.2054 -0.6940 -0.2461
    3MOL   C315 1279   2.891   1.573   6.288 -0.6628 -0.0107  0.1963
    3MOL   C316 1280   2.891   1.529   6.151 -0.2309  0.0961 -0.0086
    3MOL   C317 1281   2.897   1.614   6.040  0.0708  0.7511  0.4077
    3MOL   C318 1282   2.899   1.752   6.070 -1.2928  0.5035 -0.2365
    3MOL   C319 1283   2.874   1.804   6.203  1.0739 -0.7414 -0.3429
    3MOL   S320 1284   2.908   1.356   6.125 -0.1496 -0.3633  0.4095
    3MOL   O321 1285   2.907   1.293   6.258  0.5335  0.8714 -0.5675
    3MOL   O322 1286   3.025   1.335   6.036  0.1356  0.8327 -0.7290
    3MOL   C323 1287   2.764   1.306   6.033 -0.3089  0.2028  0.3492
    3MOL   C324 1288   2.655   1.242   6.094 -0.2613 -0.0875 -0.2444
    3MOL   C325 1289   2.547   1.207   6.010  0.5736 -0.2650 -0.1181
    3MOL   C326 1290   2.546   1.242   5.874  0.4624 -0.0948 -0.3478
    3MOL   C327 1291   2.658   1.309   5.818 -0.1001 -0.5719 -0.7263
    3MOL   C328 1292   2.771   1.340   5.901  0.1218 -0.5441 -0.1320
    3MOL   O329 1293   2.442   1.206   5.796 -0.2127  0.4073  0.3197
    3MOL   H330 1294   2.840   1.749   6.406  0.3229  0.9126 -0.7206
    3MOL   H331 1295   2.883   1.503   6.369 -0.0946  1.2832  1.3987
    3MOL   H332 1296   2.922   1.584   5.940  2.4426  0.8215  0.9618
    3MOL   H333 1297   2.914   1.823   5.990  1.3916 -0.7402 -0.8969
    3MOL   H334 1298   2.656   1.235   6.202 -0.7537  2.1043 -0.0752
    3MOL   H335 1299   2.454   1.183   6.059 -1.4150  2.1646 -2.5476
    3MOL   H336 1300   2.652   1.335   5.713 -0.5499 -1.4519 -0.9267
    3MOL   H337 1301   2.858   1.391   5.863  2.0395 -2.7704  1.1029
    3MOL   C338 1302   2.230   1.233   5.903  0.2013  0.0015 -0.0777
    3MOL   C339 1303   2.123   1.316   5.937 -0.3072  0.2037  1.0283
    3MOL   C340 1304   2.105   1.437   5.864  0.5643 -0.0062 -0.0373
    3MOL   C341 1305   2.197   1.475   5.769  0.5936 -0.0355 -0.0797
    3MOL   C342 1306   2.314   1.400   5.739  0.4919  0.5017 -0.4345
    3MOL   C343 1307   2.331   1.280   5.811  0.9514 -0.4852  0.7596
    3MOL   S344 1308   1.960   1.525   5.895 -0.1304 -0.0773  0.1258
    3MOL   O345 1309   1.862   1.442   5.972 -0.4708  0.0425  0.2872
    3MOL   O346 1310   1.912   1.600   5.778 -0.1755  0.0443 -0.0282
    3MOL   C347 1311   2.024   1.642   6.016  1.0913  0.4115  0.2663
    3MOL   C348 1312   2.015   1.780   5.989 -0.3963  0.1569  0.4100
    3MOL   C349 1313   2.052   1.879   6.088  0.0498  0.8333 -0.1978
    3MOL   C350 1314   2.090   1.834   6.213  0.0492 -0.2710  0.5029
    3MOL   C351 1315   2.109   1.698   6.238 -0.5930  0.1212 -0.1260
    3MOL   C352 1316   2.072   1.601   6.140 -0.9433  0.3380  0.2485
    3MOL   O353 1317   2.092   1.929   6.310  0.1763  0.7307 -0.6025
    3MOL   H354 1318   2.254   1.147   5.963  1.3278  1.0573  0.9948
    3MOL   H355 1319   2.051   1.283   6.011 -2.8966  3.8073  0.2270
    3MOL   H356 1320   2.187   1.580   5.744 -0.3342 -0.4139 -1.3752
    3MOL   H357 1321   2.385   1.438   5.667  0.4201  2.0935  0.2975
    3MOL   H358 1322   1.984   1.806   5.888  0.2723  0.3089  0.2438
    3MOL   H359 1323   2.064   1.985   6.072 -1.9425  1.1426  0.1635
    3MOL   H360 1324   2.149   1.653   6.328  1.5660 -3.0050 -2.5638
    3MOL   H361 1325   2.072   1.494   6.156  0.3436  0.2491 -0.2782
    3MOL   C362 1326   2.289   2.059   6.333  0.3397  0.7512  0.4007
    3MOL   C363 1327   2.410   2.087   6.398  0.4735 -0.4197 -0.6120
    3MOL   C364 1328   2.443   2.009   6.511 -0.1548 -0.1883 -1.0801
    3MOL   C365 1329   2.358   1.908   6.563 -0.1934  0.3651 -0.4729
    3MOL   C366 1330   2.238   1.878   6.499 -0.4820 -0.6625  0.4580
    3MOL   C367 1331   2.204   1.954   6.386 -0.3950 -0.8021 -1.1838
    3MOL   S368 1332   2.596   2.034   6.596  0.2095  0.2565  0.0851
    3MOL   O369 1333   2.701   1.947   6.535  0.3302  0.1456 -0.2527
    3MOL   O370 1334   2.566   2.020   6.745 -0.1269  0.5373 -0.4034
    3MOL   C371 1335   2.642   2.205   6.556 -0.8716 -0.5004 -0.1277
    3MOL   C372 1336   2.604   2.307   6.651 -0.4505 -0.1357  0.2796
    3MOL   C373 1337   2.643   2.439   6.613  0.7302 -0.0084  0.9817
    3MOL   C374 1338   2.724   2.464   6.499  0.0319 -0.0516  0.5776
    3MOL   C375 1339   2.761   2.362   6.412  0.8218  0.0814  0.9021
    3MOL   C376 1340   2.720   2.226   6.443  0.0070 -0.2962 -0.5652
    3MOL   O377 1341   2.762   2.594   6.476  0.7423  0.3105 -0.0227
    3MOL   H378 1342   2.262   2.106   6.240 -2.5085 -1.4494  0.0610
    3MOL   H379 1343   2.481   2.161   6.364  0.7506 -0.1977  0.4252
    3MOL   H380 1344   2.387   1.849   6.649 -2.2609 -0.8804 -0.5808
    3MOL   H381 1345   2.174   1.799   6.536  2.6765 -3.4996  0.1607
    3MOL   H382 1346   2.547   2.283   6.740 -0.8480 -1.3474 -0.2832
    3MOL   H383 1347   2.610   2.522   6.674 -0.0542  0.2407  0.2325
    3MOL   H384 1348   2.816   2.382   6.321  1.0144 -1.2413  0.7170
    3MOL   H385 1349   2.739   2.139   6.382 -1.6369 -0.0826 -1.4086
    3MOL   C386 1350   2.840   2.754   6.632 -0.0293  0.0367  0.6477
    3MOL   C387 1351   2.940   2.808   6.713  0.1554  0.1385 -0.2673
    3MOL   C388 1352   3.065   2.743   6.717  0.3532 -0.8613  0.1595
    3MOL   C389 1353   3.090   2.628   6.644  0.4136  0.9289  0.3522
    3MOL   C390 1354   2.990   2.578   6.555  0.3318  0.7172  0.3977
    3MOL   C391 1355   2.863   2.641   6.554  0.7945 -0.4201  0.0315
    3MOL   S392 1356   3.191   2.783   6.843 -0.1423  0.1286  0.1777
    3MOL   O393 1357   3.281   2.667   6.868 -0.2785  0.3556  0.1245
    3MOL   O394 1358   3.127   2.847   6.960  0.4407 -0.6914  0.2162
    3MOL   C395 1359   3.285   2.901   6.765 -0.3455 -0.1528  0.2720
    3MOL   C396 1360   3.301   3.030   6.821 -1.0587  0.4718  0.2793
    3MOL   C397 1361   3.395   3.122   6.764 -0.1435  0.5285  0.4284
    3MOL   C398 1362   3.459   3.082   6.644  0.1405  0.0089  0.6390
    3MOL   C399 1363   3.434   2.956   6.578 -0.2743  0.1172  0.2157
    3MOL   C400 1364   3.345   2.868   6.644 -0.8117 -0.3854 -0.4889
    3MOL   O401 1365   3.550   3.162   6.584 -0.2619  0.2005 -0.2494
    3MOL   H402 1366   2.740   2.793   6.644 -0.2097  0.0788 -0.8529
    3MOL   H403 1367   2.922   2.894   6.776  1.1637 -0.7843  1.3230
    3MOL   H404 1368   3.190   2.588   6.659  0.5951  1.7835  1.5431
    3MOL   H405 1369   3.005   2.489   6.494  0.4267  1.4928 -0.7236
    3MOL   H406 1370   3.259   3.055   6.917 -1.0137  0.4750  0.2984
    3MOL   H407 1371   3.417   3.217   6.809 -1.6337  0.7556  0.7003
    3MOL   H408 1372   3.471   2.927   6.481  1.8671  2.1792  0.3566
    3MOL   H409 1373   3.323   2.774   6.594  1.4610 -1.6278  0.7387
    3MOL   C410 1374   3.500   3.249   6.377  0.0008 -0.1807 -0.4086
    3MOL   C411 1375   3.484   3.368   6.295 -0.4227  0.0840  0.1685
    3MOL   C412 1376   3.458   3.493   6.357  0.6025 -0.1987  0.5496
    3MOL   C413 1377   3.461   3.514   6.490 -0.2510  0.3286  0.1492
    3MOL   C414 1378   3.474   3.393   6.571 -0.7375 -0.0451  0.7861
    3MOL   C415 1379   3.501   3.265   6.513 -1.0393 -0.0433 -0.6652
    3MOL   S416 1380   3.442   3.638   6.255  0.0171  0.0823 -0.1056
    3MOL   O417 1381   3.535   3.622   6.149 -0.9388 -0.0648 -0.3483
    3MOL   O418 1382   3.459   3.751   6.343  0.3125 -0.5032  0.2973
    3MOL   C419 1383   3.272   3.633   6.182  0.6024  0.1639 -0.6723
    3MOL   C420 1384   3.171   3.730   6.209  0.6329 -0.6890 -0.2630
    3MOL   C421 1385   3.038   3.724   6.161  0.7260 -0.4113  0.1360
    3MOL   C422 1386   3.012   3.610   6.086  0.6290  0.5743 -0.1803
    3MOL   C423 1387   3.108   3.511   6.055 -0.2289 -0.3850 -0.3129
    3MOL   C424 1388   3.237   3.527   6.103 -0.3625  0.5906  0.1378
    3MOL   O425 1389   2.894   3.595   6.019  0.5286  0.4799 -0.7964
    3MOL   H426 1390   3.532   3.157   6.331  1.6015 -0.2661  0.8634
    3MOL   H427 1391   3.500   3.357   6.189 -1.8377  2.3108 -0.3225
    3MOL   H428 1392   3.428   3.608   6.534 -1.6110 -0.6559  1.2789
    3MOL   H429 1393   3.476   3.397   6.679 -1.0173 -0.1432  0.7946
    3MOL   H430 1394   3.201   3.814   6.271 -1.7006 -0.7411  0.9935
    3MOL   H431 1395   2.966   3.800   6.190  1.5624 -0.4916  2.5498
    3MOL   H432 1396   3.084   3.422   5.999 -2.4547 -1.6614  2.5054
    3MOL   H433 1397   3.309   3.452   6.075 -0.2521  1.0691 -0.8767
    3MOL   C434 1398   2.755   3.446   6.161 -0.0665 -0.7134  0.1153
    3MOL   C435 1399   2.653   3.349   6.165 -0.0647 -0.3246 -0.6206
    3MOL   C436 1400   2.620   3.276   6.052 -0.3050  0.3311 -0.2693
    3MOL   C437 1401   2.692   3.296   5.931  0.3032 -1.1344 -0.1287
    3MOL   C438 1402   2.780   3.406   5.919 -0.8931  0.4826  0.0405
    3MOL   C439 1403   2.813   3.481   6.035  0.3539  0.6281  0.4303
    3MOL   S440 1404   2.499   3.145   6.068  0.1970  0.1284  0.0013
    3MOL   O441 1405   2.426   3.124   5.941 -0.3414 -0.7621  0.2311
    3MOL   O442 1406   2.426   3.173   6.193 -0.9855 -0.2285 -0.2070
    3MOL   C443 1407   2.607   2.998   6.081  0.3786  0.2952  0.6425
    3MOL   C444 1408   2.669   2.947   5.962  0.2000 -0.3485  0.0111
    3MOL   C445 1409   2.740   2.829   5.969 -0.3722 -1.0239 -0.1927
    3MOL   C446 1410   2.774   2.770   6.092  0.1614  0.6655  0.0893
    3MOL   C447 1411   2.719   2.826   6.207 -0.0367  0.3004 -0.1521
    3MOL   C448 1412   2.634   2.941   6.208  0.6370 -0.0000  0.2980
    3MOL   O449 1413   2.852   2.657   6.099  0.1439  0.4497 -0.2187
    3MOL   H450 1414   2.765   3.508   6.249 -1.4429  0.3432 -0.4498
    3MOL   H451 1415   2.605   3.336   6.261  2.0330  2.7968  0.9416
    3MOL   H452 1416   2.650   3.249   5.843  1.0536  3.0182 -2.8633
    3MOL   H453 1417   2.823   3.443   5.827 -1.0024 -0.7837 -0.5374
    3MOL   H454 1418   2.649   2.993   5.866  1.4479  1.1362  0.4306
    3MOL   H455 1419   2.774   2.780   5.879 -0.4564  0.7088 -1.1923
    3MOL   H456 1420   2.741   2.779   6.302  0.0185 -0.8596 -0.7375
    3MOL   H457 1421   2.583   2.975   6.297 -1.9978 -0.1806 -1.0772
    3MOL   C458 1422   3.027   2.730   6.245 -0.2581  0.8211 -0.1307
    3MOL   C459 1423   3.162   2.761   6.271 -1.0630 -0.4882  0.1713
    3MOL   C460 1424   3.259   2.719   6.178  0.3274  0.6266  0.3633
    3MOL   C461 1425   3.217   2.653   6.059 -0.0865 -0.0312 -0.2287
    3MOL   C462 1426   3.080   2.632   6.034  0.0491 -0.1553 -0.4897
    3MOL   C463 1427   2.985   2.670   6.132  0.6538  0.2371  0.7107
    3MOL   S464 1428   3.424   2.754   6.216 -0.1529 -0.5848 -0.0242
    3MOL   O465 1429   3.454   2.690   6.348 -0.2640  0.8469  0.1266
    3MOL   O466 1430   3.439   2.899   6.202 -0.1702  0.4111  0.2338
    3MOL   C467 1431   3.523   2.683   6.087  0.2338 -0.7508 -0.2277
    3MOL   C468 1432   3.585   2.558   6.095  0.9299  0.0206  0.1759
    3MOL   C469 1433   3.661   2.511   5.992  0.0080 -0.2447 -0.1007
    3MOL   C470 1434   3.678   2.580   5.875  0.0449 -0.8941 -0.0087
    3MOL   C471 1435   3.626   2.715   5.866  0.1645  0.7472  0.0583
    3MOL   C472 1436   3.543   2.769   5.971 -0.4633  0.0219  0.3140
    3MOL   O473 1437   3.725   2.534   5.761 -0.0343 -0.3707 -0.5238
    3MOL   H474 1438   2.947   2.759   6.311  0.5855  0.4729  1.0737
    3MOL   H475 1439   3.198   2.811   6.360  0.0560 -1.2623  0.1641
    3MOL   H476 1440   3.283   2.632   5.976  0.9837  0.0936  0.5880
    3MOL   H477 1441   3.036   2.588   5.945 -2.4563 -2.9152  1.9937
    3MOL   H478 1442   3.586   2.502   6.188 -1.1234 -0.7002 -0.2203
    3MOL   H479 1443   3.702   2.412   6.002  0.4050 -0.0419  0.3381
    3MOL   H480 1444   3.632   2.756   5.766 -0.0150  1.0833  0.1857
    3MOL   H481 1445   3.480   2.854   5.952  1.6550  0.9632 -2.7619
    3MOL   H482 1446   3.759   2.447   5.776  0.3709  0.4452  4.1166
    4MOL     C1 1447   5.094   7.886   6.884  0.2743  0.1593  0.2856
    4MOL     C2 1448   5.071   7.755   6.932 -0.5514 -1.0709 -0.0597
    4MOL     C3 1449   4.967   7.729   7.026 -0.4912 -0.6745  0.0411
    4MOL     C4 1450   4.877   7.826   7.055 -0.4220 -0.1481  0.6276
    4MOL     C5 1451   4.892   7.957   7.006  0.1947  0.0369 -0.0148
    4MOL     C6 1452   4.999   7.983   6.922 -0.1494  0.5963 -0.3180
    4MOL     S7 1453   4.950   7.574   7.115 -0.3909  0.2268  0.1225
    4MOL     O8 1454   4.812   7.557   7.161  0.5416 -0.1292  0.2018
    4MOL     O9 1455   5.054   7.572   7.219  0.2763  0.4026 -0.2109
    4MOL    C10 1456   4.978   7.444   6.993  0.5019 -0.4510 -0.0477
    4MOL    C11 1457   4.944   7.458   6.851 -0.3015 -0.0274 -0.8311
    4MOL    C12 1458   4.970   7.349   6.760  0.6487 -0.0936 -0.2553
    4MOL    C13 1459   5.024   7.226   6.816 -0.5894 -0.2602 -0.5456
    4MOL    C14 1460   5.051   7.209   6.953  0.1783  0.3765  0.5496
    4MOL    C15 1461   5.033   7.322   7.041 -0.8144  0.2470 -0.3226
    4MOL    O16 1462   5.043   7.120   6.728 -0.0726  0.2510 -0.5160
    4MOL    H17 1463   5.173   7.925   6.821 -0.2566  1.4025  0.3757
    4MOL    H18 1464   5.137   7.671   6.923  0.5571 -0.6566  3.5278
    4MOL    H19 1465   4.797   7.807   7.124  1.2028  0.5606  2.7565
    4MOL    H20 1466   4.822   8.035   7.032 -0.3305 -1.1084  2.0805
    4MOL    H21 1467   4.893   7.545   6.814 -3.1117 -1.4995 -0.6002
    4MOL    H22 1468   4.950   7.358   6.655  0.6481 -2.4224 -0.4861
    4MOL    H23 1469   5.080   7.115   6.996  1.3505  0.5445  0.1543
    4MOL    H24 1470   5.062   7.312   7.144  0.1089  0.2763 -0.5650
    4MOL    H25 1471   5.020   8.084   6.890  0.3963  1.0359  1.3778
    4MOL    C26 1472   4.990   6.895   6.774  0.3060 -0.1512  0.3512
    4MOL    C27 1473   4.907   6.787   6.762  1.2064 -0.8859 -0.6908
    4MOL    C28 1474   4.772   6.806   6.708 -0.3591 -0.2868  0.2122
    4MOL    C29 1475   4.721   6.934   6.674 -0.7228 -0.8276 -0.0353
    4MOL    C30 1476   4.816   7.046   6.680  0.3628 -0.2755 -0.4796
    4MOL    C31 1477   4.948   7.023   6.729  0.2896 -0.7961 -0.2461
    4MOL    S32 1478   4.672   6.668   6.683  0.1715  0.3290  0.0541
    4MOL    O33 1479   4.751   6.548   6.722 -0.1611  0.6664 -0.1666
    4MOL    O34 1480   4.624   6.679   6.547 -0.7772 -0.4704  0.1043
    4MOL    C35 1481   4.521   6.662   6.788  0.2704 -0.1000 -0.4644
    4MOL    C36 1482   4.495   6.568   6.890 -0.5678  0.1778 -0.0273
    4MOL    C37 1483   4.375   6.585   6.967 -0.0920 -0.1902  0.0187
    4MOL    C38 1484   4.293   6.700   6.955 -0.0575  0.7071  1.0544
    4MOL    C39 1485   4.316   6.791   6.853 -0.6242  0.0185 -0.0638
    4MOL    C40 1486   4.426   6.772   6.762 -0.3656 -0.0466  0.8070
    4MOL    O41 1487   4.190   6.711   7.046  0.3692 -0.0374 -0.4890
    4MOL    H42 1488   5.089   6.886   6.817 -0.0344  1.2852  1.4788
    4MOL    H43 1489   4.937   6.686   6.787 -0.3036 -0.5259  2.9953
    4MOL    H44 1490   4.623   6.939   6.629 -0.1502 -0.6918 -1.2974
    4MOL    H45 1491   4.795   7.140   6.632  1.1111 -1.0715 -2.3877
    4MOL    H46 1492   4.574   6.502   6.922  1.3796  1.3497 -2.1853
    4MOL    H47 1493   4.366   6.518   7.052  2.8903  0.8505  1.2513
    4MOL    H48 1494   4.255   6.880   6.858 -2.4543 -1.2468  1.1726
    4MOL    H49 1495   4.439   6.838   6.677  2.9548 -0.6150  0.7973
    4MOL    C50 1496   4.007   6.571   7.090 -0.5306 -0.1057  0.0573
    4MOL    C51 1497   3.888   6.510   7.041  0.4737  0.1513 -0.8704
    4MOL    C52 1498   3.841   6.545   6.918  0.6075 -1.2632  0.0837
    4MOL    C53 1499   3.899   6.655   6.852 -0.9163 -0.4749 -0.7337
    4MOL    C54 1500   4.007   6.726   6.899  0.8347 -0.4567 -0.0737
    4MOL    C55 1501   4.064   6.674   7.013  0.1423  0.6032 -0.2770
    4MOL    S56 1502   3.704   6.457   6.849  0.3581 -0.1925  0.2076
    4MOL    O57 1503   3.623   6.537   6.752 -0.6961  0.0554  0.3270
    4MOL    O58 1504   3.634   6.406   6.968  0.2475 -0.0491 -0.1291
    4MOL    C59 1505   3.771   6.324   6.755  0.0128 -0.2716 -0.3345
    4MOL    C60 1506   3.748   6.306   6.622 -0.0694 -0.1384 -0.5304
    4MOL    C61 1507   3.815   6.196   6.559  0.2341  0.2794  0.0817
    4MOL    C62 1508   3.898   6.108   6.623  0.0483 -0.1694 -0.4983
    4MOL    C63 1509   3.912   6.117   6.764  0.5882  0.0825 -0.1259
    4MOL    C64 1510   3.846   6.229   6.826 -0.7441 -0.3049  0.0863
    4MOL    O65 1511   3.958   6.004   6.555  0.4628 -0.4840  0.6679
    4MOL    H66 1512   4.063   6.526   7.171  0.7092  1.7756  0.2649
    4MOL    H67 1513   3.850   6.421   7.089  2.0117  1.1196  2.2622
    4MOL    H68 1514   3.854   6.676   6.757 -1.4029 -1.3990 -0.7156
    4MOL    H69 1515   4.052   6.798   6.831  1.1153  0.9576  1.5660
    4MOL    H70 1516   3.670   6.369   6.581 -0.2292  0.3240  0.4539
    4MOL    H71 1517   3.786   6.177   6.457 -0.1031 -0.9775  0.4055
    4MOL    H72 1518   3.976   6.051   6.820  0.4263  1.1874  1.3997
    4MOL    H73 1519   3.874   6.242   6.930  2.8838  0.0238 -0.8625
    4MOL    C74 1520   3.774   5.853   6.589 -0.2701 -0.1299  0.5392
    4MOL    C75 1521   3.691   5.753   6.539 -0.7761 -0.0877  0.4693
    4MOL    C76 1522   3.695   5.718   6.399 -0.2092 -0.3939  0.0692
    4MOL    C77 1523   3.801   5.768   6.320  0.3195 -0.5277  0.1980
    4MOL    C78 1524   3.887   5.861   6.372  0.1446 -0.3518  0.6904
    4MOL    C79 1525   3.870   5.909   6.507 -0.1167 -0.3570 -0.4515
    4MOL    S80 1526   3.572   5.607   6.327 -0.0337 -0.3109 -0.1215
    4MOL    O81 1527   3.480   5.568   6.436 -0.4353  0.0569  0.1350
    4MOL    O82 1528   3.656   5.505   6.257  0.5505  0.4314  0.2299
    4MOL    C83 1529   3.483   5.713   6.214  0.3946  0.2872 -0.2269
    4MOL    C84 1530   3.499   5.690   6.072 -0.0715 -0.1269  0.8064
    4MOL    C85 1531   3.435   5.778   5.987  0.1032  0.3518 -0.0150
    4MOL    C86 1532   3.368   5.893   6.035  0.4221  0.5124 -0.3894
    4MOL    C87 1533   3.349   5.912   6.175 -0.5537 -0.1045  0.0197
    4MOL    C88 1534   3.401   5.815   6.265  0.0067  0.0881  0.1224
    4MOL    O89 1535   3.319   5.978   5.936  0.0353 -0.0190 -0.2759
    4MOL    H90 1536   3.760   5.883   6.692 -0.8118 -2.2228  1.0945
    4MOL    H91 1537   3.617   5.713   6.606 -0.5076 -0.7171  0.3958
    4MOL    H92 1538   3.824   5.739   6.218 -1.8363 -0.3784 -0.3658
    4MOL    H93 1539   3.972   5.903   6.320 -0.1339  1.6276  1.7490
    4MOL    H94 1540   3.557   5.607   6.034  0.5806  1.5425 -1.9452
    4MOL    H95 1541   3.420   5.743   5.886 -1.0284 -0.4067  0.4134
    4MOL    H96 1542   3.308   6.004   6.214 -0.4825 -0.6766  1.4786
    4MOL    H97 1543   3.388   5.821   6.372  1.4150  0.0113  0.3004
    4MOL    C98 1544   3.245   6.207   5.936  0.4761 -0.3348 -0.5425
    4MOL    C99 1545   3.277   6.340   5.966  0.4164 -0.2499 -0.1438
    4MOL   C100 1546   3.411   6.380   6.000 -0.1672  0.1955 -0.7389
    4MOL   C101 1547   3.516   6.287   5.998  0.4021 -0.4208 -0.2075
    4MOL   C102 1548   3.479   6.147   5.977  0.1325  0.4860 -0.6421
    4MOL   C103 1549   3.348   6.113   5.956 -0.4662  0.6606 -0.4739
    4MOL   S104 1550   3.454   6.546   6.059  0.1418 -0.2861  0.2033
    4MOL   O105 1551   3.567   6.528   6.147 -0.3041 -0.7628  0.1540
    4MOL   O106 1552   3.327   6.608   6.104 -0.1486  0.0060 -0.3536
    4MOL   C107 1553   3.520   6.640   5.925  0.2317  0.6368 -0.1086
    4MOL   C108 1554   3.580   6.582   5.808  0.1397  0.2098 -0.3089
    4MOL   C109 1555   3.620   6.670   5.704 -0.3012  0.1331 -0.1847
    4MOL   C110 1556   3.605   6.804   5.715  0.3388  0.0893  0.4681
    4MOL   C111 1557   3.539   6.861   5.826  0.2262  0.7547 -0.2652
    4MOL   C112 1558   3.504   6.776   5.928 -0.4173 -0.3047 -0.1711
    4MOL   O113 1559   3.658   6.890   5.620  0.1872 -0.0192 -0.2649
    4MOL   H114 1560   3.144   6.172   5.922  0.2687 -0.2107  0.6351
    4MOL   H115 1561   3.202   6.417   5.978 -0.0472 -0.9246  1.4528
    4MOL   H116 1562   3.616   6.320   6.021  0.7741  0.2769 -2.6790
    4MOL   H117 1563   3.556   6.072   5.984  0.5539  0.8549 -1.2500
    4MOL   H118 1564   3.600   6.477   5.797  0.2516  0.2574 -0.5436
    4MOL   H119 1565   3.665   6.633   5.613  1.7625  1.2795  0.3311
    4MOL   H120 1566   3.531   6.967   5.848  3.2508  0.4804  2.5412
    4MOL   H121 1567   3.452   6.806   6.017  0.4329 -0.2716  0.3275
    4MOL   C122 1568   3.854   6.915   5.760  0.4571 -0.0166  0.2362
    4MOL   C123 1569   3.971   6.994   5.783  0.2687  0.9981 -0.0290
    4MOL   C124 1570   4.019   7.076   5.682 -0.3257  0.0601  0.0339
    4MOL   C125 1571   3.954   7.090   5.562 -0.0686  0.1016  0.4079
    4MOL   C126 1572   3.837   7.018   5.542 -0.2851 -0.7504  0.1284
    4MOL   C127 1573   3.782   6.938   5.642  0.7851 -0.2637 -0.9802
    4MOL   S128 1574   4.177   7.161   5.714  0.4321 -0.3514  0.2314
    4MOL   O129 1575   4.224   7.223   5.585  0.2968  0.0815 -0.8676
    4MOL   O130 1576   4.262   7.072   5.796  0.4578 -0.3129 -0.0548
    4MOL   C131 1577   4.124   7.292   5.825 -0.0134  0.2695  0.1014
    4MOL   C132 1578   4.154   7.282   5.962  0.0628 -0.2085 -0.2200
    4MOL   C133 1579   4.109   7.389   6.045 -0.2981 -0.5062 -0.5310
    4MOL   C134 1580   4.029   7.490   5.994  0.1668  0.2767 -0.6984
    4MOL   C135 1581   3.988   7.493   5.860  0.4740  0.5410 -0.6755
    4MOL   C136 1582   4.031   7.387   5.776  0.0864 -0.2192 -0.1689
    4MOL   O137 1583   3.994   7.584   6.084 -0.0127 -0.0409  0.2971
    4MOL   H138 1584   3.837   6.833   5.829  0.0580  0.7720  1.0911
    4MOL   H139 1585   4.037   6.981   5.867  2.1713  2.8791 -1.1808
    4MOL   H140 1586   3.994   7.155   5.485  0.5995  1.4739  1.8735
    4MOL   H141 1587   3.787   7.034   5.448  1.0767  0.2509 -0.4520
    4MOL   H142 1588   4.212   7.202   6.006 -0.3872  0.3720  1.4624
    4MOL   H143 1589   4.138   7.388   6.149  0.6483 -2.9782 -0.7861
    4MOL   H144 1590   3.924   7.568   5.817 -0.7667  0.5457  1.1521
    4MOL   H145 1591   3.999   7.370   5.674  1.3706 -0.4041 -0.5494
    4MOL   C146 1592   3.814   7.494   6.209  0.2303  0.3302  0.0504
    4MOL   C147 1593   3.680   7.487   6.242  0.9951  0.2036  0.0078
    4MOL   C148 1594   3.588   7.572   6.179 -1.0980  0.0141 -1.0867
    4MOL   C149 1595   3.634   7.679   6.099 -0.0046 -0.0419  0.1034
    4MOL   C150 1596   3.774   7.700   6.075 -0.2459  0.6949  0.4863
    4MOL   C151 1597   3.864   7.598   6.122 -0.3077 -0.0513  0.0358
    4MOL   S152 1598   3.412   7.548   6.199 -0.1890 -0.1716  0.0402
    4MOL   O153 1599   3.391   7.404   6.181  0.5265 -0.4641 -0.1555
    4MOL   O154 1600   3.334   7.648   6.126  0.6055  0.4144 -0.3719
    4MOL   C155 1601   3.385   7.590   6.367 -0.5619  0.2914  1.3210
    4MOL   C156 1602   3.403   7.723   6.416 -0.7221 -0.0801  1.1086
    4MOL   C157 1603   3.381   7.739   6.556 -0.4601 -0.4572  0.1312
    4MOL   C158 1604   3.331   7.636   6.639 -0.1611  0.1366  0.6987
    4MOL   C159 1605   3.313   7.512   6.578 -0.1680  0.0902  0.2595
    4MOL   C160 1606   3.338   7.487   6.443  0.2201  0.3339 -0.6493
    4MOL   O161 1607   3.297   7.658   6.774  0.2139 -0.5386  0.8285
    4MOL   H162 1608   3.878   7.417   6.250 -0.2549 -0.3146 -0.3982
    4MOL   H163 1609   3.650   7.409   6.311 -0.7219  2.7506  2.2871
    4MOL   H164 1610   3.565   7.752   6.061 -0.4771  0.1821  1.3516
    4MOL   H165 1611   3.816   7.779   6.014 -1.0519  0.5556 -0.2464
    4MOL   H166 1612   3.448   7.795   6.349  2.0874 -3.6402 -1.0053
    4MOL   H167 1613   3.408   7.835   6.599 -1.7784 -0.0274  0.0106
    4MOL   H168 1614   3.265   7.433   6.634 -2.3705  0.7856 -0.6099
    4MOL   H169 1615   3.315   7.388   6.406 -3.1989 -0.3601  3.0198
    4MOL   C170 1616   3.086   7.606   6.865  0.1785 -0.0606  0.1822
    4MOL   C171 1617   2.955   7.653   6.909  0.2390  0.4741  0.0488
    4MOL   C172 1618   2.919   7.787   6.891 -0.1580 -0.1089  0.5677
    4MOL   C173 1619   2.999   7.875   6.820 -0.3449  0.6604  0.3466
    4MOL   C174 1620   3.131   7.831   6.780  0.1687 -0.9287 -0.2230
    4MOL   C175 1621   3.175   7.699   6.800 -0.5935 -0.6100 -0.6962
    4MOL   S176 1622   2.763   7.863   6.930  0.3960 -0.2136 -0.0370
    4MOL   O177 1623   2.658   7.764   6.922  0.9247 -0.0705 -0.4480
    4MOL   O178 1624   2.754   7.996   6.865  0.5513  0.1157 -0.2290
    4MOL   C179 1625   2.786   7.908   7.100  0.2495 -0.4826  0.1986
    4MOL   C180 1626   2.701   8.011   7.159  0.6926 -0.2855  0.2755
    4MOL   C181 1627   2.727   8.053   7.293 -0.4025 -0.2747  0.8068
    4MOL   C182 1628   2.851   8.022   7.354 -0.0985  0.3180  0.9449
    4MOL   C183 1629   2.938   7.925   7.293  0.0560  0.7424  0.5098
    4MOL   C184 1630   2.901   7.871   7.168  0.1541 -0.4689 -0.2923
    4MOL   O185 1631   2.889   8.075   7.476  0.2624  0.0215 -0.6430
    4MOL   H186 1632   3.120   7.507   6.892 -0.9150 -0.3566  0.4868
    4MOL   H187 1633   2.897   7.591   6.976 -0.6893  1.6354  0.3535
    4MOL   H188 1634   2.967   7.974   6.792  1.6076  1.0990 -0.3978
    4MOL   H189 1635   3.205   7.895   6.734 -0.3242 -0.2008 -0.0237
    4MOL   H190 1636   2.628   8.058   7.096 -1.8669 -1.9320  1.9064
    4MOL   H191 1637   2.672   8.135   7.337 -1.2723 -0.3895 -0.0356
    4MOL   H192 1638   3.032   7.897   7.339  1.4370  1.2102 -1.9624
    4MOL   H193 1639   2.979   7.809   7.127  0.9261  0.8060 -0.7956
    4MOL   C194 1640   2.684   8.071   7.596  0.0765 -0.3926  0.5462
    4MOL   C195 1641   2.589   8.134   7.676 -0.6290  0.4153 -0.0041
    4MOL   C196 1642   2.602   8.271   7.705  0.2427 -0.1315  0.4469
    4MOL   C197 1643   2.717   8.347   7.657 -0.3022  0.2910 -0.1545
    4MOL   C198 1644   2.809   8.274   7.580 -0.5110 -0.2279 -0.8589
    4MOL   C199 1645   2.790   8.141   7.548 -0.6632 -0.8290 -0.2125
    4MOL   S200 1646   2.475   8.352   7.805 -0.0658  0.0773  0.2437
    4MOL   O201 1647   2.356   8.270   7.795 -0.2559  0.4194 -0.0543
    4MOL   O202 1648   2.477   0.065   7.769  0.1678 -0.5943 -0.1231
    4MOL   C203 1649   2.532   8.323   7.985 -0.8910 -0.5537  0.4713
    4MOL   C204 1650   2.459   8.382   8.085  0.8652  0.9202  0.4347
    4MOL   C205 1651   2.486   8.347   8.217 -0.7389  0.3066 -0.6382
    4MOL   C206 1652   2.598   8.258   8.248  0.8703  0.1266  0.5677
    4MOL   C207 1653   2.680   8.211   8.141  1.0621 -0.1929  0.3572
    4MOL   C208 1654   2.640   8.236   8.007  0.5163  0.1912 -0.0098
    4MOL   O209 1655   2.614   8.202   8.372 -0.3824 -0.4846  0.9024
    4MOL   H210 1656   2.673   7.966   7.573 -0.2640  0.0588 -1.4440
    4MOL   H211 1657   2.503   8.085   7.718 -0.4199  1.5222  1.7538
    4MOL   H212 1658   2.735   0.025   7.682 -1.4180  1.2434 -3.0775
    4MOL   H213 1659   2.896   8.329   7.546 -0.1140 -0.8318 -0.8372
    4MOL   H214 1660   2.373   0.017   8.061  0.4863  0.6763  1.1484
    4MOL   H215 1661   2.424   8.385   8.296 -0.0481  1.1712 -0.5061
    4MOL   H216 1662   2.755   8.136   8.157  0.2720 -0.6933  1.8095
    4MOL   H217 1663   2.702   8.195   7.929  0.9075 -2.2838  1.5686
    4MOL   C218 1664   2.849   8.297   8.391  0.0632  0.1562 -0.3216
    4MOL   C219 1665   2.964   8.309   0.046 -1.1300 -0.4108  0.0387
    4MOL   C220 1666   2.976   8.257   0.174 -0.8981  0.0685  0.2266
    4MOL   C221 1667   2.871   8.182   0.224 -0.0235 -0.3525  0.2683
    4MOL   C222 1668   2.754   8.167   0.147 -0.2114  0.1303  0.1189
    4MOL   C223 1669   2.737   8.223   0.014 -0.2314 -0.5057  0.1609
    4MOL   S224 1670   3.132   8.275   0.264 -0.0817  0.4918 -0.4553
    4MOL   O225 1671   3.184   8.145   0.309  0.4324 -0.1318 -0.2782
    4MOL   O226 1672   3.116   8.386   0.353 -1.3442  0.5690 -0.0996
    4MOL   C227 1673   3.244   8.326   0.140 -1.0078  0.5690 -0.4024
    4MOL   C228 1674   3.285   0.033   0.137 -0.3423 -0.0749 -0.1218
    4MOL   C229 1675   3.365   0.088   0.040  0.2424 -0.3940 -1.3085
    4MOL   C230 1676   3.412   0.003   8.363  0.1441 -0.0819  0.4453
    4MOL   C231 1677   3.375   8.291   8.366  0.3729 -0.4804  0.9247
    4MOL   C232 1678   3.288   8.245   0.036  0.0443  0.3647 -0.0319
    4MOL   O233 1679   3.496   0.053   8.266  0.0197 -0.6571  0.2217
    4MOL   H234 1680   2.841   8.337   8.292  0.5114 -0.1448 -0.4802
    4MOL   H235 1681   3.050   8.360   0.004 -1.8124  1.7019  1.0842
    4MOL   H236 1682   2.881   8.127   0.317 -0.9404 -0.0657  0.5389
    4MOL   H237 1683   2.666   8.116   0.183  0.2517 -0.3426  0.5892
    4MOL   H238 1684   3.256   0.093   0.223 -0.7175  1.1323 -1.0679
    4MOL   H239 1685   3.407   0.186   0.060 -1.6058 -0.0925  1.2459
    4MOL   H240 1686   3.409   8.232   8.283  0.5101  1.0409 -0.1219
    4MOL   H241 1687   3.263   8.140   0.044 -0.4030  0.2087 -2.8077
    4MOL   C242 1688   3.607   0.274   8.234 -0.4466  0.7237 -0.6029
    4MOL   C243 1689   3.700   0.368   8.277 -0.1258 -0.0882 -0.1034
    4MOL   C244 1690   3.770   0.352   8.400 -0.1051 -0.6007  0.0185
    4MOL   C245 1691   3.761   0.226   0.037  0.4998  0.9482  0.1228
    4MOL   C246 1692   3.671   0.123   8.413 -0.9334 -0.0456  0.1690
    4MOL   C247 1693   3.585   0.152   8.306  0.7232 -0.1669  0.0587
    4MOL   S248 1694   3.854   0.481   0.064 -0.2070  0.2543  0.0656
    4MOL   O249 1695   3.984   0.502   0.003 -0.1153 -0.2009  0.3819
    4MOL   O250 1696   3.848   0.447   0.207  0.2619  0.0098  0.0076
    4MOL   C251 1697   3.757   0.632   0.041 -0.0110  0.4690  0.2274
    4MOL   C252 1698   3.664   0.670   0.137 -0.1424 -0.1071 -0.0636
    4MOL   C253 1699   3.584   0.778   0.094 -0.9302  0.3065 -0.2286
    4MOL   C254 1700   3.610   0.849   8.403 -0.3916  0.4254  0.3327
    4MOL   C255 1701   3.704   0.806   8.304 -0.8671  0.0548 -0.6730
    4MOL   C256 1702   3.782   0.697   8.343 -0.3169 -0.4101  0.9972
    4MOL   O257 1703   3.541   0.963   8.380  0.2252  0.3706 -0.6008
    4MOL   H258 1704   3.554   0.274   8.140 -0.2562  0.2533 -0.7123
    4MOL   H259 1705   3.706   0.462   8.225  0.3307 -0.1699 -0.2022
    4MOL   H260 1706   3.812   0.209   0.130  0.7252  1.6613  0.1283
    4MOL   H261 1707   3.685   0.022   0.024 -0.9663 -0.7366 -1.6917
    4MOL   H262 1708   3.657   0.616   0.231  1.2761 -3.5814 -1.8437
    4MOL   H263 1709   3.501   0.815   0.153 -0.7972 -1.6528  1.2291
    4MOL   H264 1710   3.724   0.858   8.212 -2.0587  0.4804 -0.6990
    4MOL   H265 1711   3.847   0.657   8.267 -1.3250 -0.5300  0.1783
    4MOL   C266 1712   3.320   1.017   8.421  1.1656 -2.0152  0.0014
    4MOL   C267 1713   3.187   1.037   8.375  0.3049 -0.0747 -0.5338
    4MOL   C268 1714   3.146   0.968   8.258  0.6364  0.0102 -0.3414
    4MOL   C269 1715   3.232   0.887   8.190  0.2835 -0.1067  0.1312
    4MOL   C270 1716   3.367   0.875   8.231 -0.8857 -0.2322 -0.1611
    4MOL   C271 1717   3.412   0.947   8.346 -0.8242 -0.1627 -0.3895
    4MOL   S272 1718   2.975   1.004   8.214 -0.2014 -0.0591  0.1394
    4MOL   O273 1719   2.969   1.029   8.069 -0.2081  0.2201 -0.1630
    4MOL   O274 1720   2.906   1.091   8.311  0.0764  0.2355 -0.2095
    4MOL   C275 1721   2.910   0.838   8.248  0.3940  0.3510 -0.8915
    4MOL   C276 1722   2.847   0.817   8.373  0.1055  0.0087 -0.3505
    4MOL   C277 1723   2.772   0.702   8.397 -0.2771 -0.0129 -0.1871
    4MOL   C278 1724   2.775   0.601   8.303  0.5343 -0.2108  0.3015
    4MOL   C279 1725   2.840   0.618   8.177 -0.0277 -0.5707 -0.3118
    4MOL   C280 1726   2.908   0.736   8.152 -0.4622  0.6532 -0.5282
    4MOL   O281 1727   2.723   0.480   8.329  0.2940  0.6914  0.3426
    4MOL   H282 1728   3.351   1.074   0.082 -0.6344 -0.4684 -0.3304
    4MOL   H283 1729   3.108   1.092   8.425  0.9866  0.2729  0.1642
    4MOL   H284 1730   3.198   0.835   8.101 -2.6136  0.1556  1.0538
    4MOL   H285 1731   3.441   0.828   8.168 -1.3114  0.3277 -1.0828
    4MOL   H286 1732   2.844   0.895   0.023 -0.1086 -0.2311 -0.1110
    4MOL   H287 1733   2.723   0.692   0.068  2.0750  2.5456  1.3710
    4MOL   H288 1734   2.843   0.545   8.097  0.3710 -0.7551 -0.1315
    4MOL   H289 1735   2.967   0.746   8.062 -0.9338 -2.1138 -1.1819
    4MOL   C290 1736   2.500   0.556   8.267 -0.3763  0.0492 -0.5619
    4MOL   C291 1737   2.369   0.524   8.229  0.3928  0.3498 -0.4666
    4MOL   C292 1738   2.329   0.389   8.218  0.3370  0.5465  0.0402
    4MOL   C293 1739   2.432   0.288   8.224  0.9145 -0.4622  0.4007
    4MOL   C294 1740   2.562   0.317   8.260  0.2850  0.0711  0.0860
    4MOL   C295 1741   2.596   0.453   8.287  0.3788 -0.0442  0.3444
    4MOL   S296 1742   2.156   0.354   8.182 -0.3658 -0.0019  0.0039
    4MOL   O297 1743   2.072   0.456   8.237 -0.5198 -0.3379 -0.0295
    4MOL   O298 1744   2.123   0.216   8.218  0.3388  0.1763  0.8709
    4MOL   C299 1745   2.130   0.356   8.000 -0.5827 -0.2145  0.4079
    4MOL   C300 1746   2.003   0.361   7.941  0.0540 -0.0894 -0.2098
    4MOL   C301 1747   1.988   0.364   7.798 -0.5072  0.7826  0.2619
    4MOL   C302 1748   2.105   0.363   7.713 -0.4774  0.5079 -0.6291
    4MOL   C303 1749   2.232   0.365   7.780  0.2980 -0.0713  0.1960
    4MOL   C304 1750   2.246   0.361   7.920  0.2142  0.3545 -0.2277
    4MOL   O305 1751   2.098   0.363   7.580  0.4457  0.1835  0.2129
    4MOL   H306 1752   2.517   0.659   8.294  0.0639 -0.6925  2.1190
    4MOL   H307 1753   2.293   0.600   8.223  1.2430  1.1697 -0.9439
    4MOL   H308 1754   2.394   0.186   8.217 -0.8291  0.3171 -2.1623
    4MOL   H309 1755   2.638   0.241   8.269 -0.5180 -0.7150  0.4524
    4MOL   H310 1756   1.913   0.355   8.000 -0.8034  1.5412 -1.3445
    4MOL   H311 1757   1.895   0.361   7.743 -0.6498  0.6206  0.5108
    4MOL   H312 1758   2.319   0.355   7.716 -0.2653 -0.1398 -0.5576
    4MOL   H313 1759   2.345   0.364   7.962  1.2549  0.7284 -2.6458
    4MOL   C314 1760   2.202   0.260   7.393  0.3679  0.7110 -0.0628
    4MOL   C315 1761   2.262   0.147   7.332 -0.1730 -0.6977 -0.4843
    4MOL   C316 1762   2.276   0.027   7.402 -0.6848  0.0199  0.1661
    4MOL   C317 1763   2.218   0.009   7.533 -0.4901 -0.9079  0.3173
    4MOL   C318 1764   2.150   0.117   7.587 -0.0465 -0.7151 -0.0041
    4MOL   C319 1765   2.151   0.248   7.525 -0.4900 -0.8095 -0.2484
    4MOL   S320 1766   2.360   8.317   7.316 -0.2289  0.0341  0.0140
    4MOL   O321 1767   2.272   8.266   7.210 -0.4641  0.2843  0.0038
    4MOL   O322 1768   2.417   8.226   7.419 -0.9330 -0.1044  0.1487
    4MOL   C323 1769   2.506   8.381   7.242  0.3674 -0.2220  0.3129
    4MOL   C324 1770   2.602   0.020   7.325  0.3638  0.7859 -0.4839
    4MOL   C325 1771   2.724   0.052   7.264 -0.2958 -0.6688  0.1289
    4MOL   C326 1772   2.750   0.026   7.128 -0.2321  0.2902  0.3185
    4MOL   C327 1773   2.651   8.397   7.042  0.2025 -0.0559  0.3251
    4MOL   C328 1774   2.529   8.360   7.105 -0.3746 -0.5942 -0.3459
    4MOL   O329 1775   2.869   0.045   7.065 -0.9358 -0.4355  0.2375
    4MOL   H330 1776   2.191   0.352   7.336  1.9033  1.1565  0.3496
    4MOL   H331 1777   2.302   0.162   7.232 -1.5644 -0.0125 -0.9474
    4MOL   H332 1778   2.209   8.336   7.577 -2.0530 -1.7657 -1.8207
    4MOL   H333 1779   2.110   0.107   7.687 -0.1046  1.9572  0.2727
    4MOL   H334 1780   2.579   0.042   7.428  0.0479  0.1876 -0.4249
    4MOL   H335 1781   2.803   0.107   7.314 -1.3287  0.9399  0.0244
    4MOL   H336 1782   2.680   8.370   6.941  0.5725  4.6594 -0.9880
    4MOL   H337 1783   2.456   8.302   7.051  1.8454 -3.5429 -0.2999
    4MOL   C338 1784   2.978   8.280   6.950  0.9554  0.4894  0.7677
    4MOL   C339 1785   3.078   8.175   6.944 -0.0295  0.3316 -0.1279
    4MOL   C340 1786   3.154   8.163   7.062  0.4794  0.1380  0.7909
    4MOL   C341 1787   3.126   8.233   7.181  0.2843 -0.5076 -0.6217
    4MOL   C342 1788   3.026   8.335   7.183 -0.2398 -0.0672  0.4999
    4MOL   C343 1789   2.954   8.360   7.066 -0.2806 -0.2981  0.5590
    4MOL   S344 1790   3.278   8.025   7.062  0.0100  0.0617 -0.1983
    4MOL   O345 1791   3.337   8.027   6.930 -0.1259 -0.1907  0.6145
    4MOL   O346 1792   3.215   7.905   7.114 -0.4616  0.4470 -0.1441
    4MOL   C347 1793   3.413   8.065   7.180 -0.0288 -0.2392  1.0588
    4MOL   C348 1794   3.475   7.958   7.257 -0.1651  0.3185 -0.4909
    4MOL   C349 1795   3.556   7.995   7.368  0.5216  0.5459 -0.2758
    4MOL   C350 1796   3.580   8.136   7.400  0.3357  0.0441  0.2673
    4MOL   C351 1797   3.530   8.232   7.308 -0.1319 -0.2077 -0.5257
    4MOL   C352 1798   3.449   8.199   7.194  0.4024 -0.0463 -0.0770
    4MOL   O353 1799   3.635   8.168   7.519  0.3210  1.2091  0.7906
    4MOL   H354 1800   2.925   8.299   6.858  0.8474  2.5666  1.2405
    4MOL   H355 1801   3.116   8.124   6.857  2.6285  1.2651  0.4444
    4MOL   H356 1802   3.183   8.208   7.269  2.8853 -0.0584 -2.1394
    4MOL   H357 1803   3.006   8.392   7.273  0.5573  0.6247  0.2426
    4MOL   H358 1804   3.461   7.855   7.228  0.1656  0.0698  0.2279
    4MOL   H359 1805   3.605   7.912   7.417  0.4038 -0.9515 -2.6269
    4MOL   H360 1806   3.537   8.338   7.329 -0.4331 -0.0849 -1.0448
    4MOL   H361 1807   3.410   8.273   7.126  1.0406  0.7379  0.3908
    4MOL   C362 1808   3.423   8.177   7.633  1.3290  0.5578  0.5254
    4MOL   C363 1809   3.343   8.149   7.742  0.2763 -0.5878 -0.4509
    4MOL   C364 1810   3.399   8.090   7.857  0.3161  0.0567  0.3576
    4MOL   C365 1811   3.538   8.062   7.866 -0.3550  0.0267 -0.1787
    4MOL   C366 1812   3.616   8.082   7.751  0.1099 -0.2131 -0.5336
    4MOL   C367 1813   3.556   8.145   7.636 -0.1093 -0.6691 -0.1145
    4MOL   S368 1814   3.287   8.061   7.995  0.4624 -0.1725 -0.1023
    4MOL   O369 1815   3.376   8.041   8.112 -0.1201 -0.2186 -0.2284
    4MOL   O370 1816   3.189   7.962   7.964 -0.0987 -0.3261 -0.2125
    4MOL   C371 1817   3.210   8.220   8.019  0.0977 -0.2311 -0.3780
    4MOL   C372 1818   3.284   8.333   8.033  0.5530  0.5133 -0.6384
    4MOL   C373 1819   3.221   0.031   8.059  0.2195 -0.0763  0.9527
    4MOL   C374 1820   3.085   0.046   8.042  0.6733 -0.3313  0.0220
    4MOL   C375 1821   3.009   8.360   7.999 -0.0519  0.2784 -0.1712
    4MOL   C376 1822   3.071   8.232   8.000 -0.1718 -0.0641  0.4106
    4MOL   O377 1823   3.019   0.169   8.050 -0.5121 -0.4977 -0.1713
    4MOL   H378 1824   3.382   8.228   7.547  0.5657 -2.2595 -0.8546
    4MOL   H379 1825   3.238   8.168   7.730  0.1148  0.3984  2.3437
    4MOL   H380 1826   3.577   8.018   7.956 -0.0305  0.4020 -0.1310
    4MOL   H381 1827   3.713   8.036   7.740 -2.0858 -5.2654  0.0234
    4MOL   H382 1828   3.391   8.328   8.045  0.5364 -1.2382 -1.1137
    4MOL   H383 1829   3.290   0.114   8.069  0.4920 -0.1919  0.0535
    4MOL   H384 1830   2.903   8.377   7.983  0.1938  0.5072 -1.6233
    4MOL   H385 1831   3.004   8.147   7.991 -0.6382  0.3588 -0.1236
    4MOL   C386 1832   3.048   0.202   8.288  0.4385  0.1515  0.0631
    4MOL   C387 1833   3.087   0.288   8.397 -0.2565 -0.2817  0.1678
    4MOL   C388 1834   3.146   0.415   8.373  0.7528  0.0013  0.6827
    4MOL   C389 1835   3.161   0.456   8.242  0.1693  0.6125 -0.2269
    4MOL   C390 1836   3.119   0.372   8.132 -0.3419  0.6868  0.1196
    4MOL   C391 1837   3.060   0.248   8.153 -0.5397 -0.5575  0.2084
    4MOL   S392 1838   3.210   0.526   0.072 -0.0069 -0.0980  0.4796
    4MOL   O393 1839   3.178   0.664   0.034 -0.0040 -0.6266  0.1643
    4MOL   O394 1840   3.352   0.488   0.094  0.2042  0.4656  0.4052
    4MOL   C395 1841   3.121   0.480   0.217  0.2734 -0.1415 -1.0025
    4MOL   C396 1842   2.995   0.535   0.244  0.4510 -0.0462 -0.3565
    4MOL   C397 1843   2.924   0.496   0.363 -0.5605  0.0636 -1.0865
    4MOL   C398 1844   2.966   0.387   0.442  1.0234 -0.2270  0.3974
    4MOL   C399 1845   3.086   0.324   0.405 -0.0127  0.6141  0.0249
    4MOL   C400 1846   3.165   0.374   0.294  0.1752  0.0912  0.0738
    4MOL   O401 1847   2.902   0.364   0.558  0.7253  0.9286  0.1021
    4MOL   H402 1848   3.013   0.102   8.309 -0.9815  0.8284  0.9739
    4MOL   H403 1849   3.071   0.260   0.075  0.8786  0.7354  0.6306
    4MOL   H404 1850   3.214   0.549   8.230 -0.1983  0.8872  0.2406
    4MOL   H405 1851   3.131   0.417   8.035 -1.4040 -0.8783 -0.7521
    4MOL   H406 1852   2.961   0.623   0.191 -2.5779 -1.0917 -0.2314
    4MOL   H407 1853   2.836   0.554   0.385 -0.9839 -1.0203  0.0948
    4MOL   H408 1854   3.123   0.238   0.458 -2.4021  1.2543  2.8453
    4MOL   H409 1855   3.261   0.333   0.263  1.0479  1.4522  0.9219
    4MOL   C410 1856   2.886   0.178   0.706  0.0742 -0.4988 -0.1994
    4MOL   C411 1857   2.858   0.048   0.736 -0.2082 -0.2796 -0.4400
    4MOL   C412 1858   2.794   8.400   0.637 -0.9112 -0.9560 -0.0337
    4MOL   C413 1859   2.754   0.032   0.506 -0.7962  0.1548  0.3313
    4MOL   C414 1860   2.785   0.170   0.479 -0.2791 -0.2952 -0.3755
    4MOL   C415 1861   2.860   0.236   0.580  0.2904  0.5851 -0.3669
    4MOL   S416 1862   2.781   8.230   0.671 -0.4016  0.1905  0.2111
    4MOL   O417 1863   2.695   8.171   0.566  0.5168 -0.1479 -0.1050
    4MOL   O418 1864   2.753   8.208   0.814  1.1054  0.3557  0.7102
    4MOL   C419 1865   2.942   8.146   0.647 -0.2526 -0.3114 -0.4378
    4MOL   C420 1866   3.060   8.217   0.613  0.3804 -0.0195  0.3405
    4MOL   C421 1867   3.181   8.142   0.601 -0.4824  0.2111 -0.5634
    4MOL   C422 1868   3.183   7.998   0.617 -0.0646 -0.2319 -0.1966
    4MOL   C423 1869   3.061   7.934   0.646  0.0436 -0.1105  0.4137
    4MOL   C424 1870   2.943   8.009   0.663  0.0404  0.1448 -0.3263
    4MOL   O425 1871   3.302   7.931   0.606  0.1132 -0.7370 -0.4157
    4MOL   H426 1872   2.938   0.236   0.781 -1.4771  0.0152  0.5099
    4MOL   H427 1873   2.892   8.418   0.823 -0.7301  0.0699 -0.0077
    4MOL   H428 1874   2.723   8.395   0.422 -2.1045 -0.0400  0.9390
    4MOL   H429 1875   2.754   0.219   0.388 -1.8324 -1.5630 -0.5512
    4MOL   H430 1876   3.062   8.325   0.600  0.1162 -0.1617 -0.9572
    4MOL   H431 1877   3.272   8.199   0.590 -2.2022  2.7094 -2.1290
    4MOL   H432 1878   3.062   7.827   0.657 -2.4639 -0.3716 -1.3342
    4MOL   H433 1879   2.845   7.968   0.682 -0.5386  2.1221  1.2643
    4MOL   C434 1880   3.246   7.766   0.438  0.2362  0.0048 -0.6581
    4MOL   C435 1881   3.242   7.624   0.413  0.4953 -0.1519  0.5011
    4MOL   C436 1882   3.309   7.529   0.493  0.5797  1.0080  0.3294
    4MOL   C437 1883   3.369   7.570   0.610 -0.1420  0.8783  0.6270
    4MOL   C438 1884   3.365   7.703   0.642  0.2739  1.0937 -0.4061
    4MOL   C439 1885   3.299   7.799   0.566  0.4453 -0.1878  0.1015
    4MOL   S440 1886   3.293   7.357   0.448 -0.0446  0.1844 -0.0352
    4MOL   O441 1887   3.212   7.337   0.325 -0.0411 -0.2859  0.1901
    4MOL   O442 1888   3.258   7.291   0.573 -0.1896 -0.2901 -0.9447
    4MOL   C443 1889   3.462   7.303   0.415 -0.0006 -0.1209 -0.1225
    4MOL   C444 1890   3.531   7.367   0.310 -0.1238  0.0095 -0.0646
    4MOL   C445 1891   3.656   7.320   0.274 -1.2364  0.2145  0.1487
    4MOL   C446 1892   3.710   7.199   0.330  0.5032  0.4082 -0.0307
    4MOL   C447 1893   3.639   7.139   0.438  0.1651 -0.1360  0.0005
    4MOL   C448 1894   3.521   7.196   0.484  0.2425  0.5247 -0.2387
    4MOL   O449 1895   3.829   7.142   0.283 -0.4672  0.2861  0.0673
    4MOL   H450 1896   3.190   7.823   0.365 -0.8736 -0.4160 -0.1319
    4MOL   H451 1897   3.184   7.586   0.330  0.8536 -2.7296  1.3831
    4MOL   H452 1898   3.412   7.500   0.680  0.0833 -0.7175 -1.0758
    4MOL   H453 1899   3.396   7.735   0.740  2.0664  1.1391 -0.9779
    4MOL   H454 1900   3.473   7.436   0.251  3.0746  0.6614 -2.5866
    4MOL   H455 1901   3.702   7.374   0.193  3.8659 -0.3698  2.4798
    4MOL   H456 1902   3.675   7.050   0.489 -0.9955 -1.0371 -0.7273
    4MOL   H457 1903   3.472   7.155   0.571 -0.4156  0.4046 -0.6630
    4MOL   C458 1904   3.859   7.087   0.055 -0.6508  0.1454 -0.8320
    4MOL   C459 1905   3.864   6.983   8.383 -0.5838  0.2960 -0.3114
    4MOL   C460 1906   3.825   6.851   8.419  0.1577 -0.2145  1.1046
    4MOL   C461 1907   3.775   6.826   0.123  0.0939 -0.0666  0.0645
    4MOL   C462 1908   3.780   6.924   0.223  0.4547 -0.4579  0.1760
    4MOL   C463 1909   3.822   7.046   0.190  0.3330  0.7805  0.6416
    4MOL   S464 1910   3.812   6.727   8.295  0.0835  0.0168 -0.5036
    4MOL   O465 1911   3.935   6.651   8.309  0.6768 -0.0039  0.3807
    4MOL   O466 1912   3.783   6.792   8.167  0.2523  0.4462  0.7348
    4MOL   C467 1913   3.669   6.615   8.328  0.8478  0.2440 -0.3913
    4MOL   C468 1914   3.546   6.645   8.395 -0.2046  0.2011  0.5876
    4MOL   C469 1915   3.438   6.553   8.395 -0.0112  0.2190 -0.5175
    4MOL   C470 1916   3.461   6.427   8.334  1.0568  0.2944  0.2597
    4MOL   C471 1917   3.581   6.394   8.271  0.2964 -0.2888 -0.2564
    4MOL   C472 1918   3.678   6.492   8.262  0.6398 -0.0696 -0.3306
    4MOL   O473 1919   3.368   6.327   8.350  0.0740  0.0779 -0.4787
    4MOL   H474 1920   3.889   7.190   0.045  0.2821  0.0214  0.5146
    4MOL   H475 1921   3.893   7.009   8.282  0.2679 -0.3483 -0.2329
    4MOL   H476 1922   3.740   6.728   0.151  2.0089 -0.6918  0.3540
    4MOL   H477 1923   3.752   6.901   0.325  0.3778 -1.5161 -0.0732
    4MOL   H478 1924   3.531   6.740   0.018  0.7374  0.9274 -0.5283
    4MOL   H479 1925   3.349   6.578   0.026  0.5913 -0.9423  0.9922
    4MOL   H480 1926   3.601   6.297   8.229  1.6250  0.8796 -2.4549
    4MOL   H481 1927   3.774   6.489   8.211  0.2898 -1.8641 -0.9141
    4MOL   H482 1928   3.316   6.307   8.273  2.1111 -3.3433 -1.0836
    5MOL     C1 1929   4.152   4.866   4.663  0.2926 -0.3950  1.1702
    5MOL     C2 1930   4.262   4.787   4.700 -0.0259 -0.1821  0.2669
    5MOL     C3 1931   4.290   4.778   4.841  0.6238 -0.0628 -0.3620
    5MOL     C4 1932   4.205   4.838   4.937  0.3084 -0.1937  0.0792
    5MOL     C5 1933   4.092   4.907   4.892  0.2761  0.3568  0.3906
    5MOL     C6 1934   4.071   4.922   4.756 -0.6335 -0.2924 -0.0727
    5MOL     S7 1935   4.433   4.683   4.892  0.1773 -0.3360  0.6142
    5MOL     O8 1936   4.436   4.563   4.804  0.3824 -0.1634 -0.2657
    5MOL     O9 1937   4.420   4.659   5.037 -0.0037 -0.2680  0.7818
    5MOL    C10 1938   4.587   4.778   4.869  0.3610  0.1038  0.6272
    5MOL    C11 1939   4.651   4.821   4.985  0.1222 -0.2719  0.1813
    5MOL    C12 1940   4.774   4.889   4.961 -0.3780 -0.4601  0.5334
    5MOL    C13 1941   4.820   4.932   4.835  0.6280 -0.5945 -0.5298
    5MOL    C14 1942   4.741   4.893   4.724 -0.2098 -0.6631 -0.8091
    5MOL    C15 1943   4.628   4.811   4.737 -0.1184  0.3532 -0.4333
    5MOL    O16 1944   4.935   4.997   4.813 -0.0517 -0.9428 -0.5041
    5MOL    H17 1945   4.132   4.888   4.559  0.4065 -1.2584  0.9671
    5MOL    H18 1946   4.332   4.746   4.629 -0.4390  0.4267 -0.5025
    5MOL    H19 1947   4.227   4.826   5.042 -0.1005 -3.5020 -0.1815
    5MOL    H20 1948   4.018   4.943   4.962  1.4515  0.7545  1.4451
    5MOL    H21 1949   4.612   4.802   5.084 -0.0597 -1.0144 -0.0262
    5MOL    H22 1950   4.834   4.920   5.045 -0.1782  0.4748  0.0434
    5MOL    H23 1951   4.775   4.921   4.625  1.6026 -0.1132 -0.0442
    5MOL    H24 1952   4.568   4.781   4.653 -2.8949  1.9215  0.9288
    5MOL    H25 1953   3.984   4.968   4.710  0.8091 -0.0004 -2.5676
    5MOL    C26 1954   4.861   5.215   4.840  0.1183  0.9264 -0.2277
    5MOL    C27 1955   4.858   5.348   4.797  0.2152  0.0330 -0.4904
    5MOL    C28 1956   4.921   5.388   4.678 -1.0432 -0.2646  0.1153
    5MOL    C29 1957   4.982   5.289   4.595 -0.2223  0.1086  0.0888
    5MOL    C30 1958   4.986   5.157   4.640  0.2524 -0.0729 -0.1424
    5MOL    C31 1959   4.931   5.124   4.764 -0.1032 -0.3416  0.0059
    5MOL    S32 1960   4.902   5.556   4.631 -0.2621 -0.0962 -0.1226
    5MOL    O33 1961   4.767   5.605   4.665 -0.0077 -0.6842 -0.1053
    5MOL    O34 1962   4.948   5.572   4.492  0.2738 -0.6162 -0.6052
    5MOL    C35 1963   5.023   5.639   4.740 -0.7202 -0.2919 -0.0037
    5MOL    C36 1964   5.147   5.573   4.762 -0.1108  0.6155  0.1096
    5MOL    C37 1965   5.238   5.636   4.849  0.5726  0.4374 -0.0456
    5MOL    C38 1966   5.204   5.757   4.917 -0.2494  0.4445 -0.2388
    5MOL    C39 1967   5.071   5.811   4.900  0.2862  0.1639 -0.7191
    5MOL    C40 1968   4.984   5.753   4.809  0.0603 -0.4769  0.5870
    5MOL    O41 1969   5.289   5.810   5.001  0.3395 -0.6379  0.5891
    5MOL    H42 1970   4.818   5.176   4.932  0.6815  0.8405 -0.0002
    5MOL    H43 1971   4.811   5.425   4.857 -0.4365 -1.4637  0.9633
    5MOL    H44 1972   5.024   5.307   4.497 -0.7902 -0.2217 -0.2158
    5MOL    H45 1973   5.027   5.078   4.578  2.3150  0.7971  0.0868
    5MOL    H46 1974   5.173   5.486   4.704 -3.1489 -0.7133  0.6096
    5MOL    H47 1975   5.339   5.598   4.860  0.8903  0.9646 -1.0764
    5MOL    H48 1976   5.053   5.904   4.952  1.1161  1.3144 -2.4280
    5MOL    H49 1977   4.889   5.800   4.792  0.4343  0.9076  2.2855
    5MOL    C50 1978   5.391   5.665   5.152 -0.0450 -0.3714  0.4539
    5MOL    C51 1979   5.395   5.608   5.278 -0.2044 -0.0767  0.2684
    5MOL    C52 1980   5.294   5.626   5.372  0.2911  0.4286  0.5671
    5MOL    C53 1981   5.191   5.718   5.343  0.4996 -0.1887 -0.0027
    5MOL    C54 1982   5.191   5.782   5.217  0.8139 -0.5031  0.1278
    5MOL    C55 1983   5.289   5.755   5.124  0.0728 -0.2978  0.8748
    5MOL    S56 1984   5.300   5.531   5.521 -0.3748 -0.2117  0.3605
    5MOL    O57 1985   5.384   5.608   5.611 -0.1502 -0.3221  1.2071
    5MOL    O58 1986   5.347   5.399   5.470 -0.0102 -0.1432 -0.1736
    5MOL    C59 1987   5.132   5.516   5.589 -0.1619  0.3566  0.0141
    5MOL    C60 1988   5.069   5.625   5.646  0.0644 -0.4833  0.1499
    5MOL    C61 1989   4.945   5.603   5.711 -0.2551 -0.3922 -0.9902
    5MOL    C62 1990   4.885   5.474   5.700 -0.1572  0.0119  0.0656
    5MOL    C63 1991   4.948   5.368   5.635  0.0694  0.3874 -0.2255
    5MOL    C64 1992   5.074   5.390   5.581  0.4296 -0.3410  0.4761
    5MOL    O65 1993   4.757   5.456   5.754 -0.0070  0.3566 -0.0524
    5MOL    H66 1994   5.472   5.652   5.083 -0.2648 -0.0593  0.1361
    5MOL    H67 1995   5.478   5.541   5.295 -0.4357 -0.7115 -1.0090
    5MOL    H68 1996   5.098   5.724   5.399 -0.4163 -0.0316 -1.5269
    5MOL    H69 1997   5.112   5.852   5.194 -0.5749 -1.4223  2.0587
    5MOL    H70 1998   5.117   5.721   5.649  1.5349 -1.1523 -0.8376
    5MOL    H71 1999   4.907   5.684   5.771  0.3679  0.8073 -2.1768
    5MOL    H72 2000   4.886   5.280   5.625 -1.6630  1.6431 -0.8443
    5MOL    H73 2001   5.110   5.297   5.540 -0.4873 -0.4009 -0.2056
    5MOL    C74 2002   4.600   5.635   5.742 -0.2146 -0.7715  0.5944
    5MOL    C75 2003   4.483   5.691   5.677  0.2938  0.5583 -0.2639
    5MOL    C76 2004   4.418   5.616   5.580 -0.6235 -0.0062  1.0286
    5MOL    C77 2005   4.466   5.494   5.535  0.2598  0.1069  0.4772
    5MOL    C78 2006   4.581   5.441   5.597  0.4193 -0.4429  0.0453
    5MOL    C79 2007   4.647   5.512   5.701 -0.1665  0.0561 -0.2003
    5MOL    S80 2008   4.269   5.682   5.510  0.4017  0.3325 -0.7738
    5MOL    O81 2009   4.252   5.620   5.375  0.0673  0.2448  0.0985
    5MOL    O82 2010   4.271   5.828   5.536  0.1654  0.6640 -0.5083
    5MOL    C83 2011   4.135   5.611   5.595 -0.3465  0.1549  0.7918
    5MOL    C84 2012   4.014   5.678   5.580  1.2862 -0.0742 -0.5894
    5MOL    C85 2013   3.900   5.613   5.618 -0.7585 -0.9221 -0.8590
    5MOL    C86 2014   3.904   5.485   5.678 -0.6309 -0.2237 -0.2091
    5MOL    C87 2015   4.026   5.424   5.693  0.3616 -0.5591  0.1493
    5MOL    C88 2016   4.148   5.488   5.667 -0.4792  0.7004  0.2806
    5MOL    O89 2017   3.793   5.417   5.716  0.4044 -0.1927  0.1591
    5MOL    H90 2018   4.659   5.690   5.814 -0.9208  1.2317 -0.3044
    5MOL    H91 2019   4.451   5.789   5.709 -1.7552 -0.3950  0.6875
    5MOL    H92 2020   4.411   5.438   5.460  0.5159  0.4473  0.0333
    5MOL    H93 2021   4.622   5.347   5.564  0.4017 -0.3579 -0.2230
    5MOL    H94 2022   4.009   5.763   5.514 -3.2845  0.1966 -0.0407
    5MOL    H95 2023   3.806   5.665   5.609  0.1615  1.0386  0.4989
    5MOL    H96 2024   4.030   5.327   5.739  3.5983 -1.5200 -1.9604
    5MOL    H97 2025   4.238   5.431   5.681 -1.6562 -0.8357  1.8498
    5MOL    C98 2026   3.582   5.424   5.591  0.3712 -0.1973 -0.2827
    5MOL    C99 2027   3.492   5.354   5.507 -0.3462 -0.5955 -0.4964
    5MOL   C100 2028   3.537   5.247   5.424 -0.0708 -0.0896 -0.0184
    5MOL   C101 2029   3.671   5.201   5.449 -0.0362 -0.5271 -0.2356
    5MOL   C102 2030   3.757   5.265   5.544 -0.8306 -0.0726 -0.1666
    5MOL   C103 2031   3.713   5.374   5.613 -0.7005  0.6092 -0.3713
    5MOL   S104 2032   3.437   5.172   5.294 -0.1550  0.1225 -0.1302
    5MOL   O105 2033   3.526   5.136   5.182  0.4040 -0.0304 -0.5910
    5MOL   O106 2034   3.323   5.257   5.267 -0.6977 -0.1650  0.1133
    5MOL   C107 2035   3.374   5.012   5.352 -0.0120  0.9571 -0.5052
    5MOL   C108 2036   3.341   4.922   5.255 -0.3937  0.1928  0.5793
    5MOL   C109 2037   3.267   4.808   5.293  0.3178  0.0353  0.2988
    5MOL   C110 2038   3.241   4.781   5.427  0.1364 -0.1271  0.0494
    5MOL   C111 2039   3.285   4.863   5.525 -0.8290  0.0271 -0.2323
    5MOL   C112 2040   3.350   4.982   5.490 -0.4033  0.1071  0.6291
    5MOL   O113 2041   3.185   4.658   5.469  0.0606 -0.0157 -0.1072
    5MOL   H114 2042   3.545   5.507   5.650  1.1725 -0.0288 -0.0134
    5MOL   H115 2043   3.388   5.384   5.495 -0.2084 -0.1392 -0.5644
    5MOL   H116 2044   3.719   5.123   5.393 -1.1795 -1.5904  0.2555
    5MOL   H117 2045   3.852   5.220   5.568 -0.8628  0.0880  0.2712
    5MOL   H118 2046   3.378   4.937   5.155 -0.0096  0.8903  0.8259
    5MOL   H119 2047   3.230   4.735   5.222  0.1243  0.5594 -0.1487
    5MOL   H120 2048   3.264   4.840   5.628 -3.3974 -0.1365 -0.7598
    5MOL   H121 2049   3.382   5.049   5.569  0.6839 -0.5533  0.7672
    5MOL   C122 2050   2.963   4.680   5.552  0.4092 -0.6358  0.2722
    5MOL   C123 2051   2.831   4.670   5.529  0.3262  0.0433 -0.1126
    5MOL   C124 2052   2.781   4.636   5.406 -0.6622  0.8314 -0.4111
    5MOL   C125 2053   2.873   4.611   5.299  0.1511 -0.3323 -0.1362
    5MOL   C126 2054   3.009   4.609   5.318 -0.1828 -0.1968  0.1813
    5MOL   C127 2055   3.049   4.646   5.443 -0.4790  0.6337 -1.0125
    5MOL   S128 2056   2.604   4.631   5.375  0.5194 -0.5351 -0.2283
    5MOL   O129 2057   2.576   4.771   5.345  0.1925 -0.0496 -0.2753
    5MOL   O130 2058   2.543   4.566   5.490 -1.0024 -0.1210 -0.1854
    5MOL   C131 2059   2.574   4.525   5.235  0.4629  0.0478  0.1888
    5MOL   C132 2060   2.610   4.564   5.109  0.1116 -0.2933  0.3321
    5MOL   C133 2061   2.575   4.479   4.999 -0.6548 -0.0545 -0.7321
    5MOL   C134 2062   2.507   4.355   5.013 -0.6530  0.3468  0.1286
    5MOL   C135 2063   2.476   4.312   5.145 -0.7761  0.7887  0.8875
    5MOL   C136 2064   2.513   4.398   5.250  0.9157  0.1362 -0.7700
    5MOL   O137 2065   2.484   4.269   4.906 -0.2566 -0.1937 -0.0074
    5MOL   H138 2066   2.997   4.699   5.653 -0.5167  2.3860  0.0564
    5MOL   H139 2067   2.762   4.701   5.606 -0.2033 -0.9384 -0.1994
    5MOL   H140 2068   2.838   4.577   5.203 -1.1882  1.9198 -0.5054
    5MOL   H141 2069   3.079   4.578   5.242  2.0237  2.8539  0.8850
    5MOL   H142 2070   2.660   4.659   5.104 -1.0560  0.2439 -1.4163
    5MOL   H143 2071   2.612   4.515   4.904  0.1554  1.8403  0.2665
    5MOL   H144 2072   2.420   4.221   5.161  1.6282 -1.1862 -1.4646
    5MOL   H145 2073   2.484   4.376   5.352 -1.1634  0.6497 -1.2328
    5MOL   C146 2074   2.247   4.256   4.904  0.0549 -0.3154  0.7823
    5MOL   C147 2075   2.127   4.186   4.880  0.9275  0.6796  0.3027
    5MOL   C148 2076   2.132   4.044   4.870 -0.0841  0.3969  0.1393
    5MOL   C149 2077   2.253   3.974   4.896 -0.3594  0.3123 -0.3867
    5MOL   C150 2078   2.376   4.046   4.909  0.8373  0.3934  0.0990
    5MOL   C151 2079   2.367   4.191   4.914 -0.1312  0.4749 -0.1560
    5MOL   S152 2080   1.979   3.950   4.841  0.0975  0.1642 -0.3646
    5MOL   O153 2081   1.911   3.938   4.974 -0.7509  0.3257  0.2331
    5MOL   O154 2082   2.017   3.825   4.768 -0.3310 -0.2026  0.7711
    5MOL   C155 2083   1.888   4.058   4.734 -0.3759  0.4599  0.2096
    5MOL   C156 2084   1.781   4.121   4.794 -0.0519 -0.1953 -0.0557
    5MOL   C157 2085   1.707   4.217   4.713 -0.0983 -0.1673 -0.3838
    5MOL   C158 2086   1.742   4.234   4.580 -0.0370  0.8206 -0.7077
    5MOL   C159 2087   1.854   4.166   4.521 -0.0388 -0.6519  0.1300
    5MOL   C160 2088   1.923   4.074   4.600 -0.1550  1.0112 -0.0599
    5MOL   O161 2089   1.665   4.324   4.509 -0.0283 -0.2387 -0.3102
    5MOL   H162 2090   2.240   4.364   4.909 -1.0188 -0.3974  1.3764
    5MOL   H163 2091   2.033   4.238   4.870 -1.0447 -2.8495 -0.2962
    5MOL   H164 2092   2.257   3.866   4.891  1.3337  0.1943  2.4189
    5MOL   H165 2093   2.471   3.996   4.901  0.3403 -0.6264  0.4994
    5MOL   H166 2094   1.753   4.098   4.895  0.1808  1.1912  0.3289
    5MOL   H167 2095   1.627   4.269   4.762  0.4254  1.2507 -1.0104
    5MOL   H168 2096   1.873   4.184   4.416 -0.4476  2.0372  0.4937
    5MOL   H169 2097   2.000   4.007   4.565  1.2495  0.8246  3.1372
    5MOL   C170 2098   1.485   4.211   4.387  0.1536  0.3531  0.0145
    5MOL   C171 2099   1.430   4.173   4.264 -0.9619 -0.1854 -0.3782
    5MOL   C172 2100   1.496   4.217   4.149 -0.8216  1.0186  0.2514
    5MOL   C173 2101   1.614   4.296   4.149 -0.1591 -0.2335  0.0421
    5MOL   C174 2102   1.672   4.325   4.275  0.7730  0.1868 -0.1283
    5MOL   C175 2103   1.606   4.283   4.395  0.1310 -0.8897 -0.3198
    5MOL   S176 2104   1.438   4.174   3.986 -0.1369  0.0028 -0.2752
    5MOL   O177 2105   1.315   4.093   3.995 -0.1016 -0.3797 -1.1061
    5MOL   O178 2106   1.548   4.122   3.902  0.3519  0.7700 -0.4649
    5MOL   C179 2107   1.394   4.341   3.931 -0.1041  0.4702 -0.2703
    5MOL   C180 2108   1.344   4.348   3.799 -0.3419  0.0957 -0.0790
    5MOL   C181 2109   1.321   4.476   3.737 -0.2054 -0.8138 -0.3834
    5MOL   C182 2110   1.356   4.593   3.807 -0.1807  0.1129  0.9753
    5MOL   C183 2111   1.412   4.581   3.935 -0.1068 -0.0441  0.0174
    5MOL   C184 2112   1.425   4.457   4.000 -0.0437  0.5112  0.2542
    5MOL   O185 2113   1.350   4.711   3.738  0.7772  0.2583  0.0978
    5MOL   H186 2114   1.435   4.178   4.477  1.5616  0.5393  0.8831
    5MOL   H187 2115   1.338   4.119   4.246 -1.4440  0.5085 -0.0056
    5MOL   H188 2116   1.666   4.318   4.057 -0.5364 -1.1535 -0.3906
    5MOL   H189 2117   1.762   4.385   4.280  0.2194  0.9563  0.8247
    5MOL   H190 2118   1.326   4.263   3.735 -0.1672  0.9185 -1.2374
    5MOL   H191 2119   1.290   4.486   3.635 -0.8868  0.3582 -0.0673
    5MOL   H192 2120   1.439   4.672   3.987 -0.0426  0.4032 -0.7872
    5MOL   H193 2121   1.465   4.468   4.099  0.3625  0.0473  0.1408
    5MOL   C194 2122   1.123   4.783   3.783 -0.0459  0.6645  0.4188
    5MOL   C195 2123   1.000   4.831   3.737 -0.0517  0.0552 -0.0810
    5MOL   C196 2124   0.979   4.837   3.598  0.2243 -0.4283  0.2717
    5MOL   C197 2125   1.076   4.803   3.502 -0.5043  0.2513 -0.0070
    5MOL   C198 2126   1.204   4.756   3.551  0.6613 -0.2843 -0.3290
    5MOL   C199 2127   1.226   4.751   3.689 -0.2906  0.2034 -0.7869
    5MOL   S200 2128   0.814   4.901   3.547  0.4174 -0.0179  0.2397
    5MOL   O201 2129   0.820   4.961   3.412 -0.0076  0.3203  0.0376
    5MOL   O202 2130   0.766   4.991   3.649 -0.4001  0.0857 -0.2528
    5MOL   C203 2131   0.709   4.763   3.541  0.6608  0.4379  0.1139
    5MOL   C204 2132   0.587   4.762   3.610  0.0701 -0.4273 -0.3179
    5MOL   C205 2133   0.504   4.649   3.596 -0.1038 -0.5612 -1.0347
    5MOL   C206 2134   0.533   4.544   3.517 -0.1519 -0.3069 -0.5115
    5MOL   C207 2135   0.652   4.547   3.439 -0.6605  0.1576  0.2350
    5MOL   C208 2136   0.742   4.655   3.454  0.0634  0.1745 -0.5353
    5MOL   O209 2137   0.446   4.441   3.511 -0.1756  0.4496  0.0641
    5MOL   H210 2138   1.139   4.783   3.890  0.0104 -1.3533  0.4281
    5MOL   H211 2139   0.922   4.863   3.805  0.7830  1.5102  0.2228
    5MOL   H212 2140   1.055   4.805   3.397 -2.5017 -0.5775  0.3461
    5MOL   H213 2141   1.281   4.730   3.480  1.9673  1.1494  0.5243
    5MOL   H214 2142   0.562   4.852   3.665  2.4943 -0.2488  0.5429
    5MOL   H215 2143   0.414   4.644   3.656  0.9284  1.4069  0.7641
    5MOL   H216 2144   0.680   4.465   3.374  0.2267  0.5382  0.1244
    5MOL   H217 2145   0.833   4.649   3.396 -0.0495  1.1674 -0.8182
    5MOL   C218 2146   0.487   4.314   3.711  0.8131 -0.1161 -0.7229
    5MOL   C219 2147   0.530   4.200   3.773  0.7123  0.5088  0.5214
    5MOL   C220 2148   0.568   4.089   3.694  0.9617 -1.0321 -0.9940
    5MOL   C221 2149   0.565   4.096   3.552  0.5786  0.4066 -0.3981
    5MOL   C222 2150   0.520   4.217   3.486 -0.2478  0.4865 -0.8576
    5MOL   C223 2151   0.477   4.324   3.572 -0.3165  1.1287 -0.2250
    5MOL   S224 2152   0.642   3.958   3.785 -0.4106 -0.5645  0.0063
    5MOL   O225 2153   0.689   3.867   3.677  0.8289 -0.0110 -0.0938
    5MOL   O226 2154   0.552   3.906   3.891 -0.4996 -0.5049  0.1269
    5MOL   C227 2155   0.779   4.044   3.859 -0.6719 -0.7481  0.0041
    5MOL   C228 2156   0.775   4.061   4.001 -0.2159  0.3505  0.1828
    5MOL   C229 2157   0.869   4.136   4.072 -0.0398 -0.3060 -0.0002
    5MOL   C230 2158   0.981   4.184   3.993  0.2162 -0.5542 -0.4101
    5MOL   C231 2159   0.983   4.162   3.854 -0.0639  0.4126 -0.1439
    5MOL   C232 2160   0.882   4.095   3.779 -0.6134  0.2103  0.0149
    5MOL   O233 2161   1.083   4.253   4.052 -0.0325  0.4388 -0.1665
    5MOL   H234 2162   0.454   4.392   3.778  0.5186 -0.7108 -0.1662
    5MOL   H235 2163   0.524   4.200   3.881  0.6661  0.7259  0.5201
    5MOL   H236 2164   0.611   4.011   3.503 -0.2539  0.4185 -1.1952
    5MOL   H237 2165   0.521   4.236   3.380  1.3538 -0.2949 -0.9974
    5MOL   H238 2166   0.690   4.019   4.052  0.5253 -1.4663 -0.0254
    5MOL   H239 2167   0.867   4.149   4.180 -2.9797 -0.0110 -0.0270
    5MOL   H240 2168   1.066   4.202   3.797 -0.5212  0.8034 -0.5490
    5MOL   H241 2169   0.893   4.071   3.675  0.7378  3.1232 -0.5891
    5MOL   C242 2170   1.065   4.281   4.293  0.2991  0.3087 -0.7750
    5MOL   C243 2171   1.069   4.366   4.406 -0.0373 -0.1239  0.3276
    5MOL   C244 2172   1.080   4.507   4.390 -0.1451 -0.1280  0.4767
    5MOL   C245 2173   1.070   4.566   4.262 -0.6618  0.3855  0.2341
    5MOL   C246 2174   1.062   4.475   4.150  0.5317 -0.7735 -0.1221
    5MOL   C247 2175   1.062   4.334   4.163  0.1940  0.3546 -0.3275
    5MOL   S248 2176   1.105   4.606   4.540  0.0488 -0.3173 -0.2110
    5MOL   O249 2177   1.039   4.547   4.660 -0.7999  0.0251 -0.8339
    5MOL   O250 2178   1.062   4.741   4.500 -0.3756 -0.5008  0.0536
    5MOL   C251 2179   1.284   4.611   4.551  0.2788 -1.1121  0.1281
    5MOL   C252 2180   1.348   4.532   4.644 -0.4327 -0.2962 -0.7130
    5MOL   C253 2181   1.489   4.553   4.662 -0.2487 -0.1584  0.6979
    5MOL   C254 2182   1.558   4.656   4.597  0.3343 -0.2090 -0.2751
    5MOL   C255 2183   1.486   4.738   4.506 -0.7463  0.8061  0.0070
    5MOL   C256 2184   1.353   4.702   4.472  0.7988 -0.1427  0.5842
    5MOL   O257 2185   1.685   4.690   4.626 -0.0225 -0.0094 -0.3376
    5MOL   H258 2186   1.068   4.174   4.308  0.4069  0.2013 -1.5424
    5MOL   H259 2187   1.065   4.326   4.507  1.1771  2.1420  1.3110
    5MOL   H260 2188   1.087   4.672   4.251 -0.1780  0.2689 -0.2063
    5MOL   H261 2189   1.048   4.519   4.053 -0.0063  0.6569  0.5913
    5MOL   H262 2190   1.296   4.457   4.701  0.4938  1.7937  3.0670
    5MOL   H263 2191   1.551   4.494   4.727  0.4439 -0.2487 -0.0399
    5MOL   H264 2192   1.533   4.812   4.443 -2.5639  1.2528 -0.8634
    5MOL   H265 2193   1.298   4.753   4.394  0.6220 -1.0782  0.0898
    5MOL   C266 2194   1.874   4.544   4.651 -0.1922  0.1723  0.0245
    5MOL   C267 2195   1.982   4.476   4.596 -0.1817  0.0397 -0.8153
    5MOL   C268 2196   2.009   4.488   4.458 -0.1619  0.0107 -0.2291
    5MOL   C269 2197   1.929   4.561   4.374 -0.5173 -0.9642 -0.3037
    5MOL   C270 2198   1.819   4.629   4.427  0.1124 -0.4707 -0.6558
    5MOL   C271 2199   1.790   4.622   4.566  0.1496  0.0123 -0.1338
    5MOL   S272 2200   2.150   4.398   4.400  0.3466 -0.3522  0.3158
    5MOL   O273 2201   2.127   4.370   4.262  0.6129 -0.2877  0.4022
    5MOL   O274 2202   2.152   4.282   4.486 -0.2055 -0.1635 -0.2283
    5MOL   C275 2203   2.292   4.500   4.413 -0.0712  0.3821  0.2455
    5MOL   C276 2204   2.313   4.591   4.303 -1.1301  0.5677 -1.0540
    5MOL   C277 2205   2.405   4.695   4.323 -0.1389 -0.4060 -0.9912
    5MOL   C278 2206   2.474   4.708   4.448  0.4740  0.3062  0.0035
    5MOL   C279 2207   2.460   4.610   4.551 -0.0493 -0.7846  0.2349
    5MOL   C280 2208   2.372   4.502   4.529  0.9703 -0.0489  0.0942
    5MOL   O281 2209   2.538   4.828   4.477  0.1788 -0.1706  0.0496
    5MOL   H282 2210   1.850   4.520   4.753  0.5124  1.5535  0.5358
    5MOL   H283 2211   2.037   4.410   4.661 -0.7243 -0.3588 -0.7575
    5MOL   H284 2212   1.956   4.549   4.271 -1.5790  1.2837 -0.8738
    5MOL   H285 2213   1.755   4.690   4.365 -0.3072  1.1764  1.3612
    5MOL   H286 2214   2.260   4.591   4.210 -0.3105  0.0879 -1.5254
    5MOL   H287 2215   2.424   4.773   4.251 -0.0094  0.5304  0.0344
    5MOL   H288 2216   2.512   4.633   4.642  2.0893 -3.3567 -0.2799
    5MOL   H289 2217   2.345   4.434   4.608  1.7091  0.9030  1.1754
    5MOL   C290 2218   2.388   5.010   4.454  0.5232  0.5608  0.2082
    5MOL   C291 2219   2.316   5.123   4.507 -0.6616  0.5191  0.2060
    5MOL   C292 2220   2.323   5.153   4.648  0.2556  0.7300 -0.2084
    5MOL   C293 2221   2.412   5.069   4.731 -0.3923  0.3557 -0.1104
    5MOL   C294 2222   2.478   4.964   4.673  0.1407 -0.7583  0.5451
    5MOL   C295 2223   2.465   4.929   4.538 -0.2641  0.3172  0.4877
    5MOL   S296 2224   2.226   5.287   4.714 -0.0816 -0.1437 -0.0027
    5MOL   O297 2225   2.175   5.225   4.836  0.2671 -0.3726  0.0554
    5MOL   O298 2226   2.131   5.333   4.612 -0.3612 -0.2297  0.1816
    5MOL   C299 2227   2.332   5.424   4.767  0.1769  0.7517 -0.1856
    5MOL   C300 2228   2.396   5.511   4.674 -0.5324 -0.4902 -0.0631
    5MOL   C301 2229   2.468   5.626   4.712  0.2938  0.4892 -0.1016
    5MOL   C302 2230   2.483   5.648   4.854 -0.0124 -0.0927  0.1003
    5MOL   C303 2231   2.419   5.569   4.948 -0.2408  0.1853  0.0536
    5MOL   C304 2232   2.349   5.454   4.905  0.1553  0.5101 -0.3104
    5MOL   O305 2233   2.565   5.752   4.895  0.1237 -0.5880 -0.7297
    5MOL   H306 2234   2.379   4.983   4.349  2.0656  0.0383  0.2042
    5MOL   H307 2235   2.250   5.184   4.448 -0.1432 -0.0346 -0.9621
    5MOL   H308 2236   2.436   5.093   4.833  0.0462 -4.3432  1.0342
    5MOL   H309 2237   2.539   4.902   4.736  3.4101 -1.1769 -2.8402
    5MOL   H310 2238   2.366   5.497   4.571 -0.1339  2.1521 -0.5643
    5MOL   H311 2239   2.509   5.679   4.627  1.5861 -1.6449 -0.8483
    5MOL   H312 2240   2.440   5.584   5.053 -0.4457 -3.0658  0.6099
    5MOL   H313 2241   2.310   5.395   4.986 -0.6197  3.0640  1.2475
    5MOL   C314 2242   2.627   5.954   4.784 -0.1949 -0.6270 -0.1168
    5MOL   C315 2243   2.589   6.081   4.734 -0.3324 -0.1345 -0.1560
    5MOL   C316 2244   2.455   6.132   4.761 -0.4600 -1.2232 -0.5353
    5MOL   C317 2245   2.360   6.055   4.826  0.5068 -0.1016 -0.0770
    5MOL   C318 2246   2.397   5.928   4.873  0.5519 -0.6534  0.0115
    5MOL   C319 2247   2.529   5.878   4.853 -0.4165  0.1076  1.1243
    5MOL   S320 2248   2.415   6.301   4.706  0.2967  0.4030  0.0933
    5MOL   O321 2249   2.523   6.400   4.740 -0.5155 -0.0601 -0.1429
    5MOL   O322 2250   2.277   6.329   4.747  0.6231 -0.0254  0.0543
    5MOL   C323 2251   2.410   6.281   4.533 -0.4759  0.0767 -0.4470
    5MOL   C324 2252   2.502   6.333   4.445 -0.2374 -0.4900  0.2974
    5MOL   C325 2253   2.494   6.309   4.303  1.6662  0.1948 -0.3854
    5MOL   C326 2254   2.395   6.217   4.262 -0.3077 -0.2382  0.5574
    5MOL   C327 2255   2.313   6.151   4.353  0.0498 -0.6105  0.5231
    5MOL   C328 2256   2.311   6.185   4.488 -0.2121 -0.4447 -0.0269
    5MOL   O329 2257   2.392   6.165   4.133  0.4252 -0.0910  0.1668
    5MOL   H330 2258   2.729   5.921   4.765 -0.7730 -2.4816 -0.1473
    5MOL   H331 2259   2.665   6.142   4.687 -0.1466 -0.1149  0.1763
    5MOL   H332 2260   2.263   6.093   4.852  0.4660 -1.3667  1.7457
    5MOL   H333 2261   2.329   5.882   4.943 -0.6765  2.2857  0.8356
    5MOL   H334 2262   2.579   6.401   4.477 -1.2673  0.8705 -0.0543
    5MOL   H335 2263   2.563   6.349   4.230  0.8186  2.8120  0.2155
    5MOL   H336 2264   2.240   6.085   4.308  0.8745 -1.1464 -0.0382
    5MOL   H337 2265   2.251   6.130   4.559  0.4766 -0.6719  0.3889
    5MOL   C338 2266   2.180   6.241   4.055 -0.2083 -0.3924 -0.4747
    5MOL   C339 2267   2.101   6.315   3.960  0.8381  0.1133 -0.3934
    5MOL   C340 2268   2.168   6.384   3.852  0.1688  0.1765  0.1471
    5MOL   C341 2269   2.313   6.386   3.849 -1.1108 -0.3569  0.0675
    5MOL   C342 2270   2.383   6.309   3.940  0.4292 -0.5578  0.7920
    5MOL   C343 2271   2.320   6.239   4.045 -0.6397 -0.9667 -0.7443
    5MOL   S344 2272   2.071   6.471   3.734 -0.0396  0.0323  0.4107
    5MOL   O345 2273   2.135   6.446   3.604  0.4062  0.3970  0.0504
    5MOL   O346 2274   2.047   6.604   3.785  0.6581  0.1039  0.7362
    5MOL   C347 2275   1.907   6.395   3.722  0.0715  0.2111 -0.7439
    5MOL   C348 2276   1.899   6.260   3.680 -0.6946 -0.2415  0.1660
    5MOL   C349 2277   1.771   6.209   3.660 -0.3333 -0.1815 -0.3214
    5MOL   C350 2278   1.652   6.285   3.687  0.0937  0.1546  0.3296
    5MOL   C351 2279   1.662   6.414   3.744 -0.0211  0.2127  0.1720
    5MOL   C352 2280   1.793   6.468   3.755 -0.3179  0.5437  0.0317
    5MOL   O353 2281   1.530   6.236   3.656  0.3901 -0.5651 -0.1221
    5MOL   H354 2282   2.132   6.178   4.129 -0.2962 -0.1617 -0.3350
    5MOL   H355 2283   1.994   6.319   3.977  1.0213 -0.2957  0.8803
    5MOL   H356 2284   2.368   6.433   3.769  2.2870 -2.6811  0.9584
    5MOL   H357 2285   2.490   6.297   3.933  0.2895 -2.0812  0.9673
    5MOL   H358 2286   1.990   6.210   3.653 -1.0131  0.3302 -2.0153
    5MOL   H359 2287   1.765   6.101   3.649 -0.7697 -0.6233  3.4303
    5MOL   H360 2288   1.577   6.479   3.762  0.3373  0.9192 -0.6438
    5MOL   H361 2289   1.803   6.571   3.785  0.9962 -0.2750  2.5025
    5MOL   C362 2290   1.440   6.021   3.596  0.0772 -0.2576  0.7329
    5MOL   C363 2291   1.391   5.893   3.621 -0.0278  0.1910 -0.3669
    5MOL   C364 2292   1.403   5.846   3.755 -0.1854  0.8876  0.4792
    5MOL   C365 2293   1.471   5.918   3.853 -0.4513 -0.5516 -0.1056
    5MOL   C366 2294   1.516   6.047   3.817  0.0615 -0.3285 -0.3762
    5MOL   C367 2295   1.498   6.104   3.691 -0.1679  0.4079  0.4600
    5MOL   S368 2296   1.306   5.695   3.801  0.5814  0.1762  0.0641
    5MOL   O369 2297   1.372   5.627   3.907 -0.5268  0.1589 -0.3245
    5MOL   O370 2298   1.284   5.617   3.678  0.0958  0.2285  0.8287
    5MOL   C371 2299   1.145   5.759   3.860  0.7839  0.0358  0.2805
    5MOL   C372 2300   1.136   5.823   3.987 -0.5494 -0.2248  0.1487
    5MOL   C373 2301   1.009   5.839   4.047  0.0359  0.7973 -0.0652
    5MOL   C374 2302   0.893   5.799   3.983  0.0345  0.1133 -0.1019
    5MOL   C375 2303   0.906   5.758   3.852 -0.6293 -0.3479 -0.9630
    5MOL   C376 2304   1.030   5.731   3.791 -0.0885  0.1686  0.7177
    5MOL   O377 2305   0.777   5.812   4.054 -0.2563 -0.4699  0.2501
    5MOL   H378 2306   1.424   6.068   3.500  0.9966 -0.0862  0.6522
    5MOL   H379 2307   1.339   5.839   3.543 -1.5718  2.5707 -1.0525
    5MOL   H380 2308   1.466   5.882   3.955  1.5525  0.1687  0.2774
    5MOL   H381 2309   1.559   6.104   3.898 -1.4398  0.0115  0.2163
    5MOL   H382 2310   1.220   5.844   4.052  1.7143 -2.0862 -2.0198
    5MOL   H383 2311   0.992   5.853   4.152  0.6391  0.0363  0.1374
    5MOL   H384 2312   0.818   5.716   3.805 -0.7353  1.2595 -2.2816
    5MOL   H385 2313   1.043   5.688   3.693  2.3981  0.0110  1.0883
    5MOL   C386 2314   0.567   5.900   3.965  0.2639 -0.6601 -0.3109
    5MOL   C387 2315   0.488   6.015   3.923  0.2436 -0.0169 -0.3347
    5MOL   C388 2316   0.549   6.142   3.936  0.1048  0.5225  0.5797
    5MOL   C389 2317   0.669   6.160   4.003 -0.0017 -0.1409 -0.1639
    5MOL   C390 2318   0.741   6.051   4.043  0.6620 -0.2266 -0.2940
    5MOL   C391 2319   0.695   5.919   4.027 -0.1276  0.2648 -0.6229
    5MOL   S392 2320   0.470   6.286   3.868 -0.0113 -0.0603  0.1003
    5MOL   O393 2321   0.564   6.324   3.763  0.3089 -0.7148  0.6609
    5MOL   O394 2322   0.445   6.383   3.983  0.6567 -0.0431 -0.6734
    5MOL   C395 2323   0.322   6.231   3.792  1.1728 -0.1875 -0.0889
    5MOL   C396 2324   0.192   6.266   3.836 -0.8981 -0.4384 -0.7924
    5MOL   C397 2325   0.074   6.255   3.758 -0.3417 -0.4131  0.1215
    5MOL   C398 2326   0.086   6.195   3.634 -0.2005 -0.9151  0.0110
    5MOL   C399 2327   0.215   6.146   3.591 -0.0104  0.4678 -0.2238
    5MOL   C400 2328   0.333   6.168   3.668  0.0903 -0.0808  0.1206
    5MOL   O401 2329   8.405   6.174   3.558  0.0125  0.4884 -0.3227
    5MOL   H402 2330   0.512   5.808   3.949 -1.5945  0.7425 -2.2838
    5MOL   H403 2331   0.390   6.005   3.880  0.9602 -0.4007 -1.9076
    5MOL   H404 2332   0.711   6.255   4.030  1.0823 -0.7122  0.1856
    5MOL   H405 2333   0.840   6.079   4.076  0.4398 -0.3028  0.4357
    5MOL   H406 2334   0.195   6.310   3.934 -1.1426 -2.6204  0.2314
    5MOL   H407 2335   8.401   6.283   3.793 -0.3202 -2.4694  2.0136
    5MOL   H408 2336   0.220   6.093   3.497  0.7485 -0.7572  0.4929
    5MOL   H409 2337   0.431   6.135   3.638 -0.4083 -0.8443 -0.6801
    5MOL   C410 2338   8.198   6.084   3.623 -0.4773 -0.0393 -0.4322
    5MOL   C411 2339   8.119   5.977   3.671 -0.8214  0.2221  0.1766
    5MOL   C412 2340   8.175   5.848   3.687  0.2858 -1.1674 -0.5491
    5MOL   C413 2341   8.312   5.827   3.659  0.4146  1.2283 -0.0301
    5MOL   C414 2342   8.395   5.933   3.617  0.7496 -0.2185  0.2260
    5MOL   C415 2343   8.334   6.063   3.594  0.2371 -0.5872  0.1029
    5MOL   S416 2344   8.082   5.713   3.760 -0.2278 -0.2638 -0.0553
    5MOL   O417 2345   8.142   5.695   3.894  0.0488 -0.9090  0.2101
    5MOL   O418 2346   8.087   5.605   3.662 -0.2265 -0.2632 -0.3914
    5MOL   C419 2347   7.911   5.759   3.777  0.0697 -0.7512  0.4714
    5MOL   C420 2348   7.834   5.798   3.665 -0.7762 -0.3024  0.4429
    5MOL   C421 2349   7.705   5.854   3.689  0.2853  0.0810 -0.3894
    5MOL   C422 2350   7.652   5.864   3.821 -0.4219  0.7872 -0.1635
    5MOL   C423 2351   7.734   5.824   3.932  0.4550 -0.0454 -0.1730
    5MOL   C424 2352   7.865   5.775   3.908  0.1961 -0.3433 -0.8182
    5MOL   O425 2353   7.522   5.903   3.854  0.3001 -0.0877 -0.4640
    5MOL   H426 2354   8.137   6.171   3.602 -0.8820 -0.4175 -0.8199
    5MOL   H427 2355   8.013   5.989   3.691 -0.1909  1.8542  2.7628
    5MOL   H428 2356   8.351   5.726   3.665 -3.1603 -0.1562  1.4716
    5MOL   H429 2357   0.075   5.923   3.593  0.2321  1.6957 -3.3352
    5MOL   H430 2358   7.862   5.799   3.561  0.4737 -0.0669  0.7691
    5MOL   H431 2359   7.663   5.892   3.597  3.3768  2.3339 -0.9766
    5MOL   H432 2360   7.693   5.830   4.032  0.9638  0.9856 -0.0234
    5MOL   H433 2361   7.920   5.744   3.995 -0.4128  0.4819 -0.1303
    5MOL   C434 2362   7.504   6.078   3.683 -0.3314 -0.9533  0.5118
    5MOL   C435 2363   7.428   6.165   3.602 -0.7230 -0.5815 -0.2106
    5MOL   C436 2364   7.290   6.160   3.613 -0.4023 -0.5896 -0.4865
    5MOL   C437 2365   7.228   6.068   3.692  0.0626 -0.0400 -0.1094
    5MOL   C438 2366   7.303   5.974   3.769  1.0258 -0.0430  0.6711
    5MOL   C439 2367   7.441   5.981   3.771 -0.6218  0.5736 -0.3285
    5MOL   S440 2368   7.198   6.279   3.515 -0.2955  0.0604  0.3106
    5MOL   O441 2369   7.263   6.275   3.385  0.2908  0.2447  0.1995
    5MOL   O442 2370   7.196   6.408   3.587  0.2773 -0.9702  0.2855
    5MOL   C443 2371   7.030   6.230   3.481 -0.0355  0.4866  0.1256
    5MOL   C444 2372   6.987   6.097   3.459 -0.1373  0.3221 -0.4347
    5MOL   C445 2373   6.857   6.070   3.426  0.8077  0.2406  1.2418
    5MOL   C446 2374   6.762   6.177   3.408  0.1249 -0.4950  0.1743
    5MOL   C447 2375   6.807   6.313   3.425  0.7099  0.6242 -0.2013
    5MOL   C448 2376   6.945   6.339   3.455 -0.3517  0.5320  0.4164
    5MOL   O449 2377   6.630   6.146   3.378 -0.5875  0.2298  0.3995
    5MOL   H450 2378   7.611   6.088   3.675 -0.1833 -3.3001 -0.8920
    5MOL   H451 2379   7.477   6.224   3.526  2.2301 -2.7303 -0.0444
    5MOL   H452 2380   7.121   6.081   3.703 -0.0990 -0.5109 -1.1431
    5MOL   H453 2381   7.257   5.910   3.842  1.9974  0.9312  2.1606
    5MOL   H454 2382   7.050   6.013   3.484 -0.2123  0.1029 -0.9969
    5MOL   H455 2383   6.817   5.971   3.412 -0.8724  0.7517  2.3111
    5MOL   H456 2384   6.739   6.397   3.418  0.7931  0.7346  0.3245
    5MOL   H457 2385   6.980   6.440   3.468 -2.2244  1.6099 -2.4667
    5MOL   C458 2386   6.413   6.223   3.384 -0.2622 -0.1450 -0.1196
    5MOL   C459 2387   6.312   6.304   3.437  0.6069 -0.1259 -0.0056
    5MOL   C460 2388   6.327   6.358   3.571 -0.0097  0.1613  0.4630
    5MOL   C461 2389   6.445   6.334   3.641 -0.5340 -0.1248 -0.4010
    5MOL   C462 2390   6.550   6.255   3.584  0.2384  0.2081 -0.8476
    5MOL   C463 2391   6.531   6.204   3.453 -0.0604 -0.2919 -0.3704
    5MOL   S464 2392   6.219   6.464   3.649  0.2452 -0.0365  0.3212
    5MOL   O465 2393   6.230   6.444   3.798  0.1920  0.0143  0.0771
    5MOL   O466 2394   6.083   6.445   3.595 -0.5175 -0.0806 -0.0653
    5MOL   C467 2395   6.277   6.629   3.603 -0.2029 -0.2415  0.1505
    5MOL   C468 2396   6.197   6.711   3.516 -0.5767  0.9543  0.6440
    5MOL   C469 2397   6.243   6.839   3.486  0.3312 -1.0452 -0.2743
    5MOL   C470 2398   6.363   6.890   3.552 -0.2218  0.5515  0.0175
    5MOL   C471 2399   6.431   6.815   3.644  0.5354 -0.7907  0.1402
    5MOL   C472 2400   6.391   6.678   3.672  0.4117  0.7004  0.6899
    5MOL   O473 2401   6.393   7.023   3.538 -0.7627  0.1760 -0.3471
    5MOL   H474 2402   6.396   6.184   3.285 -1.1391 -1.6883  0.6219
    5MOL   H475 2403   6.215   6.305   3.391 -0.3188  1.3504  1.9125
    5MOL   H476 2404   6.472   6.379   3.735 -2.2879 -1.2926  0.6884
    5MOL   H477 2405   6.640   6.236   3.641 -0.7941  0.1300  0.7813
    5MOL   H478 2406   6.117   6.661   3.463  0.3706  0.5060 -0.3908
    5MOL   H479 2407   6.202   6.911   3.417 -2.8407  0.2358  2.8190
    5MOL   H480 2408   6.513   6.860   3.697  0.8596 -2.3070  0.9574
    5MOL   H481 2409   6.445   6.629   3.752 -0.8160  2.6752  2.7742
    5MOL   H482 2410   6.451   7.044   3.609 -1.4291  1.5324 -0.1792
    6MOL     C1 2411   0.586   0.132   3.403 -0.1945 -0.0319  0.3836
    6MOL     C2 2412   0.680   0.025   3.410  0.0533  0.1956 -0.6919
    6MOL     C3 2413   0.686   8.355   3.301  0.2720  0.0308 -0.3678
    6MOL     C4 2414   0.585   8.356   3.203 -0.1564 -0.0631 -0.4857
    6MOL     C5 2415   0.490   0.030   3.195  0.1235 -0.3667  0.3340
    6MOL     C6 2416   0.492   0.138   3.294 -0.0401  0.1443 -0.4381
    6MOL     S7 2417   0.806   8.223   3.308 -0.0332 -0.0562 -0.1024
    6MOL     O8 2418   0.758   8.132   3.204 -0.1806 -0.1301 -0.5546
    6MOL     O9 2419   0.815   8.170   3.439 -0.0510 -0.3167  0.1910
    6MOL    C10 2420   0.951   8.308   3.257 -0.6628  0.0043 -0.5681
    6MOL    C11 2421   1.030   8.362   3.356 -0.2278 -0.2170 -0.1877
    6MOL    C12 2422   1.135   0.028   3.318 -0.2429  0.1705  0.1358
    6MOL    C13 2423   1.162   0.060   3.186  0.2983 -0.0709  0.0827
    6MOL    C14 2424   1.073   0.003   3.086 -0.6022 -0.4603 -0.0227
    6MOL    C15 2425   0.958   8.349   3.122  0.0645  0.0668 -0.1339
    6MOL    O16 2426   1.265   0.136   3.153  0.1910  0.3019 -0.9491
    6MOL    H17 2427   0.584   0.204   3.484 -0.1752  1.0203 -0.5359
    6MOL    H18 2428   0.747   0.026   3.495 -0.7912  0.9915 -0.0270
    6MOL    H19 2429   0.582   8.274   3.134  2.8108 -0.1207 -0.6123
    6MOL    H20 2430   0.414   0.029   3.118 -0.0719  0.3697  0.5157
    6MOL    H21 2431   1.008   8.347   3.460  0.2025  0.1630 -0.0384
    6MOL    H22 2432   1.205   0.060   3.393  1.8743 -0.9844 -1.2899
    6MOL    H23 2433   1.090   0.033   2.983 -1.6609 -0.5265 -0.2136
    6MOL    H24 2434   0.889   8.301   3.054  0.5861 -2.8708  1.3563
    6MOL    H25 2435   0.413   0.211   3.285 -1.2305 -0.9453  0.9424
    6MOL    C26 2436   1.456   0.018   3.060 -0.0992 -0.3080  0.8787
    6MOL    C27 2437   1.524   8.404   2.949 -0.6865  0.4422  0.4422
    6MOL    C28 2438   1.474   0.014   2.814 -0.3298  0.1426  0.3346
    6MOL    C29 2439   1.361   0.096   2.800 -0.4470 -0.4296 -0.3077
    6MOL    C30 2440   1.304   0.149   2.918 -0.4136 -0.3729  0.2695
    6MOL    C31 2441   1.346   0.104   3.048  0.7462 -0.6416  0.0066
    6MOL    S32 2442   1.537   8.351   2.661 -0.3033  0.0555 -0.2643
    6MOL    O33 2443   1.666   8.286   2.699  0.0255 -0.4905 -0.3504
    6MOL    O34 2444   1.539   0.013   2.544 -0.4576  0.0652  0.2138
    6MOL    C35 2445   1.428   8.210   2.627  0.8770  0.6488 -0.2048
    6MOL    C36 2446   1.422   8.165   2.492 -0.3142  0.1164 -0.0101
    6MOL    C37 2447   1.361   8.040   2.472 -0.1209 -0.6086  0.5208
    6MOL    C38 2448   1.284   7.977   2.570  0.1342 -0.2037  0.4005
    6MOL    C39 2449   1.275   8.042   2.693 -0.2549  0.1747  0.2975
    6MOL    C40 2450   1.350   8.156   2.730  0.5621  0.0167 -0.1037
    6MOL    O41 2451   1.220   7.861   2.551 -0.2252 -0.4161 -0.3336
    6MOL    H42 2452   1.497   8.418   3.157 -0.7356  2.1612  1.8011
    6MOL    H43 2453   1.610   8.340   2.965 -0.8099  0.3629  0.7905
    6MOL    H44 2454   1.319   0.096   2.701  0.3049  0.4440 -0.6335
    6MOL    H45 2455   1.210   0.203   2.908  0.2487  0.8155  0.3503
    6MOL    H46 2456   1.490   8.208   2.420  1.0923  0.7265  1.6536
    6MOL    H47 2457   1.365   7.987   2.378 -0.1260  0.8051 -0.2914
    6MOL    H48 2458   1.215   7.996   2.769  0.7927 -0.2200  0.9029
    6MOL    H49 2459   1.362   8.193   2.831  0.5142 -0.4337  0.0660
    6MOL    C50 2460   1.058   7.962   2.388 -0.3311 -0.1861 -0.4795
    6MOL    C51 2461   0.939   7.948   2.317 -0.5328  0.2150  0.2160
    6MOL    C52 2462   0.865   7.828   2.335  0.3681 -0.1381 -0.6910
    6MOL    C53 2463   0.904   7.726   2.421 -0.0833 -0.7953 -0.1250
    6MOL    C54 2464   1.027   7.740   2.490 -0.3467 -0.6573 -0.2817
    6MOL    C55 2465   1.105   7.857   2.476  0.1911 -0.5173 -0.4029
    6MOL    S56 2466   0.711   7.809   2.242 -0.9542 -0.4854 -0.1439
    6MOL    O57 2467   0.626   7.708   2.306  0.2624  0.2994 -0.6072
    6MOL    O58 2468   0.748   7.784   2.103 -0.1056  0.4714  0.1825
    6MOL    C59 2469   0.620   7.966   2.244 -0.1580 -0.0266 -0.2306
    6MOL    C60 2470   0.547   8.006   2.356  0.5264 -0.5890  0.4681
    6MOL    C61 2471   0.490   8.137   2.350 -0.2079  0.7980 -0.5664
    6MOL    C62 2472   0.503   8.220   2.241 -0.6816  0.3450  0.3446
    6MOL    C63 2473   0.584   8.180   2.131 -0.5606 -0.3289 -0.3512
    6MOL    C64 2474   0.638   8.054   2.134  0.0761 -0.0152  0.4600
    6MOL    O65 2475   0.459   8.350   2.259  0.2801  0.2575 -0.0145
    6MOL    H66 2476   1.126   8.045   2.377 -0.0592 -0.3577 -0.0691
    6MOL    H67 2477   0.909   8.020   2.243 -1.5790 -0.9218 -0.4823
    6MOL    H68 2478   0.841   7.640   2.435 -1.8238  0.1878 -1.7363
    6MOL    H69 2479   1.073   7.676   2.564  1.9433 -0.2652 -1.3254
    6MOL    H70 2480   0.525   7.944   2.442  2.2048  1.0677  2.1379
    6MOL    H71 2481   0.451   8.183   2.439  0.0039 -1.1204  0.5400
    6MOL    H72 2482   0.598   8.242   2.043 -0.6966  0.6429  0.3142
    6MOL    H73 2483   0.684   8.014   2.044 -0.2265  0.2658  0.1815
    6MOL    C74 2484   0.216   8.349   2.264 -0.6998  0.1228 -0.3147
    6MOL    C75 2485   0.096   8.391   2.211  0.2544  0.1093 -0.1836
    6MOL    C76 2486   0.092   0.040   2.095  0.4444 -0.7472 -0.2053
    6MOL    C77 2487   0.212   0.070   2.025 -0.4770  0.0558  0.3968
    6MOL    C78 2488   0.337   0.024   2.078 -0.2547  0.3371  0.1089
    6MOL    C79 2489   0.339   8.383   2.205  0.0490 -0.6420  0.5255
    6MOL    S80 2490   8.359   0.110   2.040 -0.2458 -0.4053 -0.5740
    6MOL    O81 2491   8.379   0.241   1.977 -0.0745 -0.2999  0.0294
    6MOL    O82 2492   8.259   0.105   2.149 -0.9774 -0.8022 -0.6112
    6MOL    C83 2493   8.311   0.007   1.906 -0.0847 -0.3682 -0.1910
    6MOL    C84 2494   8.210   8.330   1.916 -0.1704  0.0615 -0.1694
    6MOL    C85 2495   8.191   8.247   1.804 -0.2945  0.2308 -0.3916
    6MOL    C86 2496   8.253   8.272   1.686 -0.1075  0.1885  0.4823
    6MOL    C87 2497   8.346   8.382   1.664 -0.4050  0.3717 -0.5194
    6MOL    C88 2498   8.373   0.029   1.780 -0.8789 -0.5639  0.7204
    6MOL    O89 2499   8.217   8.201   1.575 -0.0071  0.0833  0.6026
    6MOL    H90 2500   0.213   8.304   2.362  0.5155  1.5002  0.3724
    6MOL    H91 2501   0.003   8.382   2.266  0.1841 -0.0226 -0.3232
    6MOL    H92 2502   0.200   0.131   1.937  0.4996  0.3754  0.4728
    6MOL    H93 2503   0.433   0.044   2.034 -0.5431  1.3691 -0.0617
    6MOL    H94 2504   8.151   8.318   2.005  2.4794 -2.9656  1.2634
    6MOL    H95 2505   8.127   8.160   1.808  1.9629 -1.4574 -0.2761
    6MOL    H96 2506   8.392   8.395   1.567  0.2254  1.3482 -0.0946
    6MOL    H97 2507   0.005   0.118   1.759 -1.6942  0.4374  2.6057
    6MOL    C98 2508   8.084   8.388   1.479 -0.1351 -0.5892 -0.5770
    6MOL    C99 2509   8.001   0.006   1.377 -0.8209 -0.2783  0.1680
    6MOL   C100 2510   7.989   8.365   1.254  0.8144 -1.0123 -0.5059
    6MOL   C101 2511   8.054   8.244   1.233 -0.5152 -0.4523  0.1017
    6MOL   C102 2512   8.131   8.193   1.345 -0.3694  0.0660  1.2005
    6MOL   C103 2513   8.148   8.262   1.468  0.7954 -0.5144 -0.4344
    6MOL   S104 2514   7.896   0.026   1.120 -0.3121  0.4316  0.1001
    6MOL   O105 2515   7.846   8.347   1.027  0.2275 -0.7350  0.2415
    6MOL   O106 2516   7.977   0.141   1.068 -0.2322 -0.3256 -0.0335
    6MOL   C107 2517   7.761   0.099   1.209  0.1496  0.0938  0.2509
    6MOL   C108 2518   7.665   0.018   1.273 -0.9028 -0.0488  0.4796
    6MOL   C109 2519   7.569   0.063   1.364 -0.4952 -0.4280 -0.1784
    6MOL   C110 2520   7.563   0.205   1.385 -0.8499  0.8541 -0.7228
    6MOL   C111 2521   7.646   0.290   1.317  0.6538 -0.3573  0.2036
    6MOL   C112 2522   7.743   0.239   1.226 -0.0523 -0.0814 -0.7024
    6MOL   O113 2523   7.479   0.253   1.483 -0.4330 -0.2983  0.3051
    6MOL   H114 2524   8.083   0.019   1.572  2.3838 -1.7494  0.1935
    6MOL   H115 2525   7.950   0.100   1.396  0.8508  0.7969 -0.5671
    6MOL   H116 2526   8.042   8.187   1.142 -2.1529 -1.6259  1.0357
    6MOL   H117 2527   8.156   8.088   1.333 -0.5521  0.3436 -1.7809
    6MOL   H118 2528   7.670   8.336   1.255 -2.2247 -0.0507  0.1372
    6MOL   H119 2529   7.516   8.413   1.421 -0.2761 -0.3769  0.0962
    6MOL   H120 2530   7.622   0.394   1.335  1.5681  0.2136 -1.8006
    6MOL   H121 2531   7.815   0.300   1.173  2.9254 -2.7861  0.0925
    6MOL   C122 2532   7.266   0.292   1.394 -0.4414  0.3541  0.1393
    6MOL   C123 2533   7.135   0.241   1.368 -0.4437  0.0581 -0.6497
    6MOL   C124 2534   7.080   0.138   1.443 -0.1257 -0.0450 -0.1521
    6MOL   C125 2535   7.164   0.064   1.527 -0.0467  1.1124  0.8130
    6MOL   C126 2536   7.304   0.100   1.539  0.6847  0.0402  0.3341
    6MOL   C127 2537   7.354   0.211   1.469  0.8507  0.2895 -0.6822
    6MOL   S128 2538   6.904   0.107   1.420 -0.3608  0.3158 -0.2882
    6MOL   O129 2539   6.832   0.235   1.437  0.2648  0.2058 -0.8477
    6MOL   O130 2540   6.879   8.417   1.501  0.2623 -0.1429  0.5239
    6MOL   C131 2541   6.878   0.069   1.248 -0.2489 -0.0725  0.0086
    6MOL   C132 2542   6.856   0.165   1.146 -0.0514 -0.0198 -0.0864
    6MOL   C133 2543   6.830   0.125   1.011 -0.3302 -0.0155 -0.8875
    6MOL   C134 2544   6.830   8.415   0.977  0.9647  0.4508  0.4215
    6MOL   C135 2545   6.858   8.320   1.079 -0.1877  0.4119 -0.6461
    6MOL   C136 2546   6.889   8.357   1.212  0.3114  0.5409  0.8342
    6MOL   O137 2547   6.812   8.384   0.843  0.0403 -0.1990 -0.1367
    6MOL   H138 2548   7.304   0.377   1.338  0.4321  0.0661  0.2929
    6MOL   H139 2549   7.072   0.290   1.294  0.1749 -1.3731 -2.1657
    6MOL   H140 2550   7.123   8.405   1.582 -1.9891  0.7169 -1.1756
    6MOL   H141 2551   7.371   0.050   1.607  0.0415 -1.6843 -0.2543
    6MOL   H142 2552   6.853   0.266   1.183  1.7325 -0.1900  0.5592
    6MOL   H143 2553   6.800   0.200   0.939  1.0383 -1.2652 -2.7962
    6MOL   H144 2554   6.850   8.214   1.058 -0.1693  0.6253 -1.7679
    6MOL   H145 2555   6.920   8.281   1.283  0.6149  0.6664  0.8373
    6MOL   C146 2556   7.039   8.297   0.822  0.5421 -0.3577  0.1391
    6MOL   C147 2557   7.138   8.208   0.768  0.1294  0.0364  0.5065
    6MOL   C148 2558   7.092   8.120   0.671 -0.0389 -0.0446 -0.4367
    6MOL   C149 2559   6.955   8.124   0.629  0.1093  0.1683  0.1958
    6MOL   C150 2560   6.859   8.203   0.690 -0.6115  0.6355 -0.4930
    6MOL   C151 2561   6.903   8.294   0.788  0.3854  0.2987  0.3156
    6MOL   S152 2562   7.202   8.013   0.587 -0.1598  0.3262  0.3038
    6MOL   O153 2563   7.181   8.041   0.442 -0.8834  0.4061  0.5028
    6MOL   O154 2564   7.170   7.877   0.629 -0.6176  0.0881 -0.2370
    6MOL   C155 2565   7.364   8.057   0.633  0.0193 -0.1962 -0.4312
    6MOL   C156 2566   7.444   8.127   0.544  0.5920  0.0227 -0.6118
    6MOL   C157 2567   7.579   8.141   0.567 -0.2799 -0.4920  0.1978
    6MOL   C158 2568   7.636   8.098   0.692  0.3747 -0.6375 -0.0785
    6MOL   C159 2569   7.547   8.045   0.788  0.5781  0.2224  0.7423
    6MOL   C160 2570   7.415   8.017   0.762  0.4107  0.0959 -0.4327
    6MOL   O161 2571   7.765   8.114   0.730 -0.0742 -0.3760 -0.3709
    6MOL   H162 2572   7.071   8.386   0.875  0.9481 -0.3707 -0.0885
    6MOL   H163 2573   7.243   8.229   0.776 -0.3489  2.2934  1.0186
    6MOL   H164 2574   6.918   8.055   0.555  0.8516 -0.4248  0.3651
    6MOL   H165 2575   6.755   8.205   0.664 -1.0930 -0.8026  1.2190
    6MOL   H166 2576   7.402   8.160   0.450  0.6137 -0.4215 -0.7728
    6MOL   H167 2577   7.645   8.176   0.488 -1.7293  0.5735 -0.5576
    6MOL   H168 2578   7.572   8.028   0.891 -0.3391  0.9733  1.0906
    6MOL   H169 2579   7.355   7.961   0.833  1.4072  0.7863  0.9608
    6MOL   C170 2580   7.904   8.146   0.535  0.5767 -0.1873 -0.1268
    6MOL   C171 2581   7.989   8.229   0.456  0.5779 -0.2808 -0.1710
    6MOL   C172 2582   8.026   8.355   0.507 -1.5174  1.2086  0.5119
    6MOL   C173 2583   7.960   8.407   0.620  0.5848  0.6138  0.3653
    6MOL   C174 2584   7.866   8.330   0.692  0.7763  0.5685 -0.2815
    6MOL   C175 2585   7.846   8.192   0.656 -0.3472 -0.4678  0.4379
    6MOL   S176 2586   8.136   0.042   0.428 -0.2210  0.2195 -0.3653
    6MOL   O177 2587   8.076   0.177   0.434  0.0324  0.4717  0.2874
    6MOL   O178 2588   8.173   8.419   0.295  0.0352 -0.7320 -0.1501
    6MOL   C179 2589   8.286   0.047   0.526  0.4966 -0.5502  0.3206
    6MOL   C180 2590   8.403   8.407   0.474 -0.3174  0.5904 -0.1692
    6MOL   C181 2591   0.099   8.412   0.547 -0.9971 -0.0889 -0.9610
    6MOL   C182 2592   0.094   0.042   0.680 -0.5163 -0.1749  0.2321
    6MOL   C183 2593   8.401   0.096   0.734  0.8436 -0.5646 -0.2651
    6MOL   C184 2594   8.282   0.098   0.655  0.5685 -0.3484 -0.2798
    6MOL   O185 2595   0.208   0.032   0.753 -0.5581  0.1920  0.2137
    6MOL   H186 2596   7.881   8.041   0.519  1.3092 -0.6227  1.5389
    6MOL   H187 2597   8.038   8.210   0.361 -0.0686 -0.4278 -0.4790
    6MOL   H188 2598   7.981   0.081   0.659  2.7567 -0.2176  1.3622
    6MOL   H189 2599   7.814   8.380   0.772 -0.3478  0.9637 -1.2412
    6MOL   H190 2600   8.405   8.376   0.371  1.9959 -0.4105  0.1476
    6MOL   H191 2601   0.189   8.371   0.506  0.1868 -0.3945  1.8194
    6MOL   H192 2602   8.399   0.135   0.835  1.1085  0.8640 -0.8029
    6MOL   H193 2603   8.185   0.134   0.688  1.0495  0.1786  0.5643
    6MOL   C194 2604   0.416   0.088   0.638  0.0728 -0.6482 -0.0291
    6MOL   C195 2605   0.539   0.153   0.652  0.3255  0.4122 -0.8657
    6MOL   C196 2606   0.562   0.261   0.745  0.1214  0.0613 -0.0622
    6MOL   C197 2607   0.458   0.301   0.820 -0.4889  0.1611  0.6922
    6MOL   C198 2608   0.337   0.229   0.822 -0.3734  0.5373 -0.5161
    6MOL   C199 2609   0.319   0.117   0.740  0.1482  0.3517 -0.5406
    6MOL   S200 2610   0.724   0.331   0.761  0.3975  0.2713  0.1427
    6MOL   O201 2611   0.818   0.249   0.679 -0.1734  0.1430 -0.2838
    6MOL   O202 2612   0.745   0.350   0.906  0.0582 -0.1357 -0.3119
    6MOL   C203 2613   0.732   0.490   0.694 -0.5327 -0.3838 -0.6489
    6MOL   C204 2614   0.843   0.532   0.622  0.2430 -0.2090 -0.0108
    6MOL   C205 2615   0.846   0.668   0.578  0.0330  0.1281 -0.8419
    6MOL   C206 2616   0.745   0.758   0.621  0.7516 -0.1694 -0.2846
    6MOL   C207 2617   0.640   0.721   0.703 -0.0544  0.0350  0.3300
    6MOL   C208 2618   0.629   0.583   0.732 -0.1053 -0.8014 -0.6479
    6MOL   O209 2619   0.755   0.896   0.594 -0.7615  0.2518  0.4156
    6MOL   H210 2620   0.393   0.018   0.560  0.2622 -0.9908  0.2251
    6MOL   H211 2621   0.619   0.120   0.586  1.5326 -1.7516  1.5497
    6MOL   H212 2622   0.472   0.383   0.889 -0.9831  0.1795  0.7707
    6MOL   H213 2623   0.265   0.261   0.896  1.0146 -0.0030  1.1082
    6MOL   H214 2624   0.920   0.461   0.595  0.2973  0.1118 -0.6957
    6MOL   H215 2625   0.922   0.707   0.512  0.8776 -1.3283 -0.7434
    6MOL   H216 2626   0.571   0.790   0.749 -0.3488  0.2226 -0.3793
    6MOL   H217 2627   0.547   0.553   0.796  1.9950 -0.8055  2.1216
    6MOL   C218 2628   0.734   1.052   0.433  0.6061  0.6036 -0.0369
    6MOL   C219 2629   0.658   1.136   0.347 -0.3355 -0.1200 -0.3140
    6MOL   C220 2630   0.519   1.132   0.353  0.1377 -0.6447 -0.0070
    6MOL   C221 2631   0.452   1.043   0.430  0.5342  0.6941 -0.5446
    6MOL   C222 2632   0.528   0.957   0.513  0.6751  0.5205  0.1592
    6MOL   C223 2633   0.670   0.962   0.515 -0.1853  0.1128  0.4700
    6MOL   S224 2634   0.421   1.246   0.256 -0.0382 -0.1613 -0.1656
    6MOL   O225 2635   0.307   1.165   0.203 -0.3241  0.0528  0.1132
    6MOL   O226 2636   0.509   1.319   0.169  0.1530 -0.4030  0.0184
    6MOL   C227 2637   0.352   1.367   0.363  0.4219  1.3187  0.5100
    6MOL   C228 2638   0.417   1.490   0.373  1.1899 -0.3879  0.3873
    6MOL   C229 2639   0.361   1.595   0.451 -0.5641 -0.0036 -0.3180
    6MOL   C230 2640   0.249   1.577   0.536  0.3246 -0.4815  1.1956
    6MOL   C231 2641   0.187   1.443   0.530  0.5272 -0.0322  0.6396
    6MOL   C232 2642   0.237   1.345   0.439  1.0771  0.4275  0.4870
    6MOL   O233 2643   0.205   1.674   0.622 -0.2494  0.0611  0.0520
    6MOL   H234 2644   0.841   1.061   0.443  0.4172 -0.2326  3.4381
    6MOL   H235 2645   0.702   1.206   0.277  1.2306 -1.1232 -0.3323
    6MOL   H236 2646   0.344   1.047   0.430  0.5292  0.8934  1.2040
    6MOL   H237 2647   0.477   0.893   0.584  1.2462 -0.1170  0.0010
    6MOL   H238 2648   0.511   1.504   0.322  0.7372 -0.7426 -0.5457
    6MOL   H239 2649   0.411   1.691   0.455  0.1673 -0.3751 -0.5884
    6MOL   H240 2650   0.104   1.423   0.596  0.2059 -2.8823 -0.5816
    6MOL   H241 2651   0.183   1.252   0.429  1.8985 -0.0758  0.7018
    6MOL   C242 2652   0.099   1.812   0.464 -0.8734  0.2865 -0.0621
    6MOL   C243 2653   0.075   1.938   0.406 -0.4846 -0.3359  0.2949
    6MOL   C244 2654   0.128   2.051   0.466 -0.2868 -0.0834  0.2894
    6MOL   C245 2655   0.217   2.041   0.574  0.8313 -0.3212  0.0663
    6MOL   C246 2656   0.243   1.919   0.631  1.0152  0.6651 -0.2946
    6MOL   C247 2657   0.180   1.802   0.576 -0.1799  0.3244  0.1864
    6MOL   S248 2658   0.106   2.211   0.396 -0.1026 -0.2780 -0.1476
    6MOL   O249 2659   0.071   2.193   0.254 -0.0658  0.2391 -0.1769
    6MOL   O250 2660   0.221   2.299   0.427  0.0419 -0.0339  0.3882
    6MOL   C251 2661   8.387   2.291   0.471 -0.2610  0.1895  0.1799
    6MOL   C252 2662   8.260   2.262   0.409 -0.0118 -0.2957  0.0373
    6MOL   C253 2663   8.142   2.331   0.446  0.4424  0.3044  0.8164
    6MOL   C254 2664   8.149   2.430   0.551 -0.0332  0.0478  0.1528
    6MOL   C255 2665   8.275   2.465   0.611  0.2273 -0.1472  0.7355
    6MOL   C256 2666   8.393   2.403   0.558 -0.1335 -0.4079 -0.0847
    6MOL   O257 2667   8.036   2.497   0.593  0.0957 -0.2232  0.1472
    6MOL   H258 2668   0.060   1.737   0.396 -1.1259  1.4514 -1.2107
    6MOL   H259 2669   0.023   1.952   0.313  2.6138  1.6407 -1.2446
    6MOL   H260 2670   0.247   2.137   0.612  1.0770  0.2069 -1.4387
    6MOL   H261 2671   0.296   1.907   0.725 -0.5177 -1.7960  0.3298
    6MOL   H262 2672   8.242   2.190   0.330  0.1166  1.2823 -1.4674
    6MOL   H263 2673   8.054   2.306   0.389  0.6867  1.6262 -0.1466
    6MOL   H264 2674   8.292   2.545   0.681  0.0021 -0.0392  0.6657
    6MOL   H265 2675   0.063   2.424   0.605 -1.2106 -0.5243  2.2462
    6MOL   C266 2676   8.060   2.662   0.761 -0.3498 -0.3272  0.5995
    6MOL   C267 2677   8.037   2.709   0.894 -0.0782 -0.6441 -0.2004
    6MOL   C268 2678   7.965   2.632   0.981  0.2356 -0.7326 -0.5461
    6MOL   C269 2679   7.922   2.504   0.945  0.3622 -0.0037  0.1618
    6MOL   C270 2680   7.965   2.447   0.823  0.4519 -0.6668 -0.3199
    6MOL   C271 2681   8.020   2.532   0.723 -0.9583 -0.0445  0.1648
    6MOL   S272 2682   7.922   2.708   1.139  0.7272 -0.0666  0.0169
    6MOL   O273 2683   7.801   2.630   1.180 -0.2140  0.2487  0.1689
    6MOL   O274 2684   7.923   2.857   1.130  0.2476 -0.1331 -0.7816
    6MOL   C275 2685   8.048   2.668   1.261  0.6125  0.1521 -0.2362
    6MOL   C276 2686   8.131   2.554   1.251  0.1490 -0.0548 -0.3099
    6MOL   C277 2687   8.237   2.526   1.345  0.1614  0.0951  0.0648
    6MOL   C278 2688   8.250   2.613   1.455  0.6080  0.3475  0.9074
    6MOL   C279 2689   8.161   2.726   1.468 -0.9559  0.5277 -0.5925
    6MOL   C280 2690   8.065   2.752   1.374 -0.1901 -0.0049  0.3223
    6MOL   O281 2691   8.339   2.583   1.551 -0.1316  0.5691  0.6460
    6MOL   H282 2692   8.106   2.737   0.699 -1.3639  1.8867  2.4985
    6MOL   H283 2693   8.070   2.804   0.933  1.8193 -1.7187  0.8683
    6MOL   H284 2694   7.873   2.445   1.020  0.6881  1.7148  1.7543
    6MOL   H285 2695   7.926   2.349   0.801  0.9383 -0.7048 -1.0113
    6MOL   H286 2696   8.118   2.476   1.177 -1.5057 -0.6559  0.5788
    6MOL   H287 2697   8.291   2.433   1.348  0.0933 -0.0193 -1.8183
    6MOL   H288 2698   8.171   2.787   1.556  0.5379 -0.6156  0.0611
    6MOL   H289 2699   7.985   2.825   1.374  1.5067  1.9413 -2.0337
    6MOL   C290 2700   0.126   2.644   1.466  0.2416  0.4231 -0.9649
    6MOL   C291 2701   0.266   2.622   1.450  0.2803  0.5810  0.6792
    6MOL   C292 2702   0.324   2.500   1.492 -0.4938  0.1452  0.2167
    6MOL   C293 2703   0.246   2.399   1.552  0.9724  0.1339  0.8933
    6MOL   C294 2704   0.104   2.428   1.565 -0.1700  0.3740 -0.2502
    6MOL   C295 2705   0.045   2.552   1.526 -0.1218 -0.0767  0.1450
    6MOL   S296 2706   0.498   2.478   1.467  0.2286 -0.1366  0.0564
    6MOL   O297 2707   0.551   2.385   1.568  0.5558 -0.4282 -0.1894
    6MOL   O298 2708   0.561   2.609   1.448 -0.0869 -0.1415  0.4497
    6MOL   C299 2709   0.517   2.377   1.317  0.4023 -0.4203 -0.1224
    6MOL   C300 2710   0.517   2.238   1.326 -0.3106 -0.2490  0.1362
    6MOL   C301 2711   0.539   2.160   1.210 -0.0961 -0.2330  1.2127
    6MOL   C302 2712   0.571   2.222   1.087  0.0791  0.6958  0.3776
    6MOL   C303 2713   0.574   2.367   1.083 -0.3106 -0.6886 -0.3407
    6MOL   C304 2714   0.546   2.444   1.198 -0.2484  0.3025  0.4997
    6MOL   O305 2715   0.610   2.138   0.983  0.2304  0.1998 -0.0117
    6MOL   H306 2716   0.085   2.742   1.452 -0.4921 -0.2425 -3.9262
    6MOL   H307 2717   0.334   2.697   1.412  0.7644  0.1039  0.6080
    6MOL   H308 2718   0.280   2.309   1.600 -0.7265 -0.7243  0.5160
    6MOL   H309 2719   0.045   2.357   1.620 -0.0063  1.2088  1.0186
    6MOL   H310 2720   0.499   2.194   1.423  1.0016 -0.1017  0.4511
    6MOL   H311 2721   0.550   2.054   1.226 -1.0241 -0.6018 -0.4871
    6MOL   H312 2722   0.596   2.411   0.987  2.8912 -0.0184  0.6667
    6MOL   H313 2723   0.545   2.552   1.198 -1.1485  0.2968  0.4243
    6MOL   C314 2724   0.496   2.246   0.793 -0.9090  0.7058  0.7554
    6MOL   C315 2725   0.491   2.264   0.654  0.3346 -0.2105 -0.0206
    6MOL   C316 2726   0.607   2.233   0.576  0.0649 -0.0567  0.1502
    6MOL   C317 2727   0.713   2.166   0.632  0.6819  0.5162 -0.4752
    6MOL   C318 2728   0.713   2.138   0.771 -0.8653  0.3439  0.7221
    6MOL   C319 2729   0.603   2.172   0.849 -0.5612  0.1527 -0.5988
    6MOL   S320 2730   0.608   2.260   0.399  0.2215 -0.1830  0.2219
    6MOL   O321 2731   0.750   2.242   0.360  0.0812 -1.2349 -0.5019
    6MOL   O322 2732   0.547   2.388   0.373 -0.7098  0.8514  0.4435
    6MOL   C323 2733   0.511   2.136   0.314  0.5422 -0.1573 -0.0289
    6MOL   C324 2734   0.406   2.172   0.223 -0.1964 -0.6414  0.0597
    6MOL   C325 2735   0.332   2.071   0.158 -0.1402 -0.4994  0.2781
    6MOL   C326 2736   0.363   1.933   0.179  0.3121 -0.1547 -0.2307
    6MOL   C327 2737   0.458   1.898   0.272 -0.7643 -0.7596 -0.3301
    6MOL   C328 2738   0.542   1.997   0.326  0.5758 -1.0330  0.5220
    6MOL   O329 2739   0.291   1.831   0.116 -0.5956  0.1824  0.0130
    6MOL   H330 2740   0.409   2.267   0.853 -0.6584  1.6032  0.8234
    6MOL   H331 2741   0.404   2.305   0.605  1.8388  0.2204 -2.4190
    6MOL   H332 2742   0.795   2.137   0.568  1.4619  2.5565 -0.4231
    6MOL   H333 2743   0.800   2.093   0.816 -1.3488 -0.9210  0.4331
    6MOL   H334 2744   0.380   2.275   0.207 -1.3634 -1.1114 -1.2148
    6MOL   H335 2745   0.239   2.088   0.105 -0.5396  0.2463  1.1946
    6MOL   H336 2746   0.494   1.798   0.293 -0.3848 -0.5012  0.2452
    6MOL   H337 2747   0.624   1.974   0.392  0.8994  0.7076  0.7472
    6MOL   C338 2748   0.345   1.831   8.301  0.0498  0.1519 -0.3066
    6MOL   C339 2749   0.412   1.770   8.193  0.6453 -0.0855  0.1154
    6MOL   C340 2750   0.474   1.646   8.205  0.3753 -0.3100  0.1997
    6MOL   C341 2751   0.477   1.588   8.332 -0.0952  0.3660  0.4262
    6MOL   C342 2752   0.413   1.648   0.015 -0.5007 -0.4107  0.1576
    6MOL   C343 2753   0.344   1.774   0.007 -0.7832 -0.5845  0.6518
    6MOL   S344 2754   0.510   1.563   8.048  0.4070 -0.2554  0.2018
    6MOL   O345 2755   0.424   1.617   7.943  0.0821 -0.9629  0.0515
    6MOL   O346 2756   0.503   1.424   8.084  0.1805  0.3591  0.2209
    6MOL   C347 2757   0.675   1.614   8.005  0.1053  0.3013  0.0368
    6MOL   C348 2758   0.714   1.743   7.964 -0.5164 -0.1721  0.4067
    6MOL   C349 2759   0.840   1.762   7.908  0.3191  0.0183 -0.1664
    6MOL   C350 2760   0.934   1.651   7.904  0.1714  0.2688  0.6312
    6MOL   C351 2761   0.894   1.533   7.961 -0.2688  0.5509  0.0055
    6MOL   C352 2762   0.764   1.504   8.004  0.4282 -0.0697 -0.1465
    6MOL   O353 2763   1.064   1.663   7.855  0.2809 -0.3909  0.5027
    6MOL   H354 2764   0.300   1.927   8.278 -0.2860 -0.0782 -0.6023
    6MOL   H355 2765   0.407   1.824   8.100  2.1503 -2.0295 -1.1258
    6MOL   H356 2766   0.527   1.494   8.349  1.4836  1.3061  1.0326
    6MOL   H357 2767   0.410   1.592   0.107  1.3667 -0.1855  0.3849
    6MOL   H358 2768   0.637   1.818   7.955 -1.5815 -1.1088  1.4025
    6MOL   H359 2769   0.857   1.859   7.864 -2.5420  0.6355  0.0198
    6MOL   H360 2770   0.950   1.444   7.938 -4.2008 -1.8047 -0.9354
    6MOL   H361 2771   0.742   1.400   8.020  1.0885 -0.0545  0.9024
    6MOL   C362 2772   1.183   1.774   8.043  0.2511  0.0794  0.0106
    6MOL   C363 2773   1.303   1.790   8.121  0.0725  0.3263  0.2870
    6MOL   C364 2774   1.420   1.722   8.080  0.7354  0.0643 -0.4316
    6MOL   C365 2775   1.416   1.646   7.960 -0.1560 -0.2631  0.9550
    6MOL   C366 2776   1.296   1.625   7.885 -0.0109 -0.0301 -0.2863
    6MOL   C367 2777   1.175   1.681   7.930 -0.4771  0.0526  0.7968
    6MOL   S368 2778   1.561   1.730   8.188 -0.0555  0.4613  0.0169
    6MOL   O369 2779   1.655   1.629   8.136  0.2891 -0.4117 -0.3959
    6MOL   O370 2780   1.519   1.730   8.330 -0.6130 -0.0028  0.6642
    6MOL   C371 2781   1.632   1.887   8.146  0.3564  0.3274 -0.1793
    6MOL   C372 2782   1.709   1.897   8.030  0.4915  0.4615 -0.4311
    6MOL   C373 2783   1.746   2.027   7.996 -0.0909  0.0829 -0.1499
    6MOL   C374 2784   1.713   2.138   8.067  0.2665  0.2818  0.1280
    6MOL   C375 2785   1.640   2.126   8.188 -0.2990  0.4564  0.1777
    6MOL   C376 2786   1.602   1.998   8.227 -0.5186  0.1244 -0.1126
    6MOL   O377 2787   1.742   2.266   8.024 -0.3282 -0.1810  0.3596
    6MOL   H378 2788   1.098   1.833   8.073 -0.3788  1.1422 -3.6441
    6MOL   H379 2789   1.307   1.857   8.206 -1.4174 -0.7979  1.2834
    6MOL   H380 2790   1.502   1.592   7.924 -0.9486  0.0188 -1.4705
    6MOL   H381 2791   1.298   1.581   7.786  1.8357  0.0688 -0.3095
    6MOL   H382 2792   1.750   1.806   7.989 -0.8417 -1.1919  1.7912
    6MOL   H383 2793   1.798   2.039   7.902 -1.8503  1.7628 -0.9428
    6MOL   H384 2794   1.622   2.216   8.246  3.7019  1.1406  0.4972
    6MOL   H385 2795   1.541   1.989   8.316  0.7148  4.7004  1.3665
    6MOL   C386 2796   1.807   2.308   7.789  0.2811 -0.0442 -0.1053
    6MOL   C387 2797   1.908   2.307   7.695 -0.2263  0.3241  0.2033
    6MOL   C388 2798   2.042   2.300   7.736 -0.4406  0.7968 -0.0965
    6MOL   C389 2799   2.076   2.301   7.879 -0.1897 -0.2983  0.5268
    6MOL   C390 2800   1.971   2.278   7.970  0.0086  0.1173  0.7863
    6MOL   C391 2801   1.836   2.292   7.926 -0.3242  0.2113  0.2288
    6MOL   S392 2802   2.167   2.319   7.613 -0.2458 -0.0766 -0.0206
    6MOL   O393 2803   2.226   2.456   7.627 -0.3351 -0.0568 -0.4192
    6MOL   O394 2804   2.111   2.276   7.487  0.1232 -0.6556  0.5131
    6MOL   C395 2805   2.295   2.204   7.654 -0.1796 -0.2475 -0.0182
    6MOL   C396 2806   2.251   2.071   7.662  0.2848 -0.2729 -0.2952
    6MOL   C397 2807   2.348   1.969   7.687  0.3746  0.3960  0.2280
    6MOL   C398 2808   2.489   2.000   7.705  0.4035 -0.8970  0.4277
    6MOL   C399 2809   2.527   2.137   7.693  0.1638  0.3031 -0.6086
    6MOL   C400 2810   2.432   2.237   7.670  0.2637 -0.7098 -0.3077
    6MOL   O401 2811   2.576   1.900   7.728 -0.6298 -0.1004 -0.0438
    6MOL   H402 2812   1.706   2.295   7.755  0.5006  0.9664 -1.1376
    6MOL   H403 2813   1.881   2.317   7.591 -2.5532 -0.5058  0.7089
    6MOL   H404 2814   2.181   2.303   7.903  0.1626 -0.1471 -0.9674
    6MOL   H405 2815   1.992   2.262   8.075 -0.1643  1.4116  1.0189
    6MOL   H406 2816   2.146   2.050   7.650  0.3257  0.6382 -2.4322
    6MOL   H407 2817   2.312   1.867   7.696  1.3824  0.1143  1.2211
    6MOL   H408 2818   2.630   2.166   7.709  0.0314  0.4493 -0.0075
    6MOL   H409 2819   2.471   2.336   7.654 -1.2166 -0.0299  0.2433
    6MOL   C410 2820   2.592   1.945   7.965 -0.5873 -0.3899  0.5404
    6MOL   C411 2821   2.645   1.916   8.092  0.2128  0.0719  0.2799
    6MOL   C412 2822   2.754   1.822   8.101 -0.1244 -0.1747 -0.1417
    6MOL   C413 2823   2.812   1.763   7.988 -0.5680 -0.1612 -0.6830
    6MOL   C414 2824   2.749   1.789   7.866  0.3354 -0.3673 -0.0059
    6MOL   C415 2825   2.638   1.879   7.851 -1.2355  0.0725  0.2641
    6MOL   S416 2826   2.817   1.789   8.262  0.1306 -0.5174 -0.1835
    6MOL   O417 2827   2.804   1.911   8.344  0.6901 -0.3217 -0.0259
    6MOL   O418 2828   2.953   1.735   8.247 -0.9551 -0.3390 -0.1608
    6MOL   C419 2829   2.715   1.656   8.329 -0.2972  0.9279  0.8215
    6MOL   C420 2830   2.770   1.539   8.379  0.5174 -0.8011  0.7341
    6MOL   C421 2831   2.683   1.436   8.420  0.6769 -0.3794 -0.4606
    6MOL   C422 2832   2.546   1.453   8.410 -0.4378  0.2181 -0.1297
    6MOL   C423 2833   2.490   1.573   8.362 -0.7518 -0.0204 -0.4339
    6MOL   C424 2834   2.575   1.677   8.327  0.0775  0.0803 -0.5800
    6MOL   O425 2835   2.470   1.345   0.016  0.1041  0.1390  0.4833
    6MOL   H426 2836   2.496   1.994   7.970 -0.9070 -0.8146 -1.0005
    6MOL   H427 2837   2.608   1.962   8.182  0.7163 -1.2549  1.1927
    6MOL   H428 2838   2.902   1.704   7.996  0.1711  0.8748 -1.1278
    6MOL   H429 2839   2.788   1.748   7.775  1.1351 -0.2475  0.2824
    6MOL   H430 2840   2.877   1.523   8.375  0.3685 -1.5689 -0.3302
    6MOL   H431 2841   2.734   1.344   0.017 -0.7559 -0.7137  1.5482
    6MOL   H432 2842   2.382   1.582   8.359 -0.6557  0.7398 -1.7737
    6MOL   H433 2843   2.533   1.769   8.288  0.9786  0.3781 -0.8756
    6MOL   C434 2844   2.501   1.119   0.101  0.5588 -0.0240  0.0213
    6MOL   C435 2845   2.549   1.030   0.201  0.5176 -0.4483 -0.4587
    6MOL   C436 2846   2.581   1.088   0.320 -1.2485 -0.4248 -0.3744
    6MOL   C437 2847   2.589   1.225   0.342 -0.7384 -0.0083 -0.2232
    6MOL   C438 2848   2.543   1.311   0.240 -0.3150  0.1156 -0.4232
    6MOL   C439 2849   2.509   1.261   0.113 -0.5776 -0.2632  0.1752
    6MOL   S440 2850   2.611   0.983   0.467 -0.5276 -0.0736 -0.8529
    6MOL   O441 2851   2.524   0.862   0.466 -0.5386  0.4785 -0.7016
    6MOL   O442 2852   2.606   1.072   0.587 -0.1358  0.1375 -0.1733
    6MOL   C443 2853   2.775   0.915   0.456 -0.1787  0.1361 -0.1712
    6MOL   C444 2854   2.831   0.850   0.566 -0.5654 -0.3746  0.0345
    6MOL   C445 2855   2.961   0.794   0.567  0.7021 -0.1930 -0.2739
    6MOL   C446 2856   3.047   0.826   0.463  1.2694  0.5199 -0.5724
    6MOL   C447 2857   2.993   0.895   0.353 -0.2100 -0.1666 -0.1221
    6MOL   C448 2858   2.858   0.937   0.346 -0.1613  0.2112  0.6161
    6MOL   O449 2859   3.183   0.788   0.466 -0.1439  0.2194 -0.2956
    6MOL   H450 2860   2.458   1.084   0.008 -0.3712 -0.9730  0.8018
    6MOL   H451 2861   2.553   0.923   0.186  2.6678 -0.7725  2.0057
    6MOL   H452 2862   2.617   1.263   0.439  0.2736 -1.3821  0.0310
    6MOL   H453 2863   2.525   1.417   0.256  3.4154  0.6781  0.4736
    6MOL   H454 2864   2.768   0.850   0.654 -0.4323 -1.4946  0.1375
    6MOL   H455 2865   3.002   0.742   0.652 -0.7952  0.6238  0.9858
    6MOL   H456 2866   3.061   0.914   0.271 -0.3678 -0.9615 -0.4345
    6MOL   H457 2867   2.817   0.987   0.259 -0.9043  1.6114  1.7511
    6MOL   C458 2868   3.255   0.938   0.639  0.7787 -0.0715  0.2914
    6MOL   C459 2869   3.348   1.031   0.684 -0.1286 -0.0751 -0.0284
    6MOL   C460 2870   3.445   1.080   0.599 -0.1649 -0.3638 -0.6520
    6MOL   C461 2871   3.446   1.041   0.462 -0.4298  0.0287  0.1860
    6MOL   C462 2872   3.359   0.939   0.421 -0.4204 -0.1276  0.3764
    6MOL   C463 2873   3.270   0.884   0.511  0.1921  0.1053 -0.2873
    6MOL   S464 2874   3.557   1.210   0.650  0.0464 -0.2175 -0.3680
    6MOL   O465 2875   3.632   1.254   0.527 -0.0794 -0.4342 -0.2774
    6MOL   O466 2876   3.632   1.172   0.771  0.6200 -0.2646 -0.5162
    6MOL   C467 2877   3.463   1.351   0.701  0.0672  0.8018  0.2929
    6MOL   C468 2878   3.370   1.399   0.602 -0.2869  0.1404  0.8426
    6MOL   C469 2879   3.300   1.516   0.624  0.8598  0.0064 -0.4640
    6MOL   C470 2880   3.319   1.588   0.746  0.3849  0.1454 -0.2648
    6MOL   C471 2881   3.408   1.543   0.844  0.4593  0.3143 -0.2534
    6MOL   C472 2882   3.491   1.428   0.819  0.0985  0.2502  0.5882
    6MOL   O473 2883   3.253   1.709   0.759 -0.2774  0.2025  0.0604
    6MOL   H474 2884   3.180   0.903   0.708  2.0020 -1.3667  0.9867
    6MOL   H475 2885   3.342   1.067   0.786 -1.0351  1.8758 -0.7418
    6MOL   H476 2886   3.506   1.089   0.387  1.4772 -0.3997  1.4043
    6MOL   H477 2887   3.357   0.907   0.318  1.7981  0.8838 -0.0202
    6MOL   H478 2888   3.345   1.338   0.516  0.3340  0.7101  0.2459
    6MOL   H479 2889   3.227   1.563   0.559  0.6082  0.7480  0.3580
    6MOL   H480 2890   3.418   1.599   0.936 -0.5894  2.7318 -1.5484
    6MOL   H481 2891   3.574   1.393   0.879  1.7221 -0.1566 -1.8217
    6MOL   H482 2892   3.205   1.739   0.683 -3.1257 -0.8463  1.3913
    7MOL     C1 2893   4.124   0.686   4.209  0.7232  0.4007  0.2295
    7MOL     C2 2894   4.116   0.668   4.349 -0.8086 -0.6939  0.2599
    7MOL     C3 2895   4.005   0.723   4.419 -0.0467 -0.7558 -0.5998
    7MOL     C4 2896   3.916   0.803   4.352  0.1669  0.5153  0.1985
    7MOL     C5 2897   3.933   0.829   4.210 -0.7847 -0.4384  0.5038
    7MOL     C6 2898   4.036   0.767   4.140 -1.1151  0.1551 -0.0874
    7MOL     S7 2899   3.985   0.693   4.590  0.0085  0.5125 -0.2920
    7MOL     O8 2900   4.121   0.692   4.650  0.3888  0.1539 -0.3999
    7MOL     O9 2901   3.905   0.570   4.594 -0.9296  0.5301 -0.2028
    7MOL    C10 2902   3.885   0.820   4.657  0.7449  0.0862  0.1308
    7MOL    C11 2903   3.941   0.937   4.695  0.0772  0.6608  0.3089
    7MOL    C12 2904   3.865   1.041   4.744  0.3965 -0.5242  1.0497
    7MOL    C13 2905   3.725   1.028   4.740  0.1759 -0.2274  0.6805
    7MOL    C14 2906   3.661   0.909   4.714  0.3635 -0.0630  0.1561
    7MOL    C15 2907   3.746   0.801   4.669  0.5282 -0.6557  0.7130
    7MOL    O16 2908   3.654   1.137   4.776  0.4275  0.4272  0.5065
    7MOL    H17 2909   4.199   0.625   4.161 -2.1034 -2.3613 -0.9267
    7MOL    H18 2910   4.193   0.614   4.404  0.2473 -1.0696 -1.5528
    7MOL    H19 2911   3.839   0.849   4.413 -1.7398 -0.6774 -1.2550
    7MOL    H20 2912   3.864   0.893   4.158 -0.7734 -0.4336  0.4955
    7MOL    H21 2913   4.047   0.954   4.683 -0.0611  1.6367  0.4639
    7MOL    H22 2914   3.911   1.133   4.775  0.3814 -0.5453  1.1358
    7MOL    H23 2915   3.557   0.888   4.736  1.1732 -1.9919  2.2616
    7MOL    H24 2916   3.698   0.708   4.640 -0.4143 -0.6544  2.2500
    7MOL    H25 2917   4.056   0.787   4.035 -0.8141  2.7300  0.4315
    7MOL    C26 2918   3.726   1.293   4.599  0.3262  0.1701 -0.0428
    7MOL    C27 2919   3.707   1.336   4.465  0.5918  0.1081  0.2016
    7MOL    C28 2920   3.581   1.317   4.412  0.1480  0.8379  0.2981
    7MOL    C29 2921   3.471   1.283   4.492  0.4458 -0.4318  0.1524
    7MOL    C30 2922   3.492   1.221   4.618 -0.4853  0.0947  0.5023
    7MOL    C31 2923   3.621   1.221   4.671  0.4220  0.0181  0.2718
    7MOL    S32 2924   3.558   1.356   4.235 -0.1481 -0.3602 -0.2096
    7MOL    O33 2925   3.551   1.500   4.226 -0.2301 -0.1139 -0.3870
    7MOL    O34 2926   3.447   1.273   4.181  0.7653  0.0099 -0.0040
    7MOL    C35 2927   3.709   1.307   4.150  0.3086 -0.3360  0.1959
    7MOL    C36 2928   3.809   1.410   4.146 -0.5349  0.1634  0.0623
    7MOL    C37 2929   3.934   1.379   4.093  0.2462  0.7416  1.0453
    7MOL    C38 2930   3.946   1.259   4.012 -0.0559  0.3985 -0.3984
    7MOL    C39 2931   3.842   1.164   4.015 -0.5114  0.6409 -0.6048
    7MOL    C40 2932   3.723   1.185   4.084  0.4316 -0.7742 -0.3613
    7MOL    O41 2933   4.058   1.248   3.922 -0.2316 -0.2182 -0.0032
    7MOL    H42 2934   3.825   1.307   4.642  0.4993  2.9039 -1.2030
    7MOL    H43 2935   3.783   1.378   4.402  0.4636 -0.3705 -0.2735
    7MOL    H44 2936   3.373   1.278   4.446  0.1311 -0.3152  0.7980
    7MOL    H45 2937   3.420   1.151   4.658  1.4850 -2.6518 -0.6277
    7MOL    H46 2938   3.800   1.508   4.190  0.5490 -0.3643  1.5105
    7MOL    H47 2939   4.010   1.455   4.099  0.1885  0.8395  0.5054
    7MOL    H48 2940   3.857   1.074   3.957  2.0216 -0.5722  1.8207
    7MOL    H49 2941   3.645   1.112   4.075 -1.6656  1.6234 -2.5386
    7MOL    C50 2942   4.161   1.043   3.828  0.5235  0.6020 -0.0955
    7MOL    C51 2943   4.248   0.932   3.841  0.0307 -0.4918 -0.5024
    7MOL    C52 2944   4.308   0.907   3.968 -0.4907  0.8860 -0.3018
    7MOL    C53 2945   4.289   0.991   4.079  0.0200 -0.7024 -0.4139
    7MOL    C54 2946   4.214   1.109   4.052  0.7045  0.7503  0.4651
    7MOL    C55 2947   4.142   1.134   3.935 -0.5992  0.2520 -0.8813
    7MOL    S56 2948   4.412   0.767   3.975 -0.2061  0.1848  0.1240
    7MOL    O57 2949   4.330   0.659   3.919  0.2646  0.5393 -0.3662
    7MOL    O58 2950   4.464   0.755   4.115 -0.2142 -0.6549 -0.3054
    7MOL    C59 2951   4.553   0.790   3.863 -0.2079 -0.3422  0.3890
    7MOL    C60 2952   4.604   0.918   3.843  0.9138  0.6515  0.6790
    7MOL    C61 2953   4.720   0.938   3.773  0.0533 -0.5386 -0.0735
    7MOL    C62 2954   4.784   0.826   3.718 -0.6233 -0.2313 -0.0509
    7MOL    C63 2955   4.732   0.698   3.731  0.9002 -0.2326 -0.2318
    7MOL    C64 2956   4.616   0.681   3.803 -0.2351  0.4227 -0.3033
    7MOL    O65 2957   4.902   0.850   3.651  1.3621  0.1014  0.1570
    7MOL    H66 2958   4.100   1.056   3.740 -0.9008  0.4948  0.8611
    7MOL    H67 2959   4.270   0.868   3.757 -0.0069  0.8778 -1.5591
    7MOL    H68 2960   4.356   0.978   4.162  3.2942 -2.3169 -3.1749
    7MOL    H69 2961   4.199   1.178   4.134 -2.8696  2.5836 -1.6043
    7MOL    H70 2962   4.542   0.999   3.880  0.4570  1.4539 -1.7929
    7MOL    H71 2963   4.755   1.039   3.756  1.1063 -1.0863 -1.2726
    7MOL    H72 2964   4.785   0.610   3.698  1.0935  0.5489 -2.0949
    7MOL    H73 2965   4.573   0.582   3.810 -1.8324  1.0484 -0.9347
    7MOL    C74 2966   5.018   0.890   3.446  0.9672  0.5657  0.0822
    7MOL    C75 2967   5.022   0.893   3.308 -0.5029  0.1163 -0.6405
    7MOL    C76 2968   4.907   0.891   3.228  0.0559  0.4842  0.1604
    7MOL    C77 2969   4.783   0.878   3.292  0.3241  0.3302 -0.7925
    7MOL    C78 2970   4.778   0.861   3.435  0.6644  0.0703  0.5339
    7MOL    C79 2971   4.893   0.868   3.511 -0.7318 -0.2660  0.5138
    7MOL    S80 2972   4.924   0.886   3.052 -0.0071 -0.2782 -0.0855
    7MOL    O81 2973   5.004   1.003   3.013 -0.1111 -0.5490 -0.0640
    7MOL    O82 2974   4.789   0.887   2.999  0.1707 -0.1498  0.2294
    7MOL    C83 2975   4.999   0.731   3.002 -0.4606  0.4513  0.1136
    7MOL    C84 2976   4.962   0.610   3.063 -1.0087  0.1457 -0.5567
    7MOL    C85 2977   5.011   0.485   3.011  0.2293  0.3256  0.3143
    7MOL    C86 2978   5.109   0.490   2.914 -0.4114 -0.1434  0.3222
    7MOL    C87 2979   5.153   0.611   2.857  0.3741  0.1568 -0.0337
    7MOL    C88 2980   5.090   0.731   2.889 -0.2350 -0.0694 -0.3505
    7MOL    O89 2981   5.179   0.373   2.882  0.8316 -0.1882 -0.4334
    7MOL    H90 2982   5.102   0.898   3.514  1.0719 -0.0089  0.0196
    7MOL    H91 2983   5.120   0.899   3.262 -0.8463 -1.6225 -1.6487
    7MOL    H92 2984   4.692   0.855   3.238 -0.3274 -0.8509  0.7738
    7MOL    H93 2985   4.684   0.845   3.485  0.2782 -0.4118 -0.3305
    7MOL    H94 2986   4.884   0.604   3.138  0.6158 -0.8404  1.0909
    7MOL    H95 2987   4.984   0.389   3.053  2.3178 -0.5149 -0.1834
    7MOL    H96 2988   5.236   0.601   2.787 -0.7980  1.2775 -1.6120
    7MOL    H97 2989   5.115   0.827   2.846  1.4236 -0.2829  0.1260
    7MOL    C98 2990   5.247   0.296   3.110 -0.3868 -0.1349 -0.9137
    7MOL    C99 2991   5.353   0.281   3.203 -0.2819 -0.0981  0.0438
    7MOL   C100 2992   5.481   0.295   3.158 -0.2008  0.4644 -0.0761
    7MOL   C101 2993   5.511   0.319   3.025 -0.3742 -0.2183  0.1867
    7MOL   C102 2994   5.410   0.343   2.924 -0.1889  0.8745 -0.0794
    7MOL   C103 2995   5.274   0.333   2.972 -0.1257 -0.3241 -0.1334
    7MOL   S104 2996   5.611   0.286   3.291  0.4676 -0.2885  0.0498
    7MOL   O105 2997   5.573   0.195   3.399  0.0053  0.4341  0.2746
    7MOL   O106 2998   5.639   0.423   3.331 -0.7058 -0.4600  0.1270
    7MOL   C107 2999   5.759   0.214   3.217  1.0364  0.3782 -0.2411
    7MOL   C108 3000   5.865   0.304   3.195  0.1952 -0.1868 -0.5233
    7MOL   C109 3001   5.976   0.265   3.119  0.3916  0.2961 -0.2171
    7MOL   C110 3002   5.982   0.139   3.057 -0.1604  0.6246 -0.0392
    7MOL   C111 3003   5.877   0.049   3.084  0.2391  0.4612  0.2715
    7MOL   C112 3004   5.767   0.085   3.163 -0.3382  0.1207  0.6028
    7MOL   O113 3005   6.087   0.109   2.983  0.1594  0.2781  0.2833
    7MOL   H114 3006   5.150   0.302   3.157 -0.2830 -1.3898 -0.5217
    7MOL   H115 3007   5.336   0.268   3.309 -1.8842  1.8051  0.0719
    7MOL   H116 3008   5.616   0.334   3.004 -0.1260 -0.9673  0.8423
    7MOL   H117 3009   5.441   0.389   2.832  1.4100 -0.3211 -0.1629
    7MOL   H118 3010   5.854   0.408   3.220  0.1285 -0.4472  0.5576
    7MOL   H119 3011   6.062   0.329   3.113  0.5849 -0.1391 -2.7634
    7MOL   H120 3012   5.869   8.377   3.038 -1.5389  0.2403  1.0143
    7MOL   H121 3013   5.681   0.020   3.165 -1.3770  1.4568  0.8042
    7MOL   C122 3014   6.231   0.010   3.157 -0.0254  0.4090  0.0833
    7MOL   C123 3015   6.356   8.373   3.180 -0.2827 -0.5457  0.9245
    7MOL   C124 3016   6.428   8.318   3.074 -0.0658 -0.4849  0.5146
    7MOL   C125 3017   6.384   8.335   2.939 -0.6022 -0.6834 -0.0049
    7MOL   C126 3018   6.266   8.406   2.910  0.4973 -0.1952 -1.0169
    7MOL   C127 3019   6.192   0.024   3.021 -0.0822 -0.4737  0.2200
    7MOL   S128 3020   6.584   8.232   3.112  0.0246 -0.2220  0.1269
    7MOL   O129 3021   6.620   8.255   3.249 -0.1063  0.0756 -0.2696
    7MOL   O130 3022   6.673   8.264   3.003 -0.7315  0.0093 -0.0216
    7MOL   C131 3023   6.548   8.053   3.098 -0.6911 -0.5544 -0.2346
    7MOL   C132 3024   6.520   7.997   2.973  0.1487  0.9785  0.2691
    7MOL   C133 3025   6.492   7.856   2.955  0.5030 -0.3087 -0.2746
    7MOL   C134 3026   6.487   7.782   3.076 -0.1050 -0.1532  0.8394
    7MOL   C135 3027   6.503   7.841   3.204 -0.5386  0.4539 -1.1075
    7MOL   C136 3028   6.542   7.973   3.212  0.3281  0.1032  0.4413
    7MOL   O137 3029   6.447   7.654   3.073 -0.5281  0.4169  0.7381
    7MOL   H138 3030   6.176   0.047   3.242 -0.7706  0.7286 -0.5378
    7MOL   H139 3031   6.395   8.365   3.280 -0.9810 -1.3331  1.1414
    7MOL   H140 3032   6.457   8.308   2.865 -0.9121 -1.2115 -0.1186
    7MOL   H141 3033   6.224   0.001   2.813 -1.6776  1.2865  0.1901
    7MOL   H142 3034   6.536   8.054   2.883  0.8208 -2.9817 -2.2776
    7MOL   H143 3035   6.474   7.810   2.859  1.8912  3.3241 -2.3864
    7MOL   H144 3036   6.497   7.786   3.297 -0.3502  1.3115 -0.5810
    7MOL   H145 3037   6.571   8.013   3.308 -1.8491  0.2323  1.0791
    7MOL   C146 3038   6.383   7.484   2.926  0.1711 -0.3670 -0.4189
    7MOL   C147 3039   6.293   7.428   2.837 -0.4050  0.2703  0.1525
    7MOL   C148 3040   6.168   7.490   2.814 -0.4247  0.1135 -0.6186
    7MOL   C149 3041   6.133   7.611   2.879 -0.5420  0.5154  0.3724
    7MOL   C150 3042   6.227   7.665   2.968 -0.3802  0.3926 -0.8681
    7MOL   C151 3043   6.350   7.605   2.989  0.6582 -0.1537 -0.2140
    7MOL   S152 3044   6.050   7.414   2.707 -0.3941 -0.3366 -0.0782
    7MOL   O153 3045   5.930   7.375   2.782 -0.0438  0.5176  0.5653
    7MOL   O154 3046   6.132   7.316   2.627 -0.0548 -0.4786  0.0974
    7MOL   C155 3047   6.003   7.544   2.598 -0.5363 -0.1901  0.6655
    7MOL   C156 3048   6.100   7.609   2.518 -1.0084  0.0003 -0.1240
    7MOL   C157 3049   6.059   7.714   2.436 -0.1485  0.5555 -0.6704
    7MOL   C158 3050   5.924   7.758   2.433  0.0175  0.8625 -0.4888
    7MOL   C159 3051   5.827   7.685   2.508  0.2246  0.4577  0.2550
    7MOL   C160 3052   5.865   7.575   2.586 -0.0023 -0.3394 -0.5185
    7MOL   O161 3053   5.890   7.860   2.347 -0.7162 -0.2652 -0.3236
    7MOL   H162 3054   6.482   7.446   2.944  0.4882  0.5972 -0.1327
    7MOL   H163 3055   6.322   7.339   2.783 -0.4049  0.7931 -0.7310
    7MOL   H164 3056   6.040   7.662   2.863 -1.0629 -0.2980  0.7753
    7MOL   H165 3057   6.201   7.755   3.022  0.7848 -1.6090  3.2502
    7MOL   H166 3058   6.205   7.583   2.519 -1.0628 -0.2097  0.7736
    7MOL   H167 3059   6.133   7.767   2.378  1.3799 -2.7354 -1.8771
    7MOL   H168 3060   5.723   7.708   2.493  0.8457  1.3332 -3.1572
    7MOL   H169 3061   5.792   7.511   2.634  2.1478 -0.1645  3.2278
    7MOL   C170 3062   5.858   7.753   2.137 -0.1786 -0.3939  0.8182
    7MOL   C171 3063   5.783   7.732   2.020 -1.0170 -0.1280  1.1627
    7MOL   C172 3064   5.670   7.811   1.996 -0.2822  0.2008 -0.0686
    7MOL   C173 3065   5.628   7.891   2.098  0.1117  0.0105 -0.4624
    7MOL   C174 3066   5.697   7.916   2.220  0.1829 -0.4343 -0.1391
    7MOL   C175 3067   5.813   7.845   2.235  0.7327 -1.0115  0.8992
    7MOL   S176 3068   5.568   7.798   1.846 -0.0511  0.0045  0.1326
    7MOL   O177 3069   5.625   7.906   1.767 -0.3959  0.1210  0.4550
    7MOL   O178 3070   5.429   7.802   1.878  0.0150  0.1044 -0.2511
    7MOL   C179 3071   5.615   7.650   1.760  0.5188  0.3659 -1.2955
    7MOL   C180 3072   5.610   7.517   1.820 -0.1773  0.4605  0.1686
    7MOL   C181 3073   5.647   7.401   1.744  0.6294  0.1533 -0.3298
    7MOL   C182 3074   5.678   7.409   1.609  0.0804 -0.1064 -0.6413
    7MOL   C183 3075   5.672   7.540   1.552  0.1946 -0.5756  0.3404
    7MOL   C184 3076   5.640   7.656   1.628  0.6849  0.3344 -0.5436
    7MOL   O185 3077   5.689   7.296   1.537 -0.1293 -0.6428 -0.1079
    7MOL   H186 3078   5.950   7.698   2.151 -0.6768 -1.0600  1.5508
    7MOL   H187 3079   5.823   7.668   1.943  0.0222  1.9158 -0.0343
    7MOL   H188 3080   5.538   7.941   2.064  1.4703  0.0377 -4.1960
    7MOL   H189 3081   5.674   7.986   2.300  0.1140  1.0365 -1.4296
    7MOL   H190 3082   5.582   7.508   1.924  1.9196  2.1018  0.8995
    7MOL   H191 3083   5.633   7.310   1.801 -1.6350  1.3810  1.1989
    7MOL   H192 3084   5.680   7.544   1.444 -0.5185 -1.0884  0.2607
    7MOL   H193 3085   5.646   7.751   1.577  2.0839  0.1100 -0.8163
    7MOL   C194 3086   5.755   7.308   1.303  0.2675  0.1941 -0.3740
    7MOL   C195 3087   5.852   7.307   1.206  0.9186 -0.2215 -0.0929
    7MOL   C196 3088   5.983   7.277   1.237 -0.3153  0.1412  0.6037
    7MOL   C197 3089   6.021   7.256   1.373  0.3184  0.3355  0.3477
    7MOL   C198 3090   5.926   7.278   1.472 -0.2964 -0.1512 -0.2453
    7MOL   C199 3091   5.791   7.292   1.440  0.2360 -0.0670 -0.1847
    7MOL   S200 3092   6.111   7.283   1.107 -0.0926 -0.3430 -0.1801
    7MOL   O201 3093   6.226   7.364   1.151 -0.0650 -0.3665  0.5955
    7MOL   O202 3094   6.044   7.319   0.979  0.3154  0.1084  0.5100
    7MOL   C203 3095   6.159   7.113   1.089 -0.2229 -0.6903  0.2109
    7MOL   C204 3096   6.288   7.063   1.134  0.0718  0.3483 -0.9328
    7MOL   C205 3097   6.325   6.928   1.109  0.2694  0.6263  0.0756
    7MOL   C206 3098   6.227   6.835   1.070  0.0194 -0.0252 -0.4018
    7MOL   C207 3099   6.100   6.888   1.038 -0.0622 -0.4866  0.5441
    7MOL   C208 3100   6.062   7.022   1.044 -0.3511 -0.6916 -0.6050
    7MOL   O209 3101   6.260   6.702   1.066  0.4551 -0.3948 -0.1648
    7MOL   H210 3102   5.654   7.319   1.267 -0.9044 -2.6563  1.8353
    7MOL   H211 3103   5.823   7.318   1.103 -1.8109  0.0426  0.6600
    7MOL   H212 3104   6.121   7.218   1.391 -0.2177 -2.4404 -2.1022
    7MOL   H213 3105   5.954   7.255   1.574 -0.5022 -0.1797 -0.1938
    7MOL   H214 3106   6.358   7.138   1.169  0.4905 -0.7072  0.5316
    7MOL   H215 3107   6.421   6.890   1.139  0.0567 -0.0039 -0.0449
    7MOL   H216 3108   6.020   6.821   1.007  0.4154 -1.0560  0.5385
    7MOL   H217 3109   5.967   7.055   1.003  1.1099  1.9340 -1.9457
    7MOL   C218 3110   6.130   6.598   0.886  0.2619 -0.2517 -0.3253
    7MOL   C219 3111   6.044   6.489   0.850 -0.7074  0.4563  0.0332
    7MOL   C220 3112   5.980   6.417   0.953  0.2239  0.0840 -0.0796
    7MOL   C221 3113   6.009   6.436   1.090 -0.3900  1.0016  0.7189
    7MOL   C222 3114   6.116   6.524   1.123 -0.9242 -0.1393  0.1148
    7MOL   C223 3115   6.168   6.613   1.022  0.4160  0.5516  0.1895
    7MOL   S224 3116   5.854   6.293   0.904 -0.6276  0.2154  0.3818
    7MOL   O225 3117   5.777   6.252   1.024  0.2904 -0.7043 -0.0326
    7MOL   O226 3118   5.916   6.194   0.819  0.0283  0.7346 -0.1699
    7MOL   C227 3119   5.748   6.392   0.793  0.0741  0.2183 -1.0758
    7MOL   C228 3120   5.633   6.453   0.849  0.4064  1.1829  0.5491
    7MOL   C229 3121   5.552   6.540   0.773  0.7167  0.1793 -0.5925
    7MOL   C230 3122   5.589   6.565   0.633  0.2251  0.1423  0.1222
    7MOL   C231 3123   5.701   6.492   0.579 -0.0229 -0.2022 -0.0767
    7MOL   C232 3124   5.777   6.404   0.659  0.3807 -0.2039 -0.1393
    7MOL   O233 3125   5.526   6.649   0.551  0.5892  0.5764  0.2552
    7MOL   H234 3126   6.163   6.658   0.802  3.0542  0.6601  1.3409
    7MOL   H235 3127   6.020   6.475   0.745  1.1167 -0.2468 -0.3118
    7MOL   H236 3128   5.967   6.371   1.165 -0.3089  1.7099  1.3845
    7MOL   H237 3129   6.156   6.532   1.223 -2.4885  0.7395  0.6881
    7MOL   H238 3130   5.611   6.437   0.954  2.1252  2.0710  1.0638
    7MOL   H239 3131   5.464   6.576   0.824  1.9305 -0.2279  1.8532
    7MOL   H240 3132   5.726   6.513   0.476  1.5686  2.6672  0.8395
    7MOL   H241 3133   5.862   6.352   0.617 -0.6608 -2.1771  0.1368
    7MOL   C242 3134   5.620   6.868   0.541 -0.4553  0.0513 -0.0918
    7MOL   C243 3135   5.638   6.995   0.596 -0.0256  0.1542 -0.3396
    7MOL   C244 3136   5.554   7.043   0.697  0.1540  0.2353 -0.3766
    7MOL   C245 3137   5.451   6.958   0.746  0.2951 -0.0963  0.5728
    7MOL   C246 3138   5.430   6.832   0.691 -0.0655  0.8184  0.6342
    7MOL   C247 3139   5.522   6.783   0.596  0.0745  0.3041  0.5109
    7MOL   S248 3140   5.572   7.212   0.753  0.4737  0.1007  0.2156
    7MOL   O249 3141   5.567   7.221   0.898 -0.1667 -0.1578  0.1446
    7MOL   O250 3142   5.472   7.282   0.671 -0.3508  0.4457 -0.4500
    7MOL   C251 3143   5.732   7.276   0.691  0.1243 -0.1209 -0.0857
    7MOL   C252 3144   5.853   7.204   0.712  0.1193 -0.1017  0.0401
    7MOL   C253 3145   5.974   7.254   0.651 -0.0631 -0.1601  0.3152
    7MOL   C254 3146   5.971   7.369   0.566  0.5200 -0.2248  0.0036
    7MOL   C255 3147   5.850   7.440   0.545 -0.1206  1.2370  0.2615
    7MOL   C256 3148   5.731   7.393   0.607  0.3385 -0.9378  1.2164
    7MOL   O257 3149   6.085   7.417   0.508 -0.2961  0.2147 -0.5970
    7MOL   H258 3150   5.689   6.843   0.462 -1.3431 -1.8243 -0.2957
    7MOL   H259 3151   5.724   7.052   0.564  1.5104 -1.0290  1.5571
    7MOL   H260 3152   5.369   6.998   0.805 -0.3907  0.1618 -0.5460
    7MOL   H261 3153   5.354   6.764   0.726 -2.1258  3.9018  2.3457
    7MOL   H262 3154   5.846   7.111   0.766  0.3832 -0.5081 -0.6224
    7MOL   H263 3155   6.071   7.208   0.657 -0.3054 -0.6800  0.2656
    7MOL   H264 3156   5.838   7.527   0.482 -1.8256  0.2813 -0.8001
    7MOL   H265 3157   5.634   7.435   0.585  1.6926  2.6051  1.6684
    7MOL   C266 3158   6.116   7.572   0.693 -0.3897 -0.4229  0.2341
    7MOL   C267 3159   6.174   7.687   0.746 -0.8557 -0.2642 -0.1842
    7MOL   C268 3160   6.258   7.764   0.657 -0.3155 -0.0022  0.6089
    7MOL   C269 3161   6.287   7.725   0.527  0.3281  0.5144 -0.4412
    7MOL   C270 3162   6.237   7.596   0.476  0.2671  0.4301  0.7276
    7MOL   C271 3163   6.148   7.521   0.561 -0.3338 -0.4991  0.7323
    7MOL   S272 3164   6.341   7.912   0.729 -0.2183  0.1439  0.0030
    7MOL   O273 3165   6.335   8.025   0.633  0.2603 -0.8367 -0.3972
    7MOL   O274 3166   6.469   7.880   0.785  0.2896 -0.4106  0.8357
    7MOL   C275 3167   6.236   7.967   0.864 -0.2433  0.6625  0.3124
    7MOL   C276 3168   6.295   8.006   0.987 -0.1780 -0.7108  0.2560
    7MOL   C277 3169   6.215   8.047   1.098  0.5084  0.0813  0.7227
    7MOL   C278 3170   6.077   8.057   1.077 -0.5201 -0.4987 -0.0867
    7MOL   C279 3171   6.021   8.032   0.955  0.3022  0.2583 -0.7278
    7MOL   C280 3172   6.095   7.974   0.852  0.2186 -0.3650 -0.1158
    7MOL   O281 3173   6.002   8.102   1.184  0.9624  0.0859 -0.1983
    7MOL   H282 3174   6.041   7.523   0.752  0.2568 -0.6397  0.8829
    7MOL   H283 3175   6.144   7.709   0.847  1.8649 -0.1423  0.6415
    7MOL   H284 3176   6.355   7.786   0.469  0.0217  1.4057  0.1316
    7MOL   H285 3177   6.266   7.568   0.376 -1.7004 -1.1892  0.5726
    7MOL   H286 3178   6.402   7.997   0.998 -0.1939 -1.6432 -0.2745
    7MOL   H287 3179   6.268   8.080   1.186  0.1896  3.8925 -0.3956
    7MOL   H288 3180   5.913   8.036   0.950  0.3936  1.2305 -2.4880
    7MOL   H289 3181   6.049   7.957   0.756 -1.5351 -2.5102  1.0867
    7MOL   C290 3182   5.957   7.911   1.323 -0.0740 -0.6921  0.0176
    7MOL   C291 3183   5.971   7.844   1.448  0.3125  0.4833 -0.4165
    7MOL   C292 3184   6.045   7.900   1.552  0.2065  0.0843 -0.7702
    7MOL   C293 3185   6.106   8.024   1.542 -0.5928 -0.0181  0.2849
    7MOL   C294 3186   6.091   8.086   1.415  0.1713 -0.8084 -0.2199
    7MOL   C295 3187   6.019   8.034   1.305 -0.3495  0.0195  0.1573
    7MOL   S296 3188   6.047   7.800   1.702 -0.1094  0.5049 -0.1823
    7MOL   O297 3189   6.186   7.739   1.702 -0.2639 -0.4058 -1.2740
    7MOL   O298 3190   5.926   7.719   1.713 -0.6809  0.2901 -0.1475
    7MOL   C299 3191   6.036   7.907   1.850  0.6493 -0.3037 -0.0211
    7MOL   C300 3192   5.944   8.012   1.859 -0.0334 -0.3012 -0.4638
    7MOL   C301 3193   5.959   8.107   1.963  0.0775 -0.2357  0.2940
    7MOL   C302 3194   6.061   8.095   2.058 -0.4021 -0.6093  0.5104
    7MOL   C303 3195   6.148   7.987   2.048 -0.1958  0.2878 -0.3060
    7MOL   C304 3196   6.135   7.890   1.947 -0.3331  0.4130  0.2301
    7MOL   O305 3197   6.086   8.193   2.158  0.0540  0.1599 -0.2414
    7MOL   H306 3198   5.902   7.878   1.236 -3.8888 -1.0856  2.4305
    7MOL   H307 3199   5.937   7.743   1.462  0.1552  0.6923  0.8161
    7MOL   H308 3200   6.163   8.077   1.617 -0.3833  0.5957 -0.3066
    7MOL   H309 3201   6.149   8.177   1.412  1.0619 -1.4197 -2.9044
    7MOL   H310 3202   5.851   8.006   1.803  0.1582  0.8411 -0.9366
    7MOL   H311 3203   5.895   8.193   1.977  2.0941  1.4038 -0.2613
    7MOL   H312 3204   6.232   7.980   2.116 -0.2917 -1.3520 -0.3420
    7MOL   H313 3205   6.211   7.814   1.940 -0.3500  0.3557  0.6353
    7MOL   C314 3206   6.169   8.094   2.365 -0.9094 -0.2537  0.1429
    7MOL   C315 3207   6.150   8.056   2.501 -0.2877  0.0221 -0.1150
    7MOL   C316 3208   6.025   8.093   2.563 -0.5886 -0.3193 -0.1939
    7MOL   C317 3209   5.927   8.168   2.492 -0.0061  0.6300  0.4007
    7MOL   C318 3210   5.947   8.193   2.352  0.1443 -0.7131 -0.6448
    7MOL   C319 3211   6.067   8.154   2.288 -0.0228  0.3227 -0.2590
    7MOL   S320 3212   6.008   8.050   2.740  0.0197  0.1986 -0.4334
    7MOL   O321 3213   6.049   8.171   2.815 -0.1146 -0.0817 -0.1292
    7MOL   O322 3214   6.067   7.920   2.761 -0.3216 -0.0329  0.0500
    7MOL   C323 3215   5.827   8.024   2.758 -0.3744 -0.4856  0.3977
    7MOL   C324 3216   5.748   8.141   2.787  0.2349  0.2623 -0.8808
    7MOL   C325 3217   5.614   8.127   2.804  0.6182  0.2132  0.0151
    7MOL   C326 3218   5.549   8.005   2.787 -0.0359 -0.5395 -0.3583
    7MOL   C327 3219   5.628   7.890   2.761  0.1925 -0.4098 -0.0544
    7MOL   C328 3220   5.767   7.900   2.748  0.8769  0.3420  0.7102
    7MOL   O329 3221   5.413   7.994   2.793  0.1036 -0.5057  0.4573
    7MOL   H330 3222   6.256   8.059   2.312 -0.0024  2.3892 -0.1937
    7MOL   H331 3223   6.228   8.002   2.553  0.5855  0.1428 -1.2754
    7MOL   H332 3224   5.831   8.197   2.531 -0.5931  1.0354 -1.3129
    7MOL   H333 3225   5.867   8.243   2.298  0.8009  1.8808  0.7000
    7MOL   H334 3226   5.794   8.237   2.805 -0.0182  0.1005  0.6712
    7MOL   H335 3227   5.553   8.214   2.825  2.5278  1.6539 -0.2601
    7MOL   H336 3228   5.580   7.794   2.764 -0.2121 -0.2351 -0.8204
    7MOL   H337 3229   5.828   7.811   2.751 -0.8512 -0.8704  0.3363
    7MOL   C338 3230   5.427   7.899   3.018 -0.5113  0.3687  0.0587
    7MOL   C339 3231   5.353   7.863   3.132 -0.4451  0.0054 -0.7022
    7MOL   C340 3232   5.214   7.886   3.140  0.1939  0.2627 -0.3417
    7MOL   C341 3233   5.142   7.932   3.029 -0.1823 -0.1176  0.1847
    7MOL   C342 3234   5.212   7.972   2.922 -0.2076 -0.1465 -0.3237
    7MOL   C343 3235   5.355   7.955   2.910  0.2320 -0.4053 -0.8216
    7MOL   S344 3236   5.133   7.853   3.300 -0.4510 -0.1111 -0.1008
    7MOL   O345 3237   5.008   7.927   3.305  0.0217 -0.0956  0.1963
    7MOL   O346 3238   5.234   7.862   3.405 -0.2855 -0.3038 -0.8475
    7MOL   C347 3239   5.078   7.682   3.309  0.4843 -0.5029  0.5615
    7MOL   C348 3240   5.029   7.625   3.184 -0.3057  0.3119 -0.3691
    7MOL   C349 3241   4.987   7.489   3.191 -0.1669 -0.5089 -0.3309
    7MOL   C350 3242   5.002   7.412   3.306 -0.0597  0.2592  0.2910
    7MOL   C351 3243   5.050   7.471   3.423  0.3413  0.3514  0.1190
    7MOL   C352 3244   5.082   7.607   3.426 -0.4671 -0.2472 -0.0014
    7MOL   O353 3245   4.971   7.279   3.311  0.3262  0.7341  0.6620
    7MOL   H354 3246   5.533   7.883   3.025 -0.7081 -2.3797 -2.1603
    7MOL   H355 3247   5.406   7.823   3.217 -1.8676  1.1962  0.7916
    7MOL   H356 3248   5.035   7.935   3.046  0.1981  2.6409  2.2203
    7MOL   H357 3249   5.155   7.997   2.834 -2.9008 -0.5194  1.2354
    7MOL   H358 3250   5.014   7.690   3.099  2.1324  0.5713 -0.6509
    7MOL   H359 3251   4.940   7.456   3.099  0.7064  1.6453 -1.6015
    7MOL   H360 3252   5.056   7.403   3.507  0.8053 -0.1433 -0.3173
    7MOL   H361 3253   5.120   7.651   3.517  0.9221 -0.0704 -0.6373
    7MOL   C362 3254   4.727   7.273   3.304  0.1459  0.5333 -0.4736
    7MOL   C363 3255   4.606   7.241   3.361  0.4010  0.7705  0.1598
    7MOL   C364 3256   4.597   7.192   3.488  0.0928 -0.1495 -0.1437
    7MOL   C365 3257   4.711   7.184   3.569 -0.3626  0.3417  0.0397
    7MOL   C366 3258   4.841   7.211   3.514 -0.1856 -0.1503 -0.0046
    7MOL   C367 3259   4.850   7.256   3.379 -0.5351 -0.0114  0.3356
    7MOL   S368 3260   4.446   7.151   3.566 -0.2333 -0.6384  0.1283
    7MOL   O369 3261   4.346   7.244   3.510 -0.4278 -0.0804  0.1755
    7MOL   O370 3262   4.477   7.145   3.710  0.2922 -0.1761 -0.4568
    7MOL   C371 3263   4.409   6.982   3.503  0.7165  0.1400  0.3801
    7MOL   C372 3264   4.460   6.865   3.572 -0.3433 -0.0930 -0.4134
    7MOL   C373 3265   4.425   6.734   3.536 -0.4475  0.1692  0.2215
    7MOL   C374 3266   4.349   6.719   3.418 -0.2320 -0.1163  0.3899
    7MOL   C375 3267   4.290   6.837   3.347 -0.4887 -1.4961 -0.2421
    7MOL   C376 3268   4.324   6.967   3.391  0.9036  0.6534 -1.1666
    7MOL   O377 3269   4.317   6.592   3.385 -0.5610  0.0152  0.0888
    7MOL   H378 3270   4.735   7.315   3.205  3.3583  0.9514 -0.0890
    7MOL   H379 3271   4.525   7.243   3.290  1.7272  0.4253 -1.4091
    7MOL   H380 3272   4.696   7.155   3.672 -0.0785 -1.7823 -0.5046
    7MOL   H381 3273   4.925   7.197   3.580  1.2254  0.0622 -1.7046
    7MOL   H382 3274   4.519   6.890   3.658 -0.7275 -0.5588 -0.0148
    7MOL   H383 3275   4.464   6.645   3.582  0.8005 -0.4017 -1.8460
    7MOL   H384 3276   4.221   6.830   3.265  1.0066 -0.5395 -1.5947
    7MOL   H385 3277   4.281   7.058   3.352 -0.8926  0.1143 -0.5142
    7MOL   C386 3278   4.257   6.568   3.151  0.1324  0.3200  0.1942
    7MOL   C387 3279   4.159   6.527   3.057  0.4448 -0.0561 -0.2877
    7MOL   C388 3280   4.025   6.494   3.103 -0.8489 -0.5025 -0.1843
    7MOL   C389 3281   3.990   6.515   3.239 -0.8046  0.0219  0.2793
    7MOL   C390 3282   4.091   6.544   3.330  0.2870 -0.2893  0.4209
    7MOL   C391 3283   4.224   6.569   3.291 -1.1671  0.7686  0.9335
    7MOL   S392 3284   3.894   6.441   2.984 -0.0517 -0.2468  0.7110
    7MOL   O393 3285   3.804   6.551   2.954  0.4551 -0.0580 -0.0334
    7MOL   O394 3286   3.842   6.312   3.038 -0.0700  0.1895  0.4672
    7MOL   C395 3287   3.971   6.404   2.829 -0.0638  0.2138 -0.0748
    7MOL   C396 3288   3.931   6.476   2.714 -0.6210 -0.7883  0.2233
    7MOL   C397 3289   3.990   6.453   2.588  0.5052  0.7521 -0.5708
    7MOL   C398 3290   4.092   6.348   2.579 -0.2920 -0.4594 -0.2216
    7MOL   C399 3291   4.131   6.279   2.699  0.3453  0.9276 -0.0441
    7MOL   C400 3292   4.072   6.308   2.822  1.0342  0.5984 -0.7187
    7MOL   O401 3293   4.157   6.319   2.462  0.2041 -0.6824  0.4899
    7MOL   H402 3294   4.360   6.582   3.123 -0.1660  1.3669 -0.3973
    7MOL   H403 3295   4.188   6.532   2.953 -1.4661  0.4726 -0.8105
    7MOL   H404 3296   3.891   6.495   3.275 -1.9869  2.6167 -1.3804
    7MOL   H405 3297   4.063   6.551   3.434 -3.1626 -0.1616 -0.4782
    7MOL   H406 3298   3.850   6.547   2.723  1.4600  1.9140 -1.6072
    7MOL   H407 3299   3.951   6.496   2.497 -1.1567  0.6328  0.0738
    7MOL   H408 3300   4.216   6.214   2.689 -1.9273 -1.8190 -2.5993
    7MOL   H409 3301   4.108   6.261   2.912  0.0710 -0.7416 -1.0127
    7MOL   C410 3302   4.384   6.405   2.472 -0.1910 -0.1402 -0.0162
    7MOL   C411 3303   4.482   6.486   2.409  0.5454  0.4105  0.7745
    7MOL   C412 3304   4.450   6.557   2.296 -0.4611 -0.3751  0.4843
    7MOL   C413 3305   4.321   6.549   2.234  0.1102  0.0543 -0.2380
    7MOL   C414 3306   4.221   6.471   2.293 -0.4088  0.3123  0.6165
    7MOL   C415 3307   4.257   6.398   2.413 -0.5393 -0.5944 -0.1440
    7MOL   S416 3308   4.580   6.647   2.216 -0.3733 -0.0732 -0.2859
    7MOL   O417 3309   4.612   6.585   2.087 -0.1822 -0.0896 -0.2877
    7MOL   O418 3310   4.690   6.663   2.311  0.1807 -0.4242 -0.7973
    7MOL   C419 3311   4.516   6.814   2.181  0.1844  0.3508 -0.0163
    7MOL   C420 3312   4.540   6.873   2.055 -0.1141 -0.2355 -0.1865
    7MOL   C421 3313   4.504   7.007   2.029 -0.0148  0.3187 -0.0381
    7MOL   C422 3314   4.434   7.085   2.128 -0.2844 -0.2803 -0.2170
    7MOL   C423 3315   4.414   7.026   2.252 -0.5526 -0.3224 -0.5021
    7MOL   C424 3316   4.446   6.889   2.280  0.5363  0.4002 -0.0658
    7MOL   O425 3317   4.391   7.213   2.096 -0.2153  0.4418  0.2410
    7MOL   H426 3318   4.411   6.351   2.562  0.7570  2.3757  1.2587
    7MOL   H427 3319   4.583   6.486   2.448  0.7338 -1.2068  0.3435
    7MOL   H428 3320   4.295   6.583   2.134  1.3991 -1.3725 -1.0755
    7MOL   H429 3321   4.122   6.461   2.251  0.5981  0.5414 -1.8938
    7MOL   H430 3322   4.603   6.819   1.986  0.4183  0.6731 -0.4282
    7MOL   H431 3323   4.520   7.050   1.931 -0.7018 -0.7943 -0.6381
    7MOL   H432 3324   4.365   7.087   2.326 -2.0021 -1.4530 -0.4960
    7MOL   H433 3325   4.429   6.850   2.379  1.6228 -0.4425 -0.1951
    7MOL   C434 3326   4.539   7.394   2.030 -0.1421 -0.0539  0.2910
    7MOL   C435 3327   4.637   7.488   2.072  0.2849  0.4111  0.0047
    7MOL   C436 3328   4.655   7.517   2.210 -0.4168 -0.6373 -0.1098
    7MOL   C437 3329   4.580   7.449   2.309 -0.2886 -1.1887 -0.3311
    7MOL   C438 3330   4.477   7.356   2.270 -0.5674 -0.1503  0.2252
    7MOL   C439 3331   4.464   7.325   2.134  0.1318  0.4247 -0.4980
    7MOL   S440 3332   4.798   7.622   2.259  0.1622  0.0184  0.0121
    7MOL   O441 3333   4.924   7.554   2.233  0.3128 -0.5663  0.1170
    7MOL   O442 3334   4.768   7.676   2.393 -0.2750 -0.1459 -0.2210
    7MOL   C443 3335   4.801   7.768   2.151 -0.3170  0.3166  0.0553
    7MOL   C444 3336   4.724   7.881   2.195 -0.3301  0.0248  0.3359
    7MOL   C445 3337   4.735   8.003   2.125  0.0643  0.1268 -0.0470
    7MOL   C446 3338   4.810   8.007   2.008 -0.2848 -1.2543  0.0254
    7MOL   C447 3339   4.875   7.893   1.957  0.9684  0.0923 -0.5374
    7MOL   C448 3340   4.877   7.776   2.031 -0.0478  0.5127 -0.3500
    7MOL   O449 3341   4.825   8.121   1.932  0.0988  0.0003 -0.2132
    7MOL   H450 3342   4.532   7.383   1.922  2.0924 -0.4589  0.1692
    7MOL   H451 3343   4.700   7.540   2.001  1.4076  0.4902  1.0405
    7MOL   H452 3344   4.604   7.478   2.410  1.0113  1.7967 -1.4449
    7MOL   H453 3345   4.414   7.314   2.347  0.7453 -2.3438  0.1362
    7MOL   H454 3346   4.668   7.872   2.287 -0.6187  0.9412  0.2509
    7MOL   H455 3347   4.677   8.088   2.159 -0.2923  0.2170 -0.8552
    7MOL   H456 3348   4.924   7.909   1.863 -0.2431 -0.6549 -1.3137
    7MOL   H457 3349   4.933   7.693   1.990  1.0242  1.3241 -0.5449
    7MOL   C458 3350   4.602   8.196   1.891 -0.6886 -0.1526 -0.1869
    7MOL   C459 3351   4.494   8.224   1.806  0.0535  0.8981 -0.2393
    7MOL   C460 3352   4.511   8.190   1.670  0.3548 -0.0001  0.2517
    7MOL   C461 3353   4.634   8.131   1.623 -0.1435  0.2011  0.3230
    7MOL   C462 3354   4.742   8.110   1.711 -1.0849  0.6746 -0.4937
    7MOL   C463 3355   4.725   8.145   1.843  0.0057 -0.5996  0.1166
    7MOL   S464 3356   4.383   8.241   1.557 -0.3688 -0.0976 -0.1795
    7MOL   O465 3357   4.257   8.247   1.624 -0.6272 -0.1439 -0.0957
    7MOL   O466 3358   4.407   8.167   1.431  0.3837  0.0656  0.3913
    7MOL   C467 3359   4.428   8.409   1.527 -0.0770  0.2039 -0.4849
    7MOL   C468 3360   4.551   0.035   1.574 -0.0673 -0.6976  0.2099
    7MOL   C469 3361   4.588   0.168   1.543  0.0284 -0.5151  0.1638
    7MOL   C470 3362   4.503   0.246   1.467 -0.4905 -0.1346 -0.0588
    7MOL   C471 3363   4.374   0.202   1.438 -0.2904 -0.0508  0.4111
    7MOL   C472 3364   4.338   0.069   1.456  0.2282  0.1496 -0.5431
    7MOL   O473 3365   4.547   0.374   1.427 -0.1597  0.1864  0.5058
    7MOL   H474 3366   4.596   8.222   1.995 -1.5243  0.4528 -0.3853
    7MOL   H475 3367   4.397   8.264   1.833  0.4735  1.0387  1.1038
    7MOL   H476 3368   4.655   8.113   1.518  0.1115  1.5227  0.1359
    7MOL   H477 3369   4.841   8.071   1.689 -1.1231 -0.1091  0.6499
    7MOL   H478 3370   4.627   8.406   1.628  1.3315  1.3912  0.4244
    7MOL   H479 3371   4.692   0.187   1.569  0.1791  0.4774 -1.1063
    7MOL   H480 3372   4.301   0.256   1.380  1.3247 -0.7744 -2.3914
    7MOL   H481 3373   4.246   0.023   1.424 -1.1449  1.6295  1.1539
    7MOL   H482 3374   4.474   0.430   1.406  1.1624  1.1921 -1.5563
    8MOL     C1 3375   0.957   1.769   1.854 -0.7080  0.5331 -0.6464
    8MOL     C2 3376   0.972   1.660   1.761  0.5341 -0.0429  0.5989
    8MOL     C3 3377   0.881   1.552   1.761 -0.6482  0.8117  0.2132
    8MOL     C4 3378   0.783   1.538   1.863 -0.6463  0.1941 -0.2648
    8MOL     C5 3379   0.791   1.635   1.968  0.2494  0.5850  0.4750
    8MOL     C6 3380   0.869   1.749   1.961  0.1316 -0.2072 -0.7423
    8MOL     S7 3381   0.897   1.411   1.644  0.0356  0.3046  0.0198
    8MOL     O8 3382   0.927   1.463   1.512 -0.2732 -0.5828  0.0017
    8MOL     O9 3383   0.775   1.331   1.661  0.4283 -0.6812 -0.6358
    8MOL    C10 3384   1.038   1.312   1.693 -0.1897 -0.2858  1.0283
    8MOL    C11 3385   1.033   1.204   1.780  0.7924 -0.1657 -0.3261
    8MOL    C12 3386   1.149   1.120   1.797  0.2769 -0.1462 -0.3051
    8MOL    C13 3387   1.270   1.158   1.733  1.1583  0.2086  0.2074
    8MOL    C14 3388   1.274   1.277   1.660  0.0163 -0.2303  0.3105
    8MOL    C15 3389   1.157   1.345   1.630  0.0658  0.2174 -0.9121
    8MOL    O16 3390   1.384   1.086   1.751  0.3898 -0.7186  0.0200
    8MOL    H17 3391   1.005   1.865   1.838 -1.6882  0.7475 -2.3769
    8MOL    H18 3392   1.051   1.667   1.688 -0.7650 -2.2598 -1.1132
    8MOL    H19 3393   0.710   1.458   1.857  0.8125 -1.0516 -2.4550
    8MOL    H20 3394   0.719   1.620   2.047 -0.9751 -3.0713 -1.2619
    8MOL    H21 3395   0.941   1.187   1.835  1.6583 -0.4538  1.0490
    8MOL    H22 3396   1.142   1.031   1.858 -0.4150 -0.1606 -0.3950
    8MOL    H23 3397   1.369   1.308   1.619  0.2520 -0.1917  0.8735
    8MOL    H24 3398   1.159   1.426   1.558 -2.2805  2.0059  0.9655
    8MOL    H25 3399   0.850   1.831   2.028 -2.2963  0.4535 -2.1529
    8MOL    C26 3400   1.447   1.013   1.529 -0.5771  0.6291 -0.4367
    8MOL    C27 3401   1.548   1.007   1.430  0.1075  0.3250  0.3167
    8MOL    C28 3402   1.676   1.058   1.458  0.4552 -0.0388 -0.2774
    8MOL    C29 3403   1.707   1.108   1.584  0.0829  0.2915 -1.0922
    8MOL    C30 3404   1.609   1.121   1.683 -0.0289 -0.3533 -0.6707
    8MOL    C31 3405   1.479   1.073   1.656  0.0967 -1.5033 -0.2566
    8MOL    S32 3406   1.794   1.053   1.328 -0.1229  0.0289 -0.6557
    8MOL    O33 3407   1.723   1.006   1.209  0.3793 -0.3000 -0.7522
    8MOL    O34 3408   1.911   0.978   1.375  0.2621  0.3438  0.7730
    8MOL    C35 3409   1.839   1.228   1.306  0.1207 -0.5319  0.6965
    8MOL    C36 3410   1.766   1.309   1.221  0.6408  0.3386 -0.3591
    8MOL    C37 3411   1.799   1.444   1.208 -0.6779 -0.1160  0.0007
    8MOL    C38 3412   1.908   1.499   1.285  0.8097  0.1727 -0.2335
    8MOL    C39 3413   1.977   1.413   1.373 -0.4952 -0.2746 -0.0786
    8MOL    C40 3414   1.937   1.278   1.388  0.1309  0.5339 -0.5311
    8MOL    O41 3415   1.952   1.622   1.266  0.1107 -0.3087 -0.4305
    8MOL    H42 3416   1.354   0.962   1.512  1.6077 -3.2159 -1.3861
    8MOL    H43 3417   1.515   0.969   1.334  0.7964 -2.5233  1.1495
    8MOL    H44 3418   1.808   1.134   1.612 -0.9241  1.6014  1.5393
    8MOL    H45 3419   1.625   1.162   1.782 -3.3639  3.0875 -1.3995
    8MOL    H46 3420   1.678   1.269   1.173  1.3564  0.4770 -1.8362
    8MOL    H47 3421   1.744   1.502   1.136  0.9992 -0.7662 -1.8310
    8MOL    H48 3422   2.067   1.446   1.423  1.0974 -1.5052 -2.0372
    8MOL    H49 3423   2.001   1.213   1.446  1.9057  1.4890 -1.3855
    8MOL    C50 3424   2.037   1.650   1.050 -0.5797  0.6960 -0.0550
    8MOL    C51 3425   2.135   1.688   0.962  0.4438  0.2778 -0.3912
    8MOL    C52 3426   2.268   1.706   1.006  0.4709  0.5392 -0.1680
    8MOL    C53 3427   2.295   1.706   1.148  0.2318 -0.0664 -0.5230
    8MOL    C54 3428   2.191   1.664   1.240 -0.6982 -0.3618  0.1943
    8MOL    C55 3429   2.060   1.643   1.190 -0.8730  0.3121  1.3436
    8MOL    S56 3430   2.384   1.762   0.883  0.2351 -0.1242  0.0418
    8MOL    O57 3431   2.443   1.892   0.920  0.7009  0.3345  0.5330
    8MOL    O58 3432   2.322   1.743   0.751 -0.3553  0.8656 -0.0270
    8MOL    C59 3433   2.525   1.645   0.884 -0.2428 -0.6628  0.0436
    8MOL    C60 3434   2.653   1.692   0.923 -0.1892  0.3319  0.1132
    8MOL    C61 3435   2.762   1.608   0.925 -0.5794  0.9631 -0.1109
    8MOL    C62 3436   2.749   1.479   0.864  0.2049 -0.7120 -0.3227
    8MOL    C63 3437   2.623   1.434   0.818 -0.2998  0.1909  0.2155
    8MOL    C64 3438   2.510   1.514   0.829  0.2460  0.4826  0.3780
    8MOL    O65 3439   2.854   1.396   0.852 -0.1346  0.4804 -0.2301
    8MOL    H66 3440   1.941   1.655   1.001  0.1016  0.2573 -1.4514
    8MOL    H67 3441   2.113   1.724   0.863 -0.0038  0.3331 -0.2708
    8MOL    H68 3442   2.396   1.732   1.179  0.2885 -0.9246  0.0299
    8MOL    H69 3443   2.205   1.661   1.347  2.4024 -3.2820 -0.2190
    8MOL    H70 3444   2.668   1.790   0.966 -0.0949 -0.1517  1.1882
    8MOL    H71 3445   2.862   1.639   0.949  0.6008 -1.8166 -1.1218
    8MOL    H72 3446   2.617   1.338   0.768 -0.5394  0.6731 -0.7089
    8MOL    H73 3447   2.411   1.488   0.795 -0.5810 -0.1819  3.2076
    8MOL    C74 3448   2.958   1.245   0.688  0.5663  0.5366  0.0702
    8MOL    C75 3449   3.007   1.215   0.557 -0.4566 -0.5089 -1.0416
    8MOL    C76 3450   2.982   1.313   0.463  0.4827  0.7862  0.4699
    8MOL    C77 3451   2.931   1.435   0.494  0.0193 -0.2256  0.0846
    8MOL    C78 3452   2.890   1.466   0.624 -0.5302  0.5320 -0.0161
    8MOL    C79 3453   2.902   1.371   0.726  0.3163 -0.2303 -0.1755
    8MOL    S80 3454   3.011   1.278   0.289 -0.0599 -0.1718 -0.0909
    8MOL    O81 3455   2.875   1.265   0.230 -0.0905 -0.0714 -0.0574
    8MOL    O82 3456   3.091   1.155   0.273 -0.4238 -0.2715 -0.2818
    8MOL    C83 3457   3.103   1.420   0.227  0.2607  0.4265 -0.3071
    8MOL    C84 3458   3.240   1.406   0.234 -0.0171 -0.1445 -0.3803
    8MOL    C85 3459   3.325   1.510   0.196  0.0997 -0.9192 -1.0317
    8MOL    C86 3460   3.270   1.632   0.152 -0.4260 -0.1609  0.2326
    8MOL    C87 3461   3.128   1.652   0.150 -0.7026 -0.1701  0.7255
    8MOL    C88 3462   3.048   1.543   0.185  0.2572 -0.1547 -0.4769
    8MOL    O89 3463   3.354   1.729   0.105 -0.1599  0.6549  0.2247
    8MOL    H90 3464   2.969   1.176   0.771 -0.8622  1.1131  0.7652
    8MOL    H91 3465   3.048   1.118   0.530 -1.4762 -1.0109 -0.8209
    8MOL    H92 3466   2.905   1.499   0.410  0.5032 -0.7438 -0.4658
    8MOL    H93 3467   2.845   1.564   0.634  2.1707  1.6115  2.0955
    8MOL    H94 3468   3.281   1.308   0.253  1.6210  0.6149  0.1458
    8MOL    H95 3469   3.430   1.489   0.188  0.4396  0.6248 -0.6906
    8MOL    H96 3470   3.092   1.746   0.111  0.9833  0.7088  1.1977
    8MOL    H97 3471   2.942   1.548   0.165  0.1244 -2.8647 -0.6412
    8MOL    C98 3472   3.532   1.892   0.166 -0.3218  0.5107  0.1573
    8MOL    C99 3473   3.596   1.989   0.245 -0.4627  0.4485  0.4285
    8MOL   C100 3474   3.530   2.019   0.365  0.1610  0.2203 -0.4520
    8MOL   C101 3475   3.412   1.946   0.407 -0.6471 -0.2288  0.7070
    8MOL   C102 3476   3.347   1.856   0.318 -0.1288 -0.2079  0.2196
    8MOL   C103 3477   3.409   1.825   0.194  0.1843 -0.1494  0.0821
    8MOL   S104 3478   3.595   2.156   0.464  0.2845 -0.5426 -0.0502
    8MOL   O105 3479   3.696   2.232   0.390  0.3068 -0.3758  0.0772
    8MOL   O106 3480   3.635   2.108   0.598 -0.0633  0.0802  0.8937
    8MOL   C107 3481   3.450   2.260   0.494  0.5206 -0.5483 -0.0242
    8MOL   C108 3482   3.425   2.371   0.418  0.1210  0.1261  0.1152
    8MOL   C109 3483   3.322   2.460   0.450 -0.3143  0.2565 -0.1227
    8MOL   C110 3484   3.235   2.435   0.562  0.2228  1.0169  0.3645
    8MOL   C111 3485   3.261   2.321   0.639 -0.1339 -0.0431 -0.0127
    8MOL   C112 3486   3.368   2.236   0.603 -0.1773  0.1373 -0.7570
    8MOL   O113 3487   3.128   2.519   0.581  0.4736 -0.1349  0.4762
    8MOL   H114 3488   3.580   1.872   0.071  1.4850 -1.5900  1.4490
    8MOL   H115 3489   3.693   2.034   0.235 -0.9776  1.0572 -2.0557
    8MOL   H116 3490   3.375   1.973   0.504 -0.5592  3.6051 -0.2554
    8MOL   H117 3491   3.258   1.807   0.355 -0.6719 -0.2125 -1.0852
    8MOL   H118 3492   3.483   2.397   0.331 -0.5031  2.3890  0.3365
    8MOL   H119 3493   3.309   2.551   0.394  1.3381  1.3615  1.2497
    8MOL   H120 3494   3.196   2.289   0.719 -1.2350 -0.8686 -1.2130
    8MOL   H121 3495   3.394   2.151   0.665 -1.3288 -0.7544 -1.4703
    8MOL   C122 3496   3.195   2.657   0.772  0.3126  0.4452 -0.3489
    8MOL   C123 3497   3.216   2.793   0.821 -0.3722  0.3136 -0.0575
    8MOL   C124 3498   3.172   2.904   0.745 -0.9780 -0.0219  0.0064
    8MOL   C125 3499   3.109   2.884   0.617 -0.3267  0.6401 -0.0909
    8MOL   C126 3500   3.095   2.752   0.565 -0.0952  0.1544  0.3903
    8MOL   C127 3501   3.139   2.639   0.637 -0.5644 -0.4816  0.2373
    8MOL   S128 3502   3.190   3.064   0.818  0.0921  0.2331  0.0721
    8MOL   O129 3503   3.335   3.082   0.835  0.4693 -0.1633 -0.0807
    8MOL   O130 3504   3.108   3.065   0.943  0.4571 -0.1041  0.2411
    8MOL   C131 3505   3.133   3.190   0.708  0.1666  0.1020  0.3790
    8MOL   C132 3506   3.222   3.253   0.625 -0.1205 -0.1884  0.1754
    8MOL   C133 3507   3.192   3.360   0.543 -0.2587  0.0992  0.0800
    8MOL   C134 3508   3.058   3.400   0.543  0.1276 -0.5969  0.8178
    8MOL   C135 3509   2.962   3.347   0.634  0.0428  0.0585 -0.1103
    8MOL   C136 3510   3.000   3.244   0.729  0.5182 -0.2281  0.4796
    8MOL   O137 3511   3.026   3.492   0.442  0.3896  0.1671 -0.2070
    8MOL   H138 3512   3.221   2.568   0.827 -1.1086  0.7173  0.7660
    8MOL   H139 3513   3.253   2.816   0.920  1.6783 -1.3155 -0.4010
    8MOL   H140 3514   3.082   2.976   0.567  1.4142  2.2940  1.9227
    8MOL   H141 3515   3.058   2.739   0.464  1.9833  1.2092 -0.5483
    8MOL   H142 3516   3.323   3.214   0.625  0.5975  1.6059 -1.0565
    8MOL   H143 3517   3.260   3.402   0.471 -2.0835 -0.3126 -1.9383
    8MOL   H144 3518   2.868   3.399   0.643  0.6367  0.6580  3.4877
    8MOL   H145 3519   2.923   3.195   0.787 -1.6780  0.6554 -1.5850
    8MOL   C146 3520   2.946   3.680   0.571  0.4809 -0.1502  0.3207
    8MOL   C147 3521   2.834   3.749   0.632  0.5181  0.7115  0.1951
    8MOL   C148 3522   2.715   3.736   0.565  0.0654  0.8616 -0.1131
    8MOL   C149 3523   2.697   3.652   0.450 -0.3835 -0.0743 -0.0775
    8MOL   C150 3524   2.803   3.580   0.397 -0.4267  0.0247  0.3066
    8MOL   C151 3525   2.930   3.583   0.466 -0.3060 -0.0854  0.5784
    8MOL   S152 3526   2.580   3.846   0.620  0.2517  0.3898 -0.3355
    8MOL   O153 3527   2.557   3.957   0.525 -0.7452 -0.4708  0.6134
    8MOL   O154 3528   2.616   3.871   0.761  0.8366  0.6778  0.2046
    8MOL   C155 3529   2.431   3.751   0.623 -0.1806 -0.1471 -0.6085
    8MOL   C156 3530   2.390   3.687   0.744  0.1402 -0.0766  0.6204
    8MOL   C157 3531   2.274   3.609   0.748  0.1316 -0.0091  0.2193
    8MOL   C158 3532   2.191   3.599   0.635 -0.1177 -0.3382  0.6559
    8MOL   C159 3533   2.231   3.668   0.517  0.3868  0.3632 -0.2806
    8MOL   C160 3534   2.350   3.743   0.512  0.0591 -0.6263  0.4253
    8MOL   O161 3535   2.069   3.542   0.633  0.3391 -0.2426  0.3270
    8MOL   H162 3536   3.045   3.687   0.614  0.7182  0.8653 -0.3739
    8MOL   H163 3537   2.853   3.818   0.713  3.0609  1.7308 -1.1986
    8MOL   H164 3538   2.599   3.643   0.406 -0.1243 -0.9753 -0.4776
    8MOL   H165 3539   2.776   3.516   0.313  1.0067  0.4632 -0.5097
    8MOL   H166 3540   2.455   3.679   0.829 -0.1428  0.5966  0.8941
    8MOL   H167 3541   2.251   3.568   0.845 -0.6121  1.8256  0.8323
    8MOL   H168 3542   2.158   3.664   0.437 -0.2738 -0.4504  0.3551
    8MOL   H169 3543   2.375   3.803   0.426 -1.9329  0.3648  0.5172
    8MOL   C170 3544   1.969   3.443   0.827  0.5176  0.6616 -0.5917
    8MOL   C171 3545   1.924   3.328   0.892  0.1359  0.2756 -0.4153
    8MOL   C172 3546   1.956   3.202   0.834  0.0638  0.3805 -0.1185
    8MOL   C173 3547   2.035   3.189   0.723 -0.0368  0.1987 -0.4500
    8MOL   C174 3548   2.091   3.303   0.663  0.6872  0.1605  0.0207
    8MOL   C175 3549   2.047   3.432   0.711  0.3157 -0.0587 -0.3583
    8MOL   S176 3550   1.889   3.054   0.909  0.5318 -0.0661 -0.0584
    8MOL   O177 3551   1.914   2.942   0.816 -0.4204  0.1827  0.0004
    8MOL   O178 3552   1.750   3.084   0.952  0.0481  0.0166  0.0156
    8MOL   C179 3553   1.988   3.039   1.060  0.4181 -0.1176  0.6864
    8MOL   C180 3554   1.922   3.065   1.186  0.1829  0.7343 -0.5246
    8MOL   C181 3555   1.990   3.026   1.310  0.6984 -0.3860  0.0353
    8MOL   C182 3556   2.120   2.982   1.303 -0.2907  0.3475 -0.1221
    8MOL   C183 3557   2.188   2.976   1.177  0.5195  0.1451 -0.9088
    8MOL   C184 3558   2.123   3.000   1.050 -0.0264  0.4388  0.0670
    8MOL   O185 3559   2.182   2.957   1.428 -0.5396  0.7103  0.9804
    8MOL   H186 3560   1.936   3.541   0.859 -2.2715 -0.9124  1.6024
    8MOL   H187 3561   1.869   3.337   0.985  2.6923  0.9673  1.0542
    8MOL   H188 3562   2.057   3.087   0.695  0.1634 -0.4741  2.0794
    8MOL   H189 3563   2.162   3.304   0.582  1.0530  1.4643  0.3395
    8MOL   H190 3564   1.825   3.111   1.183 -0.1941 -0.0635 -0.7451
    8MOL   H191 3565   1.940   3.043   1.405 -2.0279 -2.0079 -1.0289
    8MOL   H192 3566   2.291   2.943   1.177  0.1847 -0.9098 -0.6340
    8MOL   H193 3567   2.179   2.981   0.960 -0.6551  0.0453 -0.2511
    8MOL   C194 3568   2.083   2.739   1.494 -0.1094  0.0132  0.5723
    8MOL   C195 3569   2.005   2.662   1.586  0.0633  0.1340 -0.6601
    8MOL   C196 3570   1.955   2.726   1.700 -1.2322 -0.2495  0.4759
    8MOL   C197 3571   1.983   2.860   1.727 -0.0814  0.4852  0.4804
    8MOL   C198 3572   2.060   2.935   1.638 -0.3951 -0.8725  0.0280
    8MOL   C199 3573   2.111   2.875   1.518  0.4669 -0.5036 -0.3601
    8MOL   S200 3574   1.850   2.635   1.818 -0.1853  0.0572 -0.2455
    8MOL   O201 3575   1.780   2.529   1.748 -0.6336 -0.8891 -0.6669
    8MOL   O202 3576   1.775   2.729   1.899  0.1261  0.2473 -0.3700
    8MOL   C203 3577   1.951   2.542   1.931 -0.2092 -0.2437 -0.0276
    8MOL   C204 3578   2.093   2.549   1.928  0.2236  0.0945  0.1239
    8MOL   C205 3579   2.174   2.452   1.995 -0.1695  0.0792  0.5188
    8MOL   C206 3580   2.113   2.345   2.066  0.5392 -0.8533 -0.5046
    8MOL   C207 3581   1.971   2.335   2.060  0.2623 -0.3124 -0.1105
    8MOL   C208 3582   1.883   2.429   1.996 -0.8403 -0.2978 -0.5438
    8MOL   O209 3583   2.193   2.251   2.130 -0.5065 -0.3253  0.0954
    8MOL   H210 3584   2.121   2.701   1.400  0.3068  1.7362  0.0247
    8MOL   H211 3585   1.979   2.559   1.571 -0.9219  0.4636 -1.2260
    8MOL   H212 3586   1.933   2.901   1.813  0.4570  0.8345  0.6248
    8MOL   H213 3587   2.077   3.039   1.658 -1.3610 -0.5169 -0.9344
    8MOL   H214 3588   2.134   2.629   1.867  1.2683  0.1887  0.9328
    8MOL   H215 3589   2.282   2.455   1.999 -0.1111  1.4497 -1.5326
    8MOL   H216 3590   1.916   2.255   2.107  0.9454 -0.6759  0.0817
    8MOL   H217 3591   1.776   2.417   1.994 -1.1353  2.2682 -2.6255
    8MOL   C218 3592   2.120   2.032   2.062  0.2102 -0.1464  0.0737
    8MOL   C219 3593   2.140   1.920   1.988 -0.0894  0.1357 -0.4556
    8MOL   C220 3594   2.258   1.906   1.918 -0.3981  0.1967  0.4607
    8MOL   C221 3595   2.362   1.996   1.930 -0.5003 -0.2767  1.1051
    8MOL   C222 3596   2.339   2.119   2.002  0.0211 -0.2928 -0.1380
    8MOL   C223 3597   2.211   2.138   2.059  0.0466 -0.4267 -0.0497
    8MOL   S224 3598   2.262   1.774   1.800 -0.1207 -0.4699 -0.0222
    8MOL   O225 3599   2.195   1.662   1.871  0.1023  0.6706  0.2385
    8MOL   O226 3600   2.396   1.753   1.742 -0.0146  0.0654  0.3622
    8MOL   C227 3601   2.169   1.832   1.668 -0.4904 -0.6165  0.0210
    8MOL   C228 3602   2.062   1.761   1.615  0.1245 -0.3703 -0.0055
    8MOL   C229 3603   1.990   1.821   1.508 -0.1669  0.2287 -0.8120
    8MOL   C230 3604   2.033   1.941   1.450  0.3893 -0.3089  0.4247
    8MOL   C231 3605   2.138   2.018   1.511 -0.0050  1.0397  0.2353
    8MOL   C232 3606   2.205   1.955   1.618 -0.0182 -0.3701 -0.2502
    8MOL   O233 3607   1.951   2.006   1.362 -0.2961  0.6889 -0.2185
    8MOL   H234 3608   2.029   2.060   2.114  1.1303 -1.1054  2.2680
    8MOL   H235 3609   2.069   1.839   1.996 -0.0024  0.1267  0.2400
    8MOL   H236 3610   2.457   1.968   1.886 -0.5755  0.6298  0.3386
    8MOL   H237 3611   2.420   2.189   2.014 -1.2185  0.7950  2.2181
    8MOL   H238 3612   2.043   1.657   1.636 -0.9486 -0.4250 -1.1816
    8MOL   H239 3613   1.894   1.781   1.478 -0.1662 -1.4458  1.2685
    8MOL   H240 3614   2.177   2.114   1.481  0.5931  1.3281  1.8819
    8MOL   H241 3615   2.287   2.014   1.658 -0.8317 -0.4869  1.6176
    8MOL   C242 3616   2.118   2.018   1.182 -0.0735  0.4991 -0.0696
    8MOL   C243 3617   2.147   2.049   1.051  0.1711 -0.0725  0.6530
    8MOL   C244 3618   2.047   2.097   0.966 -0.3856 -0.5111 -0.0642
    8MOL   C245 3619   1.916   2.125   1.020  0.8453  0.2656  0.1930
    8MOL   C246 3620   1.888   2.095   1.154  0.2704  0.6557  0.7123
    8MOL   C247 3621   1.988   2.035   1.233  0.6474  0.2738 -0.4164
    8MOL   S248 3622   2.068   2.133   0.793 -0.0385  0.3082  0.2174
    8MOL   O249 3623   1.967   2.235   0.761 -0.2740  0.4844 -0.2017
    8MOL   O250 3624   2.072   2.004   0.719  0.4784 -0.0803 -0.5424
    8MOL   C251 3625   2.233   2.207   0.781 -0.4778  0.0524 -0.4825
    8MOL   C252 3626   2.291   2.217   0.654 -1.0158  0.3344  0.0413
    8MOL   C253 3627   2.422   2.276   0.638  0.4320  0.1036  0.6212
    8MOL   C254 3628   2.483   2.348   0.740 -0.9380 -0.0278  0.4797
    8MOL   C255 3629   2.416   2.351   0.864  0.0644  0.8721 -0.2623
    8MOL   C256 3630   2.301   2.274   0.888  0.0393  0.0697 -0.3104
    8MOL   O257 3631   2.591   2.429   0.714 -0.1449 -0.4298 -0.5120
    8MOL   H258 3632   2.197   1.983   1.246  0.5410 -0.4624 -1.3339
    8MOL   H259 3633   2.247   2.028   1.014  0.0268  1.0293 -0.3968
    8MOL   H260 3634   1.840   2.168   0.955  0.9566  1.7206  1.0044
    8MOL   H261 3635   1.785   2.111   1.181  0.1372  1.5538 -0.3183
    8MOL   H262 3636   2.243   2.164   0.573 -2.6826  1.4459  0.2781
    8MOL   H263 3637   2.470   2.263   0.541  0.5823 -3.4914  1.0971
    8MOL   H264 3638   2.451   2.415   0.944 -1.9050  0.0705  1.2673
    8MOL   H265 3639   2.250   2.293   0.981  1.8732  0.2916  0.6529
    8MOL   C266 3640   2.710   2.631   0.779  0.3148  0.5392  0.3952
    8MOL   C267 3641   2.706   2.769   0.798 -0.3283 -0.1498 -0.0431
    8MOL   C268 3642   2.584   2.838   0.798 -0.0163  0.7263  0.2944
    8MOL   C269 3643   2.460   2.772   0.771 -0.3062 -0.2265 -0.4888
    8MOL   C270 3644   2.468   2.638   0.729  0.3777 -0.2455  0.5928
    8MOL   C271 3645   2.587   2.565   0.743  0.3870  0.8996  0.8621
    8MOL   S272 3646   2.574   3.010   0.824 -0.4430 -0.2106  0.0117
    8MOL   O273 3647   2.713   3.052   0.853  0.3099  0.0981  0.4291
    8MOL   O274 3648   2.477   3.036   0.932 -0.1321  0.3069  0.0643
    8MOL   C275 3649   2.510   3.100   0.691 -0.4865  0.4826  0.1799
    8MOL   C276 3650   2.389   3.061   0.626  0.0396  0.2855  0.3639
    8MOL   C277 3651   2.360   3.141   0.514  0.4215 -0.8802 -0.0517
    8MOL   C278 3652   2.430   3.257   0.473  0.8682  0.0625  0.2129
    8MOL   C279 3653   2.546   3.299   0.541 -0.1500  0.4981  0.0891
    8MOL   C280 3654   2.581   3.215   0.650  0.3411  0.1540 -1.1093
    8MOL   O281 3655   2.387   3.327   0.360 -0.6307 -0.3834  0.3297
    8MOL   H282 3656   2.801   2.572   0.781  1.3246  2.0336 -0.7461
    8MOL   H283 3657   2.800   2.812   0.826 -0.6963  0.7161 -0.1434
    8MOL   H284 3658   2.368   2.830   0.772 -0.2936 -0.1897  1.3292
    8MOL   H285 3659   2.374   2.592   0.699  0.6334  0.8931 -2.0186
    8MOL   H286 3660   2.319   2.990   0.666  0.9109 -1.3769 -1.0252
    8MOL   H287 3661   2.279   3.117   0.447  0.1650  0.3762 -0.1903
    8MOL   H288 3662   2.597   3.388   0.508 -2.0537  1.1548 -1.2261
    8MOL   H289 3663   2.665   3.235   0.715 -0.7644 -0.1691  0.4469
    8MOL   C290 3664   2.515   3.207   0.202  0.4444 -0.2639 -0.1649
    8MOL   C291 3665   2.596   3.207   0.091  0.3730  0.3645  0.5032
    8MOL   C292 3666   2.653   3.322   0.042 -0.0980 -0.2750  0.6550
    8MOL   C293 3667   2.616   3.444   0.100  0.5398 -0.6991  0.3182
    8MOL   C294 3668   2.532   3.448   0.213  0.0474  0.7152  0.0682
    8MOL   C295 3669   2.471   3.328   0.254 -0.1947  0.1675  0.4725
    8MOL   S296 3670   2.746   3.320   8.318 -0.3073 -0.0777  0.4664
    8MOL   O297 3671   2.875   3.248   8.351  0.1373 -0.5335  0.3100
    8MOL   O298 3672   2.754   3.462   8.280  0.2042  0.3257  0.2750
    8MOL   C299 3673   2.646   3.233   8.199  0.7801 -0.1208 -0.5301
    8MOL   C300 3674   2.714   3.158   8.100  0.7746  0.4981  0.1944
    8MOL   C301 3675   2.637   3.070   8.017 -0.1961 -0.0028 -0.1972
    8MOL   C302 3676   2.495   3.066   8.019 -0.1873 -0.2567 -0.8073
    8MOL   C303 3677   2.428   3.150   8.116 -0.5166  0.3871 -0.2652
    8MOL   C304 3678   2.507   3.221   8.214  0.3138  0.4573  0.1262
    8MOL   O305 3679   2.416   2.996   7.931  0.2952 -0.2694  0.0914
    8MOL   H306 3680   2.468   3.116   0.238  2.6549 -2.0440 -1.5960
    8MOL   H307 3681   2.613   3.109   0.047 -1.5811  0.2924 -0.1588
    8MOL   H308 3682   2.652   3.534   0.054 -0.8824 -0.1258  0.3091
    8MOL   H309 3683   2.498   3.543   0.253  0.1972 -0.9142  4.2863
    8MOL   H310 3684   2.822   3.158   8.107  0.7769  2.2247  0.3804
    8MOL   H311 3685   2.686   3.003   7.948 -1.5359 -1.3692  0.1624
    8MOL   H312 3686   2.321   3.146   8.123 -0.3298 -2.1270  2.0520
    8MOL   H313 3687   2.455   3.270   8.295 -0.6508  2.6310 -1.7426
    8MOL   C314 3688   2.471   3.071   7.707  0.2214 -0.4154 -0.1115
    8MOL   C315 3689   2.434   3.145   7.599 -0.4263 -0.0828  0.5513
    8MOL   C316 3690   2.307   3.212   7.598 -0.3272  0.5869 -0.4047
    8MOL   C317 3691   2.223   3.207   7.711 -0.2440 -0.4090 -0.0439
    8MOL   C318 3692   2.262   3.135   7.820  0.3214  0.6789  0.2064
    8MOL   C319 3693   2.387   3.070   7.820  0.6552  0.2295 -0.2317
    8MOL   S320 3694   2.253   3.300   7.453 -0.1729 -0.5303 -0.2100
    8MOL   O321 3695   2.361   3.290   7.353  0.0174 -1.0095 -0.8917
    8MOL   O322 3696   2.216   3.437   7.497  0.0370 -1.0987 -0.0747
    8MOL   C323 3697   2.109   3.224   7.369  0.2064  0.0418  0.2753
    8MOL   C324 3698   2.057   3.282   7.253 -0.1482  0.2180 -0.3742
    8MOL   C325 3699   1.958   3.214   7.179 -0.1331  0.2333  0.4025
    8MOL   C326 3700   1.904   3.093   7.235  1.1469 -0.5159 -0.0195
    8MOL   C327 3701   1.953   3.035   7.351  0.7243  0.3312 -0.4926
    8MOL   C328 3702   2.049   3.103   7.425 -0.3047 -0.3453  0.6240
    8MOL   O329 3703   1.797   3.031   7.169  0.3355  0.6610  0.6778
    8MOL   H330 3704   2.551   2.997   7.708  0.2548 -0.3730  2.9175
    8MOL   H331 3705   2.487   3.145   7.504  0.8355 -2.5348  1.2100
    8MOL   H332 3706   2.132   3.264   7.694 -0.4613 -0.6345  0.3621
    8MOL   H333 3707   2.203   3.121   7.910  0.8810  1.3086  0.6740
    8MOL   H334 3708   2.107   3.367   7.210 -1.3896  0.1460 -1.9769
    8MOL   H335 3709   1.913   3.258   7.092 -0.4227 -0.4434  0.2055
    8MOL   H336 3710   1.911   2.943   7.388 -0.3310  1.1906  0.4795
    8MOL   H337 3711   2.092   3.068   7.517  2.4936  0.1232 -0.4394
    8MOL   C338 3712   1.609   3.160   7.095 -0.0629  0.3019 -0.1058
    8MOL   C339 3713   1.494   3.231   7.120 -0.1433  0.6149 -0.7686
    8MOL   C340 3714   1.441   3.234   7.255 -0.5193 -0.0409 -0.2620
    8MOL   C341 3715   1.502   3.150   7.356 -0.7715  0.7934  1.1550
    8MOL   C342 3716   1.622   3.081   7.323 -0.5879  0.1453 -0.4442
    8MOL   C343 3717   1.677   3.089   7.196 -0.6886  0.1265 -0.0427
    8MOL   S344 3718   1.296   3.322   7.282 -0.0307  0.2700  0.1173
    8MOL   O345 3719   1.230   3.249   7.392 -0.7778 -0.1606 -1.0313
    8MOL   O346 3720   1.225   3.338   7.154 -0.2429  0.0547 -0.2312
    8MOL   C347 3721   1.339   3.473   7.367  0.0231  0.1614 -0.4596
    8MOL   C348 3722   1.265   3.515   7.477 -0.9624 -0.6388  0.8159
    8MOL   C349 3723   1.298   3.629   7.546 -0.3658 -0.9491  0.0166
    8MOL   C350 3724   1.409   3.705   7.505 -0.1085 -0.5273  0.0278
    8MOL   C351 3725   1.479   3.667   7.388  0.1298  0.4217 -0.9215
    8MOL   C352 3726   1.440   3.554   7.316 -1.1533  0.4081  0.2975
    8MOL   O353 3727   1.444   3.809   7.589 -0.2770 -0.0636  0.1773
    8MOL   H354 3728   1.667   3.168   7.004  0.6605  0.6818  0.3814
    8MOL   H355 3729   1.441   3.293   7.050  3.0335  1.5977 -2.3901
    8MOL   H356 3730   1.467   3.145   7.458 -0.6380  3.6768  1.3911
    8MOL   H357 3731   1.673   3.021   7.397  0.5010  0.8342 -0.6421
    8MOL   H358 3732   1.186   3.456   7.522 -0.3113 -0.0299  2.8342
    8MOL   H359 3733   1.248   3.654   7.639  0.4191  0.2771  0.1189
    8MOL   H360 3734   1.563   3.723   7.351  1.3627 -0.6099  0.3083
    8MOL   H361 3735   1.496   3.538   7.225  0.4185  1.7605  0.9994
    8MOL   C362 3736   1.641   3.939   7.597  0.3201  0.8224 -0.4307
    8MOL   C363 3737   1.722   4.046   7.550 -0.3118 -0.0955 -0.0828
    8MOL   C364 3738   1.684   4.113   7.437  0.5794  0.9904  0.5868
    8MOL   C365 3739   1.555   4.094   7.377 -0.2760 -0.4194 -0.6856
    8MOL   C366 3740   1.471   3.998   7.435  0.2379  0.4330  0.7343
    8MOL   C367 3741   1.521   3.914   7.532 -0.2232  0.5720 -0.4714
    8MOL   S368 3742   1.792   4.227   7.365  0.0173  0.0968 -0.0684
    8MOL   O369 3743   1.929   4.200   7.418  0.5142 -0.5116 -0.3148
    8MOL   O370 3744   1.735   4.360   7.378  0.4180 -0.2019  0.1474
    8MOL   C371 3745   1.796   4.185   7.189  0.3836  0.6037 -0.2650
    8MOL   C372 3746   1.889   4.093   7.130 -0.0859 -0.1537  0.0910
    8MOL   C373 3747   1.874   4.053   6.997 -0.0911 -0.2940  0.3476
    8MOL   C374 3748   1.767   4.100   6.914  0.1685  0.0149 -0.3740
    8MOL   C375 3749   1.673   4.189   6.973  0.0542 -0.0546  0.6368
    8MOL   C376 3750   1.689   4.232   7.104 -0.1658 -0.3609  0.1072
    8MOL   O377 3751   1.742   4.055   6.787  0.2804  0.7190 -0.4474
    8MOL   H378 3752   1.659   3.883   7.688  2.5318  1.1131 -0.6690
    8MOL   H379 3753   1.815   4.071   7.599  0.5758  0.9123 -2.2302
    8MOL   H380 3754   1.518   4.148   7.291  1.7661 -1.1558 -2.0908
    8MOL   H381 3755   1.373   3.972   7.398 -0.3765  0.9292  1.9959
    8MOL   H382 3756   1.974   4.054   7.184  0.2558  1.0160  0.4228
    8MOL   H383 3757   1.950   3.991   6.951  1.7421  1.4931  0.8820
    8MOL   H384 3758   1.590   4.223   6.914  0.6646  1.3633  0.5563
    8MOL   H385 3759   1.616   4.300   7.144  0.0988 -0.1301  0.2034
    8MOL   C386 3760   1.584   4.100   6.612  0.8473 -0.1818 -0.5522
    8MOL   C387 3761   1.537   4.190   6.512 -0.6341  0.1852 -0.3485
    8MOL   C388 3762   1.599   4.313   6.487 -0.3513 -0.0622  0.1233
    8MOL   C389 3763   1.716   4.341   6.561  0.0755 -0.2566  0.2932
    8MOL   C390 3764   1.769   4.258   6.661  0.4282  0.8516  0.1692
    8MOL   C391 3765   1.702   4.134   6.685 -0.1248 -1.5593 -0.1547
    8MOL   S392 3766   1.538   4.429   6.369 -0.1108 -0.0977 -0.0641
    8MOL   O393 3767   1.399   4.389   6.342 -0.0238 -0.1030  0.0726
    8MOL   O394 3768   1.628   4.430   6.258 -0.2914 -0.1635  0.4009
    8MOL   C395 3769   1.532   4.587   6.454  0.3177  0.1785  0.0037
    8MOL   C396 3770   1.472   4.602   6.586  0.5086 -0.7076  0.6163
    8MOL   C397 3771   1.468   4.734   6.642 -0.5122  0.6759 -0.2214
    8MOL   C398 3772   1.529   4.842   6.572  0.5425  0.1417  0.4161
    8MOL   C399 3773   1.580   4.824   6.438  0.4078  0.7702  0.5345
    8MOL   C400 3774   1.578   4.693   6.380 -0.0592 -0.0348  0.4067
    8MOL   O401 3775   1.531   4.966   6.634  0.0438 -0.0960 -0.2124
    8MOL   H402 3776   1.531   4.008   6.629  2.5764 -0.9888  0.5968
    8MOL   H403 3777   1.441   4.165   6.468 -0.2556  0.8436 -1.5556
    8MOL   H404 3778   1.780   4.426   6.542  0.5264 -0.8342 -0.7874
    8MOL   H405 3779   1.856   4.288   6.718  0.1263  0.7893  0.6628
    8MOL   H406 3780   1.428   4.522   6.643 -0.7314  0.9548  2.0569
    8MOL   H407 3781   1.441   4.745   6.746  0.9025  0.8149  0.1487
    8MOL   H408 3782   1.614   4.910   6.383  2.9120 -0.4089  0.1794
    8MOL   H409 3783   1.607   4.680   6.277 -0.1647 -0.6857  0.4562
    8MOL   C410 3784   1.337   5.009   6.766  0.0461 -0.4155 -0.1487
    8MOL   C411 3785   1.273   5.021   6.889 -0.2501 -0.5672  0.2858
    8MOL   C412 3786   1.352   5.020   7.007  0.2040 -0.3703  0.0864
    8MOL   C413 3787   1.492   5.015   7.005  0.3973  0.3150  0.1665
    8MOL   C414 3788   1.553   4.997   6.876  0.0276 -0.1338  0.3340
    8MOL   C415 3789   1.477   4.990   6.759  0.8332  0.0864  0.0042
    8MOL   S416 3790   1.274   5.055   7.155 -0.2615 -0.0244 -0.3769
    8MOL   O417 3791   1.358   4.978   7.255  0.1004  0.2339 -0.7619
    8MOL   O418 3792   1.128   5.026   7.142  0.2879 -0.2167 -0.3731
    8MOL   C419 3793   1.286   5.233   7.189  0.2624  0.4838  0.3240
    8MOL   C420 3794   1.413   5.289   7.215  0.0970 -0.0843 -0.4928
    8MOL   C421 3795   1.431   5.430   7.232 -0.3271 -0.7698 -0.2443
    8MOL   C422 3796   1.318   5.517   7.225 -0.7080  0.1269  0.1614
    8MOL   C423 3797   1.187   5.456   7.208  0.5344 -0.2137  0.5745
    8MOL   C424 3798   1.172   5.317   7.183 -0.5910  0.1588 -0.7457
    8MOL   O425 3799   1.331   5.642   7.281 -0.3970  0.1579  0.0737
    8MOL   H426 3800   1.272   4.998   6.680 -1.5904 -2.6667  1.3212
    8MOL   H427 3801   1.166   5.036   6.891 -0.1712  0.2263 -0.8342
    8MOL   H428 3802   1.545   5.020   7.099  0.6376 -0.2628  0.0625
    8MOL   H429 3803   1.660   4.987   6.881  0.4260  3.7397  1.5590
    8MOL   H430 3804   1.504   5.231   7.210 -0.1007 -0.4640  0.1966
    8MOL   H431 3805   1.529   5.465   7.260 -1.0049  1.8637 -1.0870
    8MOL   H432 3806   1.097   5.516   7.207  0.6743 -0.0113  0.1738
    8MOL   H433 3807   1.074   5.272   7.178 -0.2230 -0.8452  0.6560
    8MOL   C434 3808   1.502   5.781   7.168  0.4811 -0.3610 -0.1834
    8MOL   C435 3809   1.522   5.889   7.079 -0.3440 -0.3691  0.0333
    8MOL   C436 3810   1.414   5.964   7.022  0.2093 -0.3904 -0.0434
    8MOL   C437 3811   1.284   5.915   7.046 -0.7124 -0.1676  0.2985
    8MOL   C438 3812   1.263   5.811   7.130  0.1141  0.0503  0.4166
    8MOL   C439 3813   1.368   5.745   7.190 -0.2570 -0.2741 -0.1979
    8MOL   S440 3814   1.440   6.102   6.914  0.4224 -0.0879 -0.1395
    8MOL   O441 3815   1.317   6.099   6.829 -0.1519 -0.3819 -0.0533
    8MOL   O442 3816   1.568   6.082   6.852 -0.0552 -0.6479 -0.0529
    8MOL   C443 3817   1.444   6.254   7.015 -0.4873  0.3554  0.7468
    8MOL   C444 3818   1.376   6.257   7.144 -0.0476  0.1774  0.9353
    8MOL   C445 3819   1.367   6.381   7.212 -0.5521  0.6179 -0.0934
    8MOL   C446 3820   1.424   6.495   7.155 -0.3525 -0.5623 -0.8128
    8MOL   C447 3821   1.478   6.499   7.026 -0.2494 -0.0649 -0.2546
    8MOL   C448 3822   1.497   6.372   6.964  0.3947  0.3674  0.3493
    8MOL   O449 3823   1.439   6.607   7.232 -0.0829  0.4791  0.1214
    8MOL   H450 3824   1.583   5.721   7.208  1.4462  1.7308  1.0969
    8MOL   H451 3825   1.626   5.910   7.059  0.2443 -3.2343 -0.1998
    8MOL   H452 3826   1.196   5.960   7.000 -0.3151 -0.5454 -0.8528
    8MOL   H453 3827   1.160   5.782   7.147  0.0154  0.8583  1.2279
    8MOL   H454 3828   1.325   6.169   7.180  0.7406 -0.8049 -0.2989
    8MOL   H455 3829   1.326   6.383   7.312 -0.6827 -0.2812 -0.1287
    8MOL   H456 3830   1.531   6.586   6.990 -0.9288  0.3750 -0.2000
    8MOL   H457 3831   1.548   6.375   6.868  0.0718 -1.4486  0.1143
    8MOL   C458 3832   1.528   6.678   7.448  0.3825  0.3173  0.4270
    8MOL   C459 3833   1.632   6.667   7.548  0.4998 -0.8891  0.9533
    8MOL   C460 3834   1.750   6.606   7.517 -0.5266  0.4469 -0.3531
    8MOL   C461 3835   1.774   6.554   7.388  0.4061  0.1198 -0.4627
    8MOL   C462 3836   1.672   6.557   7.292 -0.3552 -0.5838 -0.1852
    8MOL   C463 3837   1.546   6.616   7.318 -0.6318 -0.5273  0.3416
    8MOL   S464 3838   1.883   6.628   7.632 -0.1876 -0.3671  0.0599
    8MOL   O465 3839   1.823   6.626   7.765 -0.4795  0.4723 -0.1242
    8MOL   O466 3840   1.967   6.742   7.590  0.0916  0.1136 -0.1694
    8MOL   C467 3841   1.972   6.474   7.614 -0.0576  0.2297  0.0921
    8MOL   C468 3842   2.091   6.468   7.547 -0.1225 -0.1438  0.6595
    8MOL   C469 3843   2.154   6.342   7.530 -0.6246  0.1166  0.0187
    8MOL   C470 3844   2.087   6.224   7.570  0.7763 -0.6259  1.0016
    8MOL   C471 3845   1.962   6.234   7.638  0.2067  0.0554  0.6032
    8MOL   C472 3846   1.908   6.358   7.661  0.4904 -0.1988 -0.0664
    8MOL   O473 3847   2.165   6.112   7.567  0.0800  0.5545  0.0963
    8MOL   H474 3848   1.435   6.728   7.471  0.1812  0.5190 -0.7683
    8MOL   H475 3849   1.621   6.715   7.644  3.7183  2.0807 -0.0495
    8MOL   H476 3850   1.864   6.503   7.359 -0.6623 -2.5101  0.6572
    8MOL   H477 3851   1.680   6.511   7.195 -0.6366 -0.8025 -0.1057
    8MOL   H478 3852   2.145   6.558   7.519  0.0945 -0.4759 -0.0161
    8MOL   H479 3853   2.254   6.342   7.487 -0.6729  0.6421 -0.0996
    8MOL   H480 3854   1.922   6.148   7.690 -0.7525  0.7117  0.9483
    8MOL   H481 3855   1.817   6.375   7.718 -0.6936 -0.8085 -1.7412
    8MOL   H482 3856   2.125   6.042   7.616  0.2411  0.1779 -0.3088
    9MOL     C1 3857   5.323   4.145   3.720 -0.6188  0.1764 -0.0945
    9MOL     C2 3858   5.305   4.013   3.752 -0.0241 -0.6798 -0.0569
    9MOL     C3 3859   5.320   3.914   3.657 -0.3085 -0.3302  0.0760
    9MOL     C4 3860   5.345   3.950   3.525  0.6533  0.2373  0.2636
    9MOL     C5 3861   5.369   4.082   3.488 -0.0094  0.1765 -0.6009
    9MOL     C6 3862   5.356   4.184   3.590 -0.4350  0.5373  0.2118
    9MOL     S7 3863   5.292   3.745   3.706 -0.2246 -0.2863 -0.0309
    9MOL     O8 3864   5.153   3.708   3.680 -0.4690 -0.4377 -0.1262
    9MOL     O9 3865   5.350   3.724   3.837 -0.3571  0.2686  0.0746
    9MOL    C10 3866   5.384   3.652   3.589  0.2116 -0.1842 -0.1437
    9MOL    C11 3867   5.327   3.622   3.464 -0.0694  0.2807  0.9969
    9MOL    C12 3868   5.389   3.530   3.376  0.1162  0.2659 -0.0145
    9MOL    C13 3869   5.513   3.473   3.406  0.1219 -0.0278 -0.1219
    9MOL    C14 3870   5.565   3.496   3.535 -0.1005  0.8163 -0.6237
    9MOL    C15 3871   5.506   3.590   3.619 -0.0839  0.5994  0.0590
    9MOL    O16 3872   5.568   3.388   3.318 -0.6767 -0.0143 -0.2976
    9MOL    H17 3873   5.296   4.225   3.788  0.4072  1.1933 -0.8520
    9MOL    H18 3874   5.280   3.984   3.853 -1.1015 -1.0745 -0.4369
    9MOL    H19 3875   5.357   3.871   3.453 -1.4954 -1.8399  2.0735
    9MOL    H20 3876   5.393   4.107   3.386 -1.8970  0.9178 -0.8845
    9MOL    H21 3877   5.226   3.652   3.440  0.0351 -1.2130 -1.5926
    9MOL    H22 3878   5.358   3.490   3.281 -0.7517  1.2371 -0.1417
    9MOL    H23 3879   5.658   3.454   3.572 -0.4616 -0.9516 -1.6367
    9MOL    H24 3880   5.546   3.612   3.717 -2.8224  2.1853  0.8544
    9MOL    H25 3881   5.365   4.288   3.566 -1.5634  0.2020 -1.7328
    9MOL    C26 3882   5.621   3.187   3.433 -0.3541  0.8032 -0.2541
    9MOL    C27 3883   5.710   3.087   3.479  0.0984 -0.0117  0.3407
    9MOL    C28 3884   5.849   3.104   3.459 -0.1496 -0.8893  0.9260
    9MOL    C29 3885   5.896   3.212   3.385  0.6400  0.1022  0.0956
    9MOL    C30 3886   5.806   3.313   3.332  0.1646 -0.1627 -0.0563
    9MOL    C31 3887   5.667   3.299   3.356  0.4942 -0.6602  0.3501
    9MOL    S32 3888   5.976   2.992   3.524 -0.2897  0.3604  0.2019
    9MOL    O33 3889   6.053   2.937   3.410  0.0607  0.3326 -0.3276
    9MOL    O34 3890   5.915   2.891   3.613 -0.2778 -0.4523  0.0798
    9MOL    C35 3891   6.067   3.102   3.625 -0.0583 -0.1590 -1.0199
    9MOL    C36 3892   6.196   3.140   3.596 -0.0092 -0.0160  0.1511
    9MOL    C37 3893   6.268   3.237   3.667 -0.0346 -0.5613 -0.2831
    9MOL    C38 3894   6.208   3.297   3.783 -0.1845 -0.6241 -0.4677
    9MOL    C39 3895   6.074   3.267   3.813 -0.1403 -0.3583  0.0069
    9MOL    C40 3896   6.002   3.174   3.732 -0.2166 -0.6302  0.3831
    9MOL    O41 3897   6.271   3.391   3.860  0.3967 -0.1709  0.4739
    9MOL    H42 3898   5.516   3.191   3.461 -1.0963  2.7757 -3.0719
    9MOL    H43 3899   5.665   3.010   3.541  0.6370 -0.8085 -0.2597
    9MOL    H44 3900   5.998   3.235   3.359  0.5692  0.5452  0.2161
    9MOL    H45 3901   5.851   3.398   3.282  0.7370  1.1084  2.5600
    9MOL    H46 3902   6.240   3.088   3.512 -1.2354  0.1194 -0.5805
    9MOL    H47 3903   6.362   3.272   3.629 -0.6495  1.3783 -0.0706
    9MOL    H48 3904   6.031   3.317   3.899  0.0631  0.1311 -0.1748
    9MOL    H49 3905   5.897   3.152   3.749 -0.1216 -0.2896  1.4217
    9MOL    C50 3906   6.385   3.223   4.002  1.0443 -0.4453 -0.4441
    9MOL    C51 3907   6.494   3.200   4.093  0.2060  0.8118  0.1592
    9MOL    C52 3908   6.567   3.303   4.142  1.0669  0.0598 -0.3411
    9MOL    C53 3909   6.538   3.434   4.100  0.2509 -0.1221 -0.1562
    9MOL    C54 3910   6.440   3.460   4.006  0.2162  0.4928  0.6518
    9MOL    C55 3911   6.368   3.357   3.953  0.4151  0.3924 -0.6353
    9MOL    S56 3912   6.705   3.270   4.252 -0.0446  0.4316  0.1475
    9MOL    O57 3913   6.805   3.189   4.181 -0.1287 -0.4113 -0.1035
    9MOL    O58 3914   6.654   3.208   4.375 -0.1564  0.0995 -0.7754
    9MOL    C59 3915   6.776   3.434   4.292  0.2228 -0.8293 -0.1360
    9MOL    C60 3916   6.908   3.457   4.258  0.2176 -0.3851  0.0521
    9MOL    C61 3917   6.970   3.581   4.302  0.4921  0.4756 -0.7438
    9MOL    C62 3918   6.900   3.675   4.387  0.6862  1.0068 -0.4165
    9MOL    C63 3919   6.770   3.643   4.420 -0.3199 -0.4954 -0.4632
    9MOL    C64 3920   6.702   3.526   4.371 -0.2874  0.2347 -0.2153
    9MOL    O65 3921   6.950   3.794   4.428  0.1009 -0.3960 -0.3042
    9MOL    H66 3922   6.321   3.143   3.967 -0.7889  0.6018  0.4495
    9MOL    H67 3923   6.504   3.097   4.126 -0.6265  0.3729 -0.9275
    9MOL    H68 3924   6.589   3.521   4.138  1.7923 -1.1011  0.0759
    9MOL    H69 3925   6.420   3.562   3.974 -0.2210  0.3646  0.5170
    9MOL    H70 3926   6.967   3.385   4.203  0.5827  0.2469 -0.3950
    9MOL    H71 3927   7.075   3.590   4.279  0.9773  2.1119  1.8279
    9MOL    H72 3928   6.714   3.716   4.476  0.4153  0.0248 -0.4125
    9MOL    H73 3929   6.602   3.495   4.396  0.1063 -1.0211 -0.1635
    9MOL    C74 3930   7.185   3.837   4.433  0.3331 -0.4048  0.0087
    9MOL    C75 3931   7.315   3.792   4.463  0.3372 -0.2524 -0.7599
    9MOL    C76 3932   7.334   3.706   4.573  0.2186 -0.1109 -0.6195
    9MOL    C77 3933   7.221   3.656   4.648  0.1456 -0.0686 -0.1878
    9MOL    C78 3934   7.095   3.692   4.602  0.5158  0.2986  0.0996
    9MOL    C79 3935   7.074   3.772   4.487 -0.1602  1.1258  0.1355
    9MOL    S80 3936   7.493   3.640   4.620  0.1316  0.4602  0.1764
    9MOL    O81 3937   7.493   3.604   4.765 -0.4396  0.0228 -0.1224
    9MOL    O82 3938   7.591   3.735   4.566  0.1069 -0.2839 -0.2032
    9MOL    C83 3939   7.526   3.492   4.527 -0.2662 -0.0929  0.6244
    9MOL    C84 3940   7.614   3.397   4.574 -0.7972  0.2080  0.1927
    9MOL    C85 3941   7.638   3.274   4.501  0.2406  0.3928 -0.9021
    9MOL    C86 3942   7.584   3.262   4.375  0.7281  0.0420 -0.0086
    9MOL    C87 3943   7.497   3.356   4.324 -0.0951 -0.1000 -0.7581
    9MOL    C88 3944   7.471   3.474   4.398 -0.0415 -0.2777  0.0119
    9MOL    O89 3945   7.611   3.149   4.305  0.3613  0.5128  0.2737
    9MOL    H90 3946   7.177   3.907   4.351 -0.1517 -0.8565 -0.3254
    9MOL    H91 3947   7.402   3.832   4.414  1.9406 -0.9286  1.4169
    9MOL    H92 3948   7.228   3.599   4.739 -1.9675 -0.1783 -0.0872
    9MOL    H93 3949   7.010   3.638   4.641  1.3696 -1.4663 -0.4468
    9MOL    H94 3950   7.653   3.412   4.673  0.5452  1.1616 -0.4697
    9MOL    H95 3951   7.712   3.208   4.544  0.1792  1.0883  0.3146
    9MOL    H96 3952   7.465   3.335   4.223 -1.1557  0.1728 -0.4903
    9MOL    H97 3953   7.416   3.555   4.353  0.0599 -0.5162 -0.5501
    9MOL    C98 3954   7.576   2.909   4.286 -0.6113 -0.4702  0.4856
    9MOL    C99 3955   7.487   2.802   4.267 -0.4285  0.2654 -0.2201
    9MOL   C100 3956   7.349   2.824   4.277  0.4486 -0.4311  0.1589
    9MOL   C101 3957   7.293   2.952   4.280  0.5751 -0.3681  0.2617
    9MOL   C102 3958   7.384   3.058   4.285  0.3462  0.5569  0.2447
    9MOL   C103 3959   7.522   3.041   4.302 -0.5202 -0.7405  0.4753
    9MOL   S104 3960   7.236   2.683   4.265 -0.0117  0.6084 -0.2416
    9MOL   O105 3961   7.310   2.564   4.220 -0.5529  0.0608 -0.3661
    9MOL   O106 3962   7.120   2.743   4.202 -0.1122 -0.1324  0.4962
    9MOL   C107 3963   7.200   2.654   4.441  0.1281  0.3227 -0.3550
    9MOL   C108 3964   7.076   2.712   4.482 -0.5979  0.5199 -0.0474
    9MOL   C109 3965   7.019   2.677   4.601 -0.1451 -0.0936 -0.4697
    9MOL   C110 3966   7.090   2.592   4.694  0.4368 -0.0456  0.4966
    9MOL   C111 3967   7.214   2.536   4.655  0.0810  0.2294  0.1850
    9MOL   C112 3968   7.264   2.565   4.528 -0.0519 -0.2457 -0.0193
    9MOL   O113 3969   7.044   2.565   4.826  0.1750 -0.5190 -0.0032
    9MOL   H114 3970   7.681   2.883   4.288 -0.3003  0.6880 -0.6013
    9MOL   H115 3971   7.529   2.703   4.251  0.4214  0.5751  0.0578
    9MOL   H116 3972   7.186   2.960   4.277  0.5808 -0.5103 -0.4284
    9MOL   H117 3973   7.339   3.156   4.289 -0.1206  0.3173  0.8235
    9MOL   H118 3974   7.022   2.785   4.423  1.0191 -0.5268 -2.9512
    9MOL   H119 3975   6.922   2.719   4.624  0.1576  0.4682 -0.1821
    9MOL   H120 3976   7.273   2.466   4.712 -0.0229 -1.9455 -2.2631
    9MOL   H121 3977   7.356   2.520   4.495  1.5568  2.7851  0.2442
    9MOL   C122 3978   7.039   2.323   4.860  0.3213 -0.0727 -0.4420
    9MOL   C123 3979   6.954   2.215   4.876  0.5844  0.0215 -0.8143
    9MOL   C124 3980   6.811   2.222   4.868 -0.3718 -0.0560 -0.4911
    9MOL   C125 3981   6.753   2.351   4.844 -0.2443  0.7919 -0.0236
    9MOL   C126 3982   6.836   2.468   4.840 -0.2122  0.1329 -0.1720
    9MOL   C127 3983   6.972   2.447   4.844  0.3305 -0.2672 -0.1093
    9MOL   S128 3984   6.709   2.076   4.885  0.3554  0.1317 -0.3999
    9MOL   O129 3985   6.648   2.067   5.017 -0.6909  0.2804  0.1266
    9MOL   O130 3986   6.793   1.960   4.848 -0.1169 -0.4620  0.2019
    9MOL   C131 3987   6.566   2.083   4.767 -0.9156  0.1186  0.0354
    9MOL   C132 3988   6.441   2.035   4.816 -0.1432 -0.3125  0.1426
    9MOL   C133 3989   6.330   2.054   4.731  0.1967  0.3035 -0.0783
    9MOL   C134 3990   6.347   2.117   4.603 -0.4856  0.0310 -0.4430
    9MOL   C135 3991   6.477   2.149   4.549  0.2028 -0.5445  0.1643
    9MOL   C136 3992   6.588   2.141   4.636  0.1100 -0.6497 -0.1031
    9MOL   O137 3993   6.244   2.143   4.519  0.2215  0.1779 -0.1365
    9MOL   H138 3994   7.147   2.319   4.861  0.3794  1.2857 -0.6895
    9MOL   H139 3995   6.990   2.115   4.895 -2.8806 -1.0110  0.6189
    9MOL   H140 3996   6.646   2.358   4.851 -0.3418  0.8704 -1.5698
    9MOL   H141 3997   6.785   2.563   4.834  1.7973  1.2944  0.6275
    9MOL   H142 3998   6.435   1.996   4.917 -0.5816 -1.2342 -0.2379
    9MOL   H143 3999   6.238   2.011   4.768  0.4367 -0.4809 -0.3753
    9MOL   H144 4000   6.482   2.195   4.451  0.1062 -0.6962  0.0885
    9MOL   H145 4001   6.686   2.181   4.617 -0.2758  2.2913  3.5702
    9MOL   C146 4002   6.177   1.981   4.356 -0.8590 -0.2000 -0.0791
    9MOL   C147 4003   6.087   1.881   4.314  0.0928 -0.4302 -0.0630
    9MOL   C148 4004   5.979   1.839   4.394  0.7495 -0.4400 -0.2760
    9MOL   C149 4005   5.954   1.912   4.513 -0.5073  0.2415 -0.0636
    9MOL   C150 4006   6.054   2.002   4.558 -0.1520  0.0764  0.0558
    9MOL   C151 4007   6.166   2.040   4.482 -0.1822 -0.2381  0.5819
    9MOL   S152 4008   5.864   1.708   4.343 -0.0675 -0.1944  0.1364
    9MOL   O153 4009   5.908   1.674   4.207  0.3649  0.0927  0.7764
    9MOL   O154 4010   5.731   1.770   4.357 -0.8188 -0.1937  0.0674
    9MOL   C155 4011   5.881   1.567   4.456  0.2337  0.2876 -0.0058
    9MOL   C156 4012   5.903   1.437   4.405 -0.0725  0.4592 -0.0626
    9MOL   C157 4013   5.910   1.332   4.496  0.3112 -0.3143 -0.3354
    9MOL   C158 4014   5.917   1.354   4.635  0.4209  0.3183  0.6480
    9MOL   C159 4015   5.904   1.484   4.689 -0.7280 -0.1185 -0.3511
    9MOL   C160 4016   5.882   1.591   4.598  0.3339 -0.1679 -0.1819
    9MOL   O161 4017   5.931   1.245   4.714  0.2139 -0.3696  0.3304
    9MOL   H162 4018   6.263   2.004   4.296 -0.4736  1.7656  1.1721
    9MOL   H163 4019   6.113   1.837   4.219  2.5686 -1.0345  0.8677
    9MOL   H164 4020   5.858   1.898   4.560  0.5896 -1.1153  1.8781
    9MOL   H165 4021   6.045   2.052   4.653 -0.8819 -1.3582  0.7595
    9MOL   H166 4022   5.894   1.422   4.298  0.4313  0.7985 -0.1559
    9MOL   H167 4023   5.915   1.231   4.459 -1.9183 -0.4190 -0.4294
    9MOL   H168 4024   5.901   1.504   4.795  1.2579 -1.0058 -0.1117
    9MOL   H169 4025   5.892   1.690   4.640  1.6451 -0.1319 -0.5616
    9MOL   C170 4026   6.151   1.172   4.682 -0.3881  0.4782  0.0788
    9MOL   C171 4027   6.280   1.150   4.735  0.6889  0.1680 -0.6563
    9MOL   C172 4028   6.313   1.180   4.870 -0.1104  0.3939 -0.4578
    9MOL   C173 4029   6.207   1.222   4.957 -0.5998 -0.1524 -0.2860
    9MOL   C174 4030   6.076   1.245   4.904 -0.7745 -0.5972  0.1266
    9MOL   C175 4031   6.051   1.223   4.766  0.2818 -0.8321 -0.3919
    9MOL   S176 4032   6.474   1.163   4.932  0.3879 -0.1456 -0.3206
    9MOL   O177 4033   6.558   1.104   4.822  0.0595  0.2067 -0.2712
    9MOL   O178 4034   6.468   1.096   5.067  0.0491 -0.0828 -0.2253
    9MOL   C179 4035   6.533   1.332   4.949  0.0645  0.4020 -0.7514
    9MOL   C180 4036   6.645   1.369   4.870 -0.1647  0.6924  0.0394
    9MOL   C181 4037   6.697   1.498   4.888  0.7291  0.9949 -0.1515
    9MOL   C182 4038   6.649   1.579   4.990  0.2291 -0.2795  0.4974
    9MOL   C183 4039   6.540   1.533   5.069  0.4792  0.2149  0.0748
    9MOL   C184 4040   6.475   1.416   5.041  0.2179 -0.5244 -0.7017
    9MOL   O185 4041   6.711   1.706   5.006 -0.2836  0.3228 -0.6777
    9MOL   H186 4042   6.127   1.150   4.579  0.4629 -2.2320  0.4203
    9MOL   H187 4043   6.353   1.106   4.669  0.0340  0.8700 -1.8657
    9MOL   H188 4044   6.228   1.245   5.060  1.9103 -0.5261 -0.6738
    9MOL   H189 4045   5.998   1.277   4.971 -0.0023  3.2038 -0.6166
    9MOL   H190 4046   6.688   1.304   4.795 -1.1084  1.7386 -1.4461
    9MOL   H191 4047   6.778   1.536   4.827  0.1815  1.2846 -0.7070
    9MOL   H192 4048   6.498   1.593   5.147  0.9276  2.4452 -1.3607
    9MOL   H193 4049   6.384   1.384   5.089 -1.0475 -0.1297 -2.7646
    9MOL   C194 4050   6.817   1.710   5.220  0.3612  0.1446  0.0360
    9MOL   C195 4051   6.836   1.779   5.343  0.7944  0.0191 -0.0636
    9MOL   C196 4052   6.736   1.866   5.396 -0.6881 -0.4689  0.2645
    9MOL   C197 4053   6.625   1.880   5.322 -0.1476  0.1089 -0.1151
    9MOL   C198 4054   6.616   1.826   5.195 -0.1053 -0.3468 -0.3005
    9MOL   C199 4055   6.719   1.749   5.134 -0.4821  0.2097  0.7068
    9MOL   S200 4056   6.763   1.975   5.538  0.3204 -0.1507  0.1163
    9MOL   O201 4057   6.907   1.986   5.547  0.1504  0.3001 -0.1816
    9MOL   O202 4058   6.695   1.919   5.655  0.3837 -0.1781 -0.9856
    9MOL   C203 4059   6.698   2.124   5.480 -0.5615  0.3328 -0.9902
    9MOL   C204 4060   6.596   2.182   5.547  0.4126 -0.6401 -0.3299
    9MOL   C205 4061   6.543   2.299   5.490  0.0606 -1.1746  0.1255
    9MOL   C206 4062   6.591   2.350   5.370  0.4528 -0.1379 -0.1405
    9MOL   C207 4063   6.699   2.284   5.304 -0.3273  0.6192  0.4981
    9MOL   C208 4064   6.755   2.169   5.359  0.2682 -0.5457  0.2242
    9MOL   O209 4065   6.541   2.467   5.316  0.3220  0.5218  0.1557
    9MOL   H210 4066   6.891   1.641   5.184 -0.7761 -0.7869 -0.5754
    9MOL   H211 4067   6.928   1.750   5.392  1.6721  1.9206 -0.5633
    9MOL   H212 4068   6.552   1.937   5.378 -0.3127 -0.9578  0.7643
    9MOL   H213 4069   6.521   1.848   5.149 -0.6392 -1.4545  0.2495
    9MOL   H214 4070   6.557   2.148   5.641 -0.5312 -0.2650 -0.5842
    9MOL   H215 4071   6.453   2.344   5.530  0.8494 -0.5016  1.1578
    9MOL   H216 4072   6.721   2.311   5.202  1.4722  0.6580  0.8825
    9MOL   H217 4073   6.821   2.110   5.297  2.9385  2.2627  0.2982
    9MOL   C218 4074   6.677   2.639   5.206 -0.4930  0.9278 -0.2840
    9MOL   C219 4075   6.738   2.768   5.209  0.0025 -0.3211  0.7710
    9MOL   C220 4076   6.758   2.825   5.336  0.3214  0.3924  0.8588
    9MOL   C221 4077   6.702   2.770   5.450  0.5558 -0.0734  0.2548
    9MOL   C222 4078   6.624   2.654   5.451  0.1838 -0.2951 -0.3399
    9MOL   C223 4079   6.618   2.582   5.327 -0.3394  0.3673  0.4642
    9MOL   S224 4080   6.860   2.972   5.353 -0.8972 -0.0639 -0.0250
    9MOL   O225 4081   6.872   3.028   5.217  0.4126 -0.1817 -0.2011
    9MOL   O226 4082   6.981   2.932   5.425 -0.1147  0.4669  0.0018
    9MOL   C227 4083   6.776   3.084   5.449 -0.3230 -0.0283 -0.0510
    9MOL   C228 4084   6.797   3.084   5.591  0.0926  0.1956  0.3624
    9MOL   C229 4085   6.728   3.174   5.674  0.1875 -0.4079  0.2028
    9MOL   C230 4086   6.633   3.263   5.616  0.2098 -0.2258  1.1455
    9MOL   C231 4087   6.608   3.257   5.475 -0.2898  0.2256  0.0651
    9MOL   C232 4088   6.677   3.167   5.394 -0.6641  0.0926  0.4843
    9MOL   O233 4089   6.563   3.354   5.691 -0.0808  0.6065 -0.0002
    9MOL   H234 4090   6.658   2.587   5.113 -0.6685  0.4743  0.0014
    9MOL   H235 4091   6.793   2.817   5.130  1.9144  1.7140  3.2845
    9MOL   H236 4092   6.727   2.812   5.546  0.2688 -2.4065  1.3822
    9MOL   H237 4093   6.580   2.629   5.546 -2.1878  2.0839 -0.7586
    9MOL   H238 4094   6.872   3.018   5.632 -0.0351  0.4673  1.0315
    9MOL   H239 4095   6.738   3.163   5.781  0.6010  0.5226  0.2582
    9MOL   H240 4096   6.531   3.318   5.431  0.2155 -0.4260 -1.7567
    9MOL   H241 4097   6.661   3.166   5.288  0.0275  1.7474  0.3367
    9MOL   C242 4098   6.447   3.223   5.854  0.4551 -0.2882  0.8693
    9MOL   C243 4099   6.321   3.180   5.909  0.0805  0.2362 -0.0817
    9MOL   C244 4100   6.208   3.232   5.856 -0.1148 -0.5079  0.3314
    9MOL   C245 4101   6.206   3.315   5.745  0.6100 -0.0944 -0.1122
    9MOL   C246 4102   6.324   3.365   5.690 -0.9275  0.1605 -0.2719
    9MOL   C247 4103   6.445   3.309   5.740 -0.6849 -0.1528 -0.5539
    9MOL   S248 4104   6.061   3.219   5.956 -0.4366  0.0031  0.3341
    9MOL   O249 4105   5.951   3.169   5.871  0.5601 -0.2466 -0.4949
    9MOL   O250 4106   6.050   3.348   6.021  0.2864 -0.6370 -0.7189
    9MOL   C251 4107   6.081   3.097   6.081  0.4231 -0.2886 -0.7244
    9MOL   C252 4108   6.114   2.963   6.046  0.0594  0.2796 -0.1180
    9MOL   C253 4109   6.136   2.865   6.145  0.0064 -0.3360 -0.5552
    9MOL   C254 4110   6.135   2.904   6.284 -0.5906  0.6129 -0.3435
    9MOL   C255 4111   6.101   3.040   6.316  0.4456  0.3139  0.4045
    9MOL   C256 4112   6.081   3.141   6.216  0.0917 -0.1509 -0.2904
    9MOL   O257 4113   6.167   2.817   6.382 -0.0088 -0.6363 -0.1876
    9MOL   H258 4114   6.536   3.176   5.894 -0.3088 -2.0923  0.5267
    9MOL   H259 4115   6.325   3.108   5.989 -0.7575 -0.5984 -0.7896
    9MOL   H260 4116   6.116   3.348   5.696 -0.5254  1.0421  2.6605
    9MOL   H261 4117   6.327   3.427   5.602  0.6301  0.9799  0.3413
    9MOL   H262 4118   6.110   2.934   5.942 -0.0541 -2.1015  0.5015
    9MOL   H263 4119   6.170   2.767   6.116 -0.3256 -1.6933  3.3330
    9MOL   H264 4120   6.118   3.073   6.417  0.6804  2.3654 -0.2921
    9MOL   H265 4121   6.067   3.244   6.244  0.5533  0.7766 -3.2779
    9MOL   C266 4122   6.344   2.917   6.501  0.3707 -0.5348 -0.5259
    9MOL   C267 4123   6.475   2.912   6.551  0.0943  0.0235 -0.1297
    9MOL   C268 4124   6.564   2.812   6.500 -0.3010  0.2473  0.3790
    9MOL   C269 4125   6.513   2.709   6.419  0.7778  0.8639  0.1903
    9MOL   C270 4126   6.377   2.705   6.385 -0.5178 -0.0020 -0.5416
    9MOL   C271 4127   6.299   2.819   6.415  0.4353  0.0513 -0.4415
    9MOL   S272 4128   6.742   2.831   6.529  0.0305  0.0242 -0.1845
    9MOL   O273 4129   6.794   2.697   6.552 -0.1718 -0.1203  0.2939
    9MOL   O274 4130   6.775   2.931   6.632 -0.5555 -0.5986 -0.1599
    9MOL   C275 4131   6.800   2.879   6.361 -0.5486  0.3497 -0.3683
    9MOL   C276 4132   6.935   2.868   6.336  0.2477  0.6576  0.2673
    9MOL   C277 4133   6.979   2.898   6.213  0.5571  0.4687  0.7204
    9MOL   C278 4134   6.894   2.953   6.113 -0.6054 -0.1970  0.0031
    9MOL   C279 4135   6.763   2.987   6.147  0.5804  0.1358  0.5898
    9MOL   C280 4136   6.713   2.937   6.266 -1.4282  1.2208  0.0419
    9MOL   O281 4137   6.943   2.968   5.990  0.0401  0.2890 -0.4812
    9MOL   H282 4138   6.270   2.983   6.541 -0.2163 -0.9800 -0.8739
    9MOL   H283 4139   6.506   2.988   6.621  1.5721 -0.1614 -0.5677
    9MOL   H284 4140   6.588   2.634   6.401  0.6279  0.2599  2.0609
    9MOL   H285 4141   6.342   2.623   6.323  1.4665 -2.8189  1.9242
    9MOL   H286 4142   7.003   2.837   6.414  0.3463  1.7452  0.6208
    9MOL   H287 4143   7.084   2.878   6.196  0.5398 -0.2615  1.4214
    9MOL   H288 4144   6.696   3.037   6.078  0.2775  0.6823  1.2772
    9MOL   H289 4145   6.610   2.960   6.289 -1.7492 -0.4542  0.3301
    9MOL   C290 4146   6.826   2.806   5.851 -0.9909  0.5592  0.7427
    9MOL   C291 4147   6.832   2.680   5.777 -0.2066  0.3480  0.5904
    9MOL   C292 4148   6.946   2.604   5.772  0.0273 -0.2404 -0.1225
    9MOL   C293 4149   7.061   2.656   5.833  0.0939  0.1559  0.0447
    9MOL   C294 4150   7.061   2.779   5.903 -0.8096  0.7595  0.1303
    9MOL   C295 4151   6.942   2.853   5.916 -0.1274 -0.4806  0.0262
    9MOL   S296 4152   6.951   2.443   5.694  0.0004 -0.4358 -0.2082
    9MOL   O297 4153   6.818   2.392   5.677  0.5471 -0.0689  0.6436
    9MOL   O298 4154   7.050   2.360   5.771  0.5113 -0.5485  0.0795
    9MOL   C299 4155   7.019   2.468   5.530  0.1847  0.1025 -0.3622
    9MOL   C300 4156   7.038   2.358   5.455  0.6846  0.1590  0.0661
    9MOL   C301 4157   7.090   2.378   5.324  0.2453  0.2232  0.3259
    9MOL   C302 4158   7.117   2.502   5.275 -0.2367  0.1967 -0.0059
    9MOL   C303 4159   7.088   2.616   5.354 -0.3499 -0.2500 -0.9328
    9MOL   C304 4160   7.030   2.598   5.485 -0.1666  0.0283  0.4785
    9MOL   O305 4161   7.154   2.504   5.142 -0.8287  0.0021  0.1945
    9MOL   H306 4162   6.732   2.859   5.844 -0.7259  1.1494  1.6424
    9MOL   H307 4163   6.748   2.637   5.724 -0.6348  0.5144  1.1324
    9MOL   H308 4164   7.156   2.605   5.822 -0.7431 -1.0827 -1.6815
    9MOL   H309 4165   7.159   2.819   5.928  0.6414 -2.3283 -0.3510
    9MOL   H310 4166   7.034   2.257   5.494  1.7389 -0.7859 -2.1909
    9MOL   H311 4167   7.097   2.284   5.271 -0.5161  0.0728  0.4914
    9MOL   H312 4168   7.103   2.711   5.303  1.2285  0.0904  0.1366
    9MOL   H313 4169   6.999   2.685   5.541 -1.5931  0.4171 -0.8905
    9MOL   C314 4170   7.347   2.361   5.116  0.2809  0.1500 -0.0001
    9MOL   C315 4171   7.479   2.339   5.065 -0.7874 -0.2521  0.6557
    9MOL   C316 4172   7.536   2.453   4.993 -0.0911  0.1919  0.5046
    9MOL   C317 4173   7.467   2.580   4.981 -0.0073 -0.1376  0.5814
    9MOL   C318 4174   7.345   2.600   5.044  0.6494 -0.0729 -0.7556
    9MOL   C319 4175   7.285   2.488   5.104  0.9666 -0.1773 -0.9913
    9MOL   S320 4176   7.685   2.418   4.897  0.1414 -0.3316  0.0169
    9MOL   O321 4177   7.690   2.508   4.779 -0.5079  0.0340 -0.3739
    9MOL   O322 4178   7.693   2.273   4.871 -0.0726 -0.5189  0.4725
    9MOL   C323 4179   7.827   2.454   5.007  0.5934  0.0251  0.7462
    9MOL   C324 4180   7.959   2.460   4.956 -1.0758 -0.6798 -0.3598
    9MOL   C325 4181   8.060   2.512   5.041 -0.1349  0.4706  0.3254
    9MOL   C326 4182   8.036   2.536   5.176 -0.0690  0.5780 -0.2212
    9MOL   C327 4183   7.911   2.518   5.230  0.0188  0.3847  0.2694
    9MOL   C328 4184   7.806   2.472   5.147  0.8560  0.0657  0.7067
    9MOL   O329 4185   8.130   2.588   5.251  0.8315 -0.2491 -0.7322
    9MOL   H330 4186   7.299   2.278   5.165  0.0020  0.5427  0.3999
    9MOL   H331 4187   7.525   2.242   5.075 -2.3167 -1.2743 -1.6203
    9MOL   H332 4188   7.509   2.659   4.920 -0.9199 -0.1489 -0.0799
    9MOL   H333 4189   7.285   2.690   5.041  0.7385  0.0625  0.9369
    9MOL   H334 4190   7.972   2.429   4.853 -1.9155  1.4977 -1.1459
    9MOL   H335 4191   8.160   2.534   5.004 -0.3973 -0.8676 -1.2885
    9MOL   H336 4192   7.908   2.554   5.332 -3.1780 -0.1699  0.4203
    9MOL   H337 4193   7.706   2.465   5.187 -0.0149 -0.4634 -1.5130
    9MOL   C338 4194   8.236   2.410   5.362 -0.3162 -0.1955 -0.1372
    9MOL   C339 4195   8.352   2.341   5.397 -0.1470 -0.0129  0.9617
    9MOL   C340 4196   0.057   2.376   5.342 -0.7102 -0.2608 -0.1781
    9MOL   C341 4197   0.064   2.478   5.247  0.1236 -0.3813 -0.0324
    9MOL   C342 4198   8.366   2.547   5.212 -0.3857  0.3374 -0.1411
    9MOL   C343 4199   8.241   2.512   5.267  0.7240 -0.2979 -0.0105
    9MOL   S344 4200   0.208   2.302   5.407 -0.2669 -0.2744 -0.1784
    9MOL   O345 4201   0.285   2.260   5.288  0.1507  0.0033 -0.4460
    9MOL   O346 4202   0.181   2.208   5.522  0.3593  0.0464  0.3247
    9MOL   C347 4203   0.297   2.438   5.484  0.0522 -0.2997  0.7375
    9MOL   C348 4204   0.231   2.517   5.576  0.6824 -0.3211  0.5594
    9MOL   C349 4205   0.285   2.636   5.622  0.2793 -0.1747  0.5332
    9MOL   C350 4206   0.415   2.668   5.593 -0.7176  0.4644 -0.8275
    9MOL   C351 4207   0.482   2.586   5.504 -0.1339 -0.6091  0.5791
    9MOL   C352 4208   0.429   2.468   5.453 -0.5985  0.4728 -0.1917
    9MOL   O353 4209   0.459   2.783   5.657  0.1535  0.3165  0.1370
    9MOL   H354 4210   8.143   2.382   5.409 -0.1829 -0.2330  0.1066
    9MOL   H355 4211   8.349   2.263   5.472 -0.2491  0.3416  1.3262
    9MOL   H356 4212   0.152   2.521   5.202 -0.7610 -0.3726 -1.8044
    9MOL   H357 4213   8.369   2.630   5.143 -2.0791 -0.1397 -0.8028
    9MOL   H358 4214   0.132   2.488   5.607 -0.3867  1.0309 -1.4395
    9MOL   H359 4215   0.230   2.699   5.689 -0.7373 -0.3458 -0.1238
    9MOL   H360 4216   0.586   2.602   5.479 -0.6179  1.9472  0.0500
    9MOL   H361 4217   0.489   2.407   5.388  0.6544  0.2463  1.1383
    9MOL   C362 4218   0.623   2.668   5.799  0.6894 -0.2519  0.2902
    9MOL   C363 4219   0.707   2.679   5.913 -0.2038  0.2784 -0.7745
    9MOL   C364 4220   0.736   2.798   5.971 -0.1294  0.0387 -0.9604
    9MOL   C365 4221   0.677   2.916   5.920  0.2754  0.3012 -0.5107
    9MOL   C366 4222   0.590   2.910   5.805  0.9649  0.0470 -0.2946
    9MOL   C367 4223   0.559   2.783   5.750  0.2196 -1.0592  0.7739
    9MOL   S368 4224   0.823   2.792   6.127 -0.1265 -0.4457  0.2653
    9MOL   O369 4225   0.724   2.743   6.234 -0.4504  0.4169 -0.1114
    9MOL   O370 4226   0.892   2.919   6.145 -0.0748  0.7561 -0.2237
    9MOL   C371 4227   0.962   2.677   6.110  0.3185  0.5770  0.5228
    9MOL   C372 4228   1.082   2.740   6.083 -0.1902  0.3003  0.0111
    9MOL   C373 4229   1.197   2.657   6.069 -0.4101  0.4754 -0.3295
    9MOL   C374 4230   1.188   2.520   6.097 -0.3427  0.2527 -0.7592
    9MOL   C375 4231   1.064   2.455   6.123 -0.2813  0.6673 -0.0047
    9MOL   C376 4232   0.949   2.536   6.127 -0.5709  0.0827  0.3139
    9MOL   O377 4233   1.301   2.442   6.106 -0.0536 -0.3263  0.3872
    9MOL   H378 4234   0.597   2.573   5.757 -1.2932  0.8744 -1.1249
    9MOL   H379 4235   0.741   2.587   5.959 -0.5502  1.4113  1.8422
    9MOL   H380 4236   0.698   3.011   5.968  0.1827  0.5533 -0.9730
    9MOL   H381 4237   0.554   3.007   5.776 -0.0492 -0.5812 -1.1573
    9MOL   H382 4238   1.097   2.845   6.061  0.9627  0.3366  0.9423
    9MOL   H383 4239   1.295   2.697   6.050  0.4286 -1.4373 -0.1213
    9MOL   H384 4240   1.053   2.351   6.149  0.1535  0.9102  1.2079
    9MOL   H385 4241   0.852   2.490   6.143 -0.4570 -0.7508 -1.3110
    9MOL   C386 4242   1.309   2.465   6.343  0.6320 -0.8067  0.6237
    9MOL   C387 4243   1.354   2.426   6.464  0.2923  0.6539 -0.4505
    9MOL   C388 4244   1.426   2.308   6.471  0.2020 -0.1067 -0.5179
    9MOL   C389 4245   1.455   2.228   6.358  0.6328  0.5784  0.4358
    9MOL   C390 4246   1.413   2.268   6.229  0.5864  0.0088  0.0192
    9MOL   C391 4247   1.336   2.390   6.224  0.2266  0.2050 -0.1951
    9MOL   S392 4248   1.498   2.261   6.637  0.2888  0.5146  0.2782
    9MOL   O393 4249   1.614   2.168   6.617  0.3027  0.4041  0.3370
    9MOL   O394 4250   1.381   2.216   6.716  0.4553 -0.2493 -0.5612
    9MOL   C395 4251   1.553   2.413   6.701 -0.0338  0.1813 -0.0548
    9MOL   C396 4252   1.679   2.468   6.660 -0.1569 -0.3395 -0.5543
    9MOL   C397 4253   1.719   2.590   6.705 -0.4434  0.3234 -0.3200
    9MOL   C398 4254   1.639   2.650   6.798  0.7998  0.4491  0.0866
    9MOL   C399 4255   1.512   2.606   6.835  0.7582  0.5864 -0.4569
    9MOL   C400 4256   1.477   2.476   6.798 -0.0580 -0.0313  0.0696
    9MOL   O401 4257   1.675   2.767   6.856  0.3806  0.6489 -0.5638
    9MOL   H402 4258   1.245   2.552   6.348 -0.1403 -1.4139  1.3160
    9MOL   H403 4259   1.320   2.479   6.552 -1.5897 -1.9491  0.4336
    9MOL   H404 4260   1.516   2.141   6.377 -0.9059 -0.0120  2.8474
    9MOL   H405 4261   1.439   2.205   6.146  1.1407 -0.0311  0.2193
    9MOL   H406 4262   1.748   2.417   6.593  0.0451  0.8508 -1.2606
    9MOL   H407 4263   1.812   2.636   6.672  1.8357 -2.3429  2.0923
    9MOL   H408 4264   1.446   2.659   6.902 -2.1851 -0.4192 -2.4744
    9MOL   H409 4265   1.388   2.425   6.831  0.7011 -1.1866  0.3774
    9MOL   C410 4266   1.873   2.891   6.916 -0.2917  0.0351 -0.0744
    9MOL   C411 4267   1.991   2.892   6.995 -0.1324  0.0097  0.6248
    9MOL   C412 4268   2.028   2.784   7.079  0.0094  0.1768  0.5120
    9MOL   C413 4269   1.943   2.675   7.086 -0.0138 -0.4209  0.0272
    9MOL   C414 4270   1.824   2.673   7.016 -0.1341 -0.5791  0.5602
    9MOL   C415 4271   1.793   2.773   6.921  0.0729 -0.6629  0.8306
    9MOL   S416 4272   2.186   2.778   7.172 -0.0136  0.0722  0.2103
    9MOL   O417 4273   2.136   2.797   7.309 -0.1525  0.6110 -0.1123
    9MOL   O418 4274   2.287   2.872   7.114 -0.1604  0.0993 -0.2793
    9MOL   C419 4275   2.248   2.614   7.152 -0.1243 -0.0027  0.7055
    9MOL   C420 4276   2.237   2.532   7.263 -0.7086 -0.0050 -0.2850
    9MOL   C421 4277   2.309   2.412   7.271  0.6425 -0.5856  0.1308
    9MOL   C422 4278   2.371   2.370   7.153 -0.7948 -0.0260 -0.3309
    9MOL   C423 4279   2.361   2.445   7.033  0.3325 -0.6351 -0.0878
    9MOL   C424 4280   2.302   2.573   7.027  0.3046  0.5845  0.6024
    9MOL   O425 4281   2.452   2.257   7.152 -0.2695  0.4155  0.3676
    9MOL   H426 4282   1.861   2.979   6.855 -0.5293 -0.7003 -1.0847
    9MOL   H427 4283   2.053   2.979   6.977 -0.3979  0.4998  2.0126
    9MOL   H428 4284   1.971   2.587   7.142  0.4135 -0.0448  0.4047
    9MOL   H429 4285   1.772   2.578   7.021  1.1852 -1.2539  1.5177
    9MOL   H430 4286   2.183   2.565   7.351  3.4840  0.1255  2.4218
    9MOL   H431 4287   2.312   2.363   7.368 -0.2330  0.3465  0.6460
    9MOL   H432 4288   2.392   2.397   6.941 -1.2647  0.5041 -1.2603
    9MOL   H433 4289   2.283   2.642   6.946 -1.1725  3.0067  2.9053
    9MOL   C434 4290   2.390   2.084   7.012  0.2681  0.6436  0.0584
    9MOL   C435 4291   2.362   1.952   6.988 -0.4847 -0.0740  0.0225
    9MOL   C436 4292   2.345   1.867   7.097  0.5177  0.1698  0.7149
    9MOL   C437 4293   2.342   1.923   7.229  0.1159  0.2373 -0.0780
    9MOL   C438 4294   2.375   2.052   7.254  0.4466  0.1105 -0.1932
    9MOL   C439 4295   2.402   2.132   7.141  0.4137  0.4817 -0.4552
    9MOL   S440 4296   2.324   1.689   7.085 -0.2376  0.4279  0.1395
    9MOL   O441 4297   2.187   1.653   7.116  0.2251  0.0744 -0.5774
    9MOL   O442 4298   2.433   1.629   7.168  0.2412 -0.3445 -0.2924
    9MOL   C443 4299   2.348   1.634   6.916  1.2101  0.3299 -0.4828
    9MOL   C444 4300   2.480   1.643   6.861  0.4057 -0.1240 -0.1187
    9MOL   C445 4301   2.508   1.595   6.733 -0.0002 -0.6616  0.4555
    9MOL   C446 4302   2.406   1.552   6.649 -0.4129 -0.2667  0.2296
    9MOL   C447 4303   2.275   1.548   6.707  0.3008 -0.2370  0.9392
    9MOL   C448 4304   2.241   1.592   6.837 -0.0657 -0.5351 -0.0173
    9MOL   O449 4305   2.453   1.491   6.534 -0.0733  0.6176 -0.3863
    9MOL   H450 4306   2.423   2.154   6.936 -1.3509  0.8508 -0.4738
    9MOL   H451 4307   2.351   1.907   6.891 -1.0258  1.7098 -0.7774
    9MOL   H452 4308   2.335   1.857   7.314  1.3084  0.5318  0.2586
    9MOL   H453 4309   2.383   2.091   7.354 -0.2960 -0.0448 -0.0732
    9MOL   H454 4310   2.563   1.682   6.918  0.2322  1.8300 -1.1756
    9MOL   H455 4311   2.608   1.591   6.693  0.2464  1.1340  0.8597
    9MOL   H456 4312   2.200   1.495   6.650 -1.4684 -0.0889  3.0689
    9MOL   H457 4313   2.142   1.588   6.881  0.5308 -1.2513  1.3078
    9MOL   C458 4314   2.391   1.493   6.306  0.0745  1.0233 -0.4954
    9MOL   C459 4315   2.403   1.530   6.172 -0.1730  0.3040 -0.0357
    9MOL   C460 4316   2.479   1.649   6.140  0.0062 -0.0412 -0.2865
    9MOL   C461 4317   2.541   1.716   6.251 -0.6747  0.2802 -1.0343
    9MOL   C462 4318   2.518   1.679   6.386  0.1228 -0.1571 -0.1661
    9MOL   C463 4319   2.449   1.560   6.413  0.1975  0.3079 -0.6764
    9MOL   S464 4320   2.484   1.700   5.970  0.0785 -0.1382 -0.0082
    9MOL   O465 4321   2.347   1.702   5.922 -0.4841  0.5322 -1.1444
    9MOL   O466 4322   2.587   1.618   5.902 -0.7104 -0.2812  0.0478
    9MOL   C467 4323   2.541   1.872   5.973 -0.6870 -0.5712  0.7002
    9MOL   C468 4324   2.485   1.975   6.051 -0.1408 -0.4237  0.1431
    9MOL   C469 4325   2.525   2.110   6.040  0.3610 -0.7567 -0.2798
    9MOL   C470 4326   2.633   2.137   5.953  0.1066 -0.3401  0.8491
    9MOL   C471 4327   2.698   2.030   5.886 -0.5071  0.3347 -0.3048
    9MOL   C472 4328   2.651   1.896   5.893 -0.2996 -0.4553 -0.5825
    9MOL   O473 4329   2.687   2.261   5.936 -0.2036 -0.2378 -0.1783
    9MOL   H474 4330   2.316   1.420   6.333 -1.0710  2.5194  0.4693
    9MOL   H475 4331   2.356   1.472   6.094  1.8625  0.8933 -1.7501
    9MOL   H476 4332   2.603   1.800   6.224 -3.3651  2.8968  0.5938
    9MOL   H477 4333   2.568   1.725   6.470  0.3260 -2.7523  1.1986
    9MOL   H478 4334   2.413   1.956   6.129 -0.8225  0.2141 -0.3212
    9MOL   H479 4335   2.485   2.191   6.100 -1.8883 -0.0140 -2.6683
    9MOL   H480 4336   2.778   2.055   5.817  0.7075 -1.5442  0.3720
    9MOL   H481 4337   2.709   1.823   5.839  0.1171  0.3048 -1.1701
    9MOL   H482 4338   2.642   2.333   5.977  0.8735  0.2376  0.1705
   10MOL     C1 4339   5.692   4.928   5.249  0.1216  0.0760  1.0166
   10MOL     C2 4340   5.799   5.018   5.273  0.8778  0.1499  0.5438
   10MOL     C3 4341   5.862   5.018   5.396 -0.0390 -0.2837 -0.0721
   10MOL     C4 4342   5.815   4.937   5.498 -0.4091  0.7818  0.0376
   10MOL     C5 4343   5.717   4.837   5.473 -0.2079 -0.8440  0.5724
   10MOL     C6 4344   5.665   4.826   5.343 -0.5280  0.3123 -0.3823
   10MOL     S7 4345   5.974   5.148   5.435  0.6162 -0.3214 -0.1232
   10MOL     O8 4346   6.066   5.094   5.535 -0.2565 -0.2987 -0.1617
   10MOL     O9 4347   5.893   5.274   5.461  0.3805 -0.0981  0.2794
   10MOL    C10 4348   6.073   5.176   5.287 -0.5222  0.0255 -0.1555
   10MOL    C11 4349   6.125   5.304   5.281  0.1101 -0.1344  0.0472
   10MOL    C12 4350   6.207   5.346   5.174 -0.1322  0.0040 -0.1019
   10MOL    C13 4351   6.239   5.251   5.074 -0.0179 -0.0388  0.4714
   10MOL    C14 4352   6.169   5.125   5.069 -0.4085  0.4996 -0.5857
   10MOL    C15 4353   6.096   5.090   5.181  0.3920  0.3278 -0.3145
   10MOL    O16 4354   6.338   5.277   4.982  0.5415  0.0745  0.6042
   10MOL    H17 4355   5.642   4.932   5.154 -0.3725  0.4778  1.2907
   10MOL    H18 4356   5.822   5.098   5.204  0.2727  1.2676  1.6048
   10MOL    H19 4357   5.855   4.952   5.597  0.7174  2.5803 -0.6659
   10MOL    H20 4358   5.696   4.763   5.548 -1.8822  0.5775  1.5335
   10MOL    H21 4359   6.109   5.364   5.369  1.5346 -1.3487  1.1580
   10MOL    H22 4360   6.252   5.444   5.175  0.1915 -0.1440 -0.2411
   10MOL    H23 4361   6.189   5.053   4.991  2.7402  0.6885 -0.0006
   10MOL    H24 4362   6.072   4.986   5.195  0.0336  0.1126 -2.3555
   10MOL    H25 4363   5.585   4.757   5.326  1.0426 -2.1716  2.0275
   10MOL    C26 4364   6.194   5.358   4.806 -0.1288  0.2444  0.6091
   10MOL    C27 4365   6.145   5.361   4.670 -0.0838 -0.2318  0.3099
   10MOL    C28 4366   6.213   5.280   4.582 -0.0364  0.0657  0.0584
   10MOL    C29 4367   6.326   5.204   4.618 -0.5628 -0.4843  0.2579
   10MOL    C30 4368   6.380   5.211   4.749 -0.2733  0.2255  0.0998
   10MOL    C31 4369   6.307   5.286   4.848 -0.4551  0.1911  0.4440
   10MOL    S32 4370   6.162   5.251   4.415 -0.2681  0.3777  0.0137
   10MOL    O33 4371   6.050   5.348   4.390 -0.0199 -0.1468  0.2832
   10MOL    O34 4372   6.119   5.111   4.394  0.2142 -0.4368 -0.6887
   10MOL    C35 4373   6.305   5.291   4.317  0.0178  0.9658  0.2215
   10MOL    C36 4374   6.338   5.430   4.299  0.8893 -0.3222 -0.1064
   10MOL    C37 4375   6.439   5.471   4.215  0.3695  0.1613  0.7567
   10MOL    C38 4376   6.510   5.372   4.143 -0.0402  0.5949 -0.2439
   10MOL    C39 4377   6.477   5.240   4.165 -0.1571 -0.0585  0.1470
   10MOL    C40 4378   6.381   5.196   4.250  0.4359 -0.1477  0.0646
   10MOL    O41 4379   6.629   5.405   4.078  0.2240 -0.2806 -0.3656
   10MOL    H42 4380   6.153   5.414   4.889 -1.6894  0.1933 -0.1209
   10MOL    H43 4381   6.063   5.416   4.626 -0.5065 -3.1044 -2.6968
   10MOL    H44 4382   6.377   5.142   4.546  0.0398  0.5653 -0.2452
   10MOL    H45 4383   6.471   5.157   4.770  0.4360  0.6032 -1.9015
   10MOL    H46 4384   6.277   5.498   4.357  5.1413  0.9493  3.1729
   10MOL    H47 4385   6.463   5.575   4.198  1.5171  0.3037  2.9982
   10MOL    H48 4386   6.539   5.163   4.122  1.6693  0.4408  1.7620
   10MOL    H49 4387   6.353   5.095   4.276  0.5792 -0.0015  0.8106
   10MOL    C50 4388   6.851   5.485   4.096  0.1000  0.8964  0.8499
   10MOL    C51 4389   6.973   5.508   4.160 -0.2046  0.4247  0.3159
   10MOL    C52 4390   6.976   5.474   4.298 -0.2925 -0.9003 -0.2066
   10MOL    C53 4391   6.864   5.428   4.372 -1.0498 -0.7990  0.5351
   10MOL    C54 4392   6.737   5.416   4.301 -0.2054 -0.4516  0.4211
   10MOL    C55 4393   6.734   5.440   4.162 -0.3039 -0.4658 -0.5340
   10MOL    S56 4394   7.128   5.466   4.380 -0.4076  0.1952  0.0985
   10MOL    O57 4395   7.245   5.451   4.291  0.2421 -0.5586 -0.0232
   10MOL    O58 4396   7.106   5.360   4.485 -0.1827  0.2221 -0.0166
   10MOL    C59 4397   7.142   5.628   4.460  0.3869 -0.1991 -0.4913
   10MOL    C60 4398   7.090   5.653   4.587 -0.4476 -0.9279 -0.0138
   10MOL    C61 4399   7.114   5.776   4.653 -0.4007  0.8573  0.0596
   10MOL    C62 4400   7.189   5.875   4.593  0.4905  0.1608  0.2348
   10MOL    C63 4401   7.241   5.846   4.464  0.3117 -0.6639 -0.3623
   10MOL    C64 4402   7.214   5.726   4.397  0.0340 -0.0945 -0.0889
   10MOL    O65 4403   7.217   5.991   4.671  0.1313  0.1151 -0.1609
   10MOL    H66 4404   6.836   5.493   3.989 -1.4190 -2.8875  0.7294
   10MOL    H67 4405   7.066   5.537   4.113 -0.5402 -1.0038 -1.2410
   10MOL    H68 4406   6.877   5.410   4.477  0.2877  3.1668  1.1335
   10MOL    H69 4407   6.652   5.387   4.360  0.3265 -0.1643  1.3317
   10MOL    H70 4408   7.043   5.566   4.631 -0.6680 -2.0087 -2.2949
   10MOL    H71 4409   7.072   5.789   4.751  0.2329 -0.2793  0.4901
   10MOL    H72 4410   7.297   5.922   4.411  2.8973 -1.0929  1.6549
   10MOL    H73 4411   7.243   5.721   4.293 -1.2265  0.5891 -0.4953
   10MOL    C74 4412   7.334   5.951   4.876  0.0257 -0.2338 -0.0304
   10MOL    C75 4413   7.457   5.947   4.948  0.1318  0.1541 -0.3598
   10MOL    C76 4414   7.579   5.976   4.877  0.1148  0.0247  0.2116
   10MOL    C77 4415   7.575   6.027   4.744 -0.2413 -0.4530 -0.8466
   10MOL    C78 4416   7.453   6.040   4.681 -0.5466  0.1630  0.5601
   10MOL    C79 4417   7.335   5.997   4.746  0.2275 -0.3084  0.4933
   10MOL    S80 4418   7.738   5.933   4.947 -0.3263  0.3278  0.0763
   10MOL    O81 4419   7.724   5.884   5.084  0.0283  0.0544  0.6033
   10MOL    O82 4420   7.828   6.047   4.931  0.1057  0.1133  0.1316
   10MOL    C83 4421   7.789   5.803   4.835 -0.4073  0.1965  0.0357
   10MOL    C84 4422   7.875   5.835   4.724 -0.3057 -0.1327  0.9763
   10MOL    C85 4423   7.912   5.745   4.622 -0.2253  0.1594 -1.3049
   10MOL    C86 4424   7.861   5.614   4.633  0.3003 -0.2956 -0.1275
   10MOL    C87 4425   7.776   5.574   4.741  0.0511  0.2549  1.2603
   10MOL    C88 4426   7.738   5.667   4.844  0.4967 -0.1269 -0.6387
   10MOL    O89 4427   7.909   5.523   4.540 -0.3186  0.4661 -0.1489
   10MOL    H90 4428   7.251   5.923   4.940  0.3254  1.8316  1.3358
   10MOL    H91 4429   7.462   5.904   5.047  1.4428 -0.2333 -0.5968
   10MOL    H92 4430   7.665   6.047   4.687  0.2640  2.0283  0.7579
   10MOL    H93 4431   7.446   6.078   4.580  2.2599 -0.6856  0.0096
   10MOL    H94 4432   7.910   5.937   4.723 -0.0448 -0.2297  0.3420
   10MOL    H95 4433   7.973   5.781   4.541 -0.1615 -3.1178 -2.8025
   10MOL    H96 4434   7.746   5.471   4.753 -0.2131  0.0926 -0.6947
   10MOL    H97 4435   7.671   5.655   4.928 -1.5025 -0.9783 -2.3037
   10MOL    C98 4436   7.950   5.309   4.634  0.5367 -0.1793  0.3651
   10MOL    C99 4437   8.040   5.223   4.704 -0.3196 -0.0560 -0.8581
   10MOL   C100 4438   8.171   5.262   4.719  0.2487  0.0711 -0.0101
   10MOL   C101 4439   8.220   5.384   4.666 -0.1471  0.0071 -0.5112
   10MOL   C102 4440   8.129   5.475   4.604 -0.1021  0.3046  0.3539
   10MOL   C103 4441   7.997   5.427   4.588 -0.7337 -0.4566 -0.4881
   10MOL   S104 4442   8.277   5.143   4.804 -0.0024 -0.0346  0.1553
   10MOL   O105 4443   8.413   5.156   4.749 -0.7164  0.1431 -0.0186
   10MOL   O106 4444   8.210   5.015   4.813  0.0919  0.2581 -0.1748
   10MOL   C107 4445   8.283   5.199   4.979  0.1134 -0.0476  0.2072
   10MOL   C108 4446   8.169   5.235   5.045  0.1684 -0.5967 -0.2117
   10MOL   C109 4447   8.165   5.277   5.182 -0.7467 -0.1736  0.1234
   10MOL   C110 4448   8.280   5.270   5.263  0.0370  0.2833 -0.3392
   10MOL   C111 4449   8.397   5.235   5.198  0.2651  0.4504 -0.7382
   10MOL   C112 4450   8.398   5.194   5.060  0.7097 -0.3737  0.4143
   10MOL   O113 4451   8.279   5.303   5.402 -0.1398  0.2218  0.9011
   10MOL   H114 4452   7.844   5.288   4.631  0.3905  0.6601 -0.3187
   10MOL   H115 4453   8.013   5.122   4.731 -2.0456  0.7091  0.3812
   10MOL   H116 4454   8.321   5.415   4.690 -0.4020 -0.4035  1.1048
   10MOL   H117 4455   8.152   5.576   4.573  0.8243 -0.3691 -1.1877
   10MOL   H118 4456   8.071   5.226   5.001 -0.7132  0.6600  1.4364
   10MOL   H119 4457   8.079   5.307   5.240  0.5810  0.6053  1.7363
   10MOL   H120 4458   0.064   5.227   5.254 -0.8829  1.2562  1.3175
   10MOL   H121 4459   0.064   5.163   5.011  1.2583  0.2386  1.0407
   10MOL   C122 4460   8.374   5.092   5.478  0.1037 -0.6026 -0.9409
   10MOL   C123 4461   0.042   5.022   5.556 -0.3574  0.1937  0.0192
   10MOL   C124 4462   0.120   5.097   5.642 -0.0641  0.3808  0.5909
   10MOL   C125 4463   0.121   5.235   5.638 -0.3806 -0.0002  0.5556
   10MOL   C126 4464   0.027   5.311   5.567 -0.1108 -0.0648  0.2177
   10MOL   C127 4465   8.371   5.235   5.479  0.0451 -0.3874  0.2153
   10MOL   S128 4466   0.225   5.014   5.763 -0.2660 -0.1413 -0.2083
   10MOL   O129 4467   0.346   5.097   5.785 -0.0562  0.1514 -0.1609
   10MOL   O130 4468   0.231   4.873   5.726  0.1155 -0.1099  0.0608
   10MOL   C131 4469   0.126   5.017   5.913 -0.0829 -0.3809  0.0553
   10MOL   C132 4470   0.103   5.141   5.980  0.4789  0.5446  0.5127
   10MOL   C133 4471   0.031   5.156   6.098  0.2307  0.7500 -0.2680
   10MOL   C134 4472   8.388   5.042   6.154 -0.6729 -0.3502  0.3262
   10MOL   C135 4473   8.394   4.923   6.077  0.0998 -0.7848 -0.1212
   10MOL   C136 4474   0.049   4.911   5.956  0.7669 -0.4618  0.3540
   10MOL   O137 4475   8.314   5.057   6.269  0.3893 -0.3854 -0.0254
   10MOL   H138 4476   8.311   5.040   5.408 -0.1618 -0.4778 -0.7941
   10MOL   H139 4477   0.055   4.914   5.552  1.7217  0.3411  2.1752
   10MOL   H140 4478   0.189   5.288   5.703  0.5499  1.3804 -1.4919
   10MOL   H141 4479   0.032   5.419   5.568 -0.3008 -0.0420  2.0065
   10MOL   H142 4480   0.154   5.225   5.936 -0.0164  1.1099  1.0243
   10MOL   H143 4481   0.029   5.248   6.155 -0.9034 -1.8492  4.0656
   10MOL   H144 4482   8.338   4.834   6.101 -2.8576  1.4038  1.2821
   10MOL   H145 4483   0.034   4.822   5.898  2.2682 -0.2288 -0.4162
   10MOL   C146 4484   8.228   5.286   6.313  0.0626  0.1580 -0.2848
   10MOL   C147 4485   8.125   5.378   6.308 -0.2234 -0.2037 -0.2679
   10MOL   C148 4486   7.997   5.332   6.267  0.4779 -0.3008  0.5471
   10MOL   C149 4487   7.972   5.200   6.226 -0.1398  0.1393  0.2639
   10MOL   C150 4488   8.078   5.108   6.232 -0.2542 -0.2275  0.3901
   10MOL   C151 4489   8.212   5.154   6.270  0.5257  0.6937 -0.6804
   10MOL   S152 4490   7.857   5.450   6.265 -0.2971 -0.1587 -0.1251
   10MOL   O153 4491   7.738   5.378   6.221  0.5387 -0.0492 -0.0662
   10MOL   O154 4492   7.901   5.566   6.188 -0.0645  0.0093 -0.7144
   10MOL   C155 4493   7.837   5.508   6.436  0.5315 -1.1043  0.5610
   10MOL   C156 4494   7.932   5.591   6.502  0.5487 -0.4713  0.2487
   10MOL   C157 4495   7.915   5.624   6.635 -0.3635 -0.1000  0.1892
   10MOL   C158 4496   7.804   5.579   6.716  0.3608  0.2445 -0.7917
   10MOL   C159 4497   7.707   5.500   6.647 -0.9084 -0.7580 -0.8188
   10MOL   C160 4498   7.724   5.475   6.512  0.8168 -0.3780 -0.0359
   10MOL   O161 4499   7.798   5.620   6.849 -0.0443  0.6915  0.1888
   10MOL   H162 4500   8.325   5.319   6.348  1.0902  0.0356 -2.8706
   10MOL   H163 4501   8.142   5.480   6.337  0.1452 -0.0843 -0.8960
   10MOL   H164 4502   7.871   5.178   6.195  0.4484 -1.4749 -0.5841
   10MOL   H165 4503   8.056   5.005   6.211  2.6925 -1.0110  0.9216
   10MOL   H166 4504   8.020   5.622   6.448 -1.3549 -0.0424 -2.6708
   10MOL   H167 4505   7.980   5.690   6.691 -1.2209  0.0757  0.9787
   10MOL   H168 4506   7.617   5.464   6.695 -1.7642  1.2784 -0.8556
   10MOL   H169 4507   7.654   5.407   6.466 -0.1568  1.3048 -1.0878
   10MOL   C170 4508   7.614   5.668   6.998 -0.0920 -0.3302  0.0236
   10MOL   C171 4509   7.505   5.750   7.025 -0.5195 -0.7460 -0.0184
   10MOL   C172 4510   7.474   5.862   6.950 -0.2403 -0.1666  0.2508
   10MOL   C173 4511   7.555   5.901   6.840 -0.3381 -0.3866 -0.2928
   10MOL   C174 4512   7.666   5.821   6.811  0.0376 -0.1560 -0.1429
   10MOL   C175 4513   7.695   5.703   6.889 -0.3043  0.8101 -0.1952
   10MOL   S176 4514   7.337   5.962   6.993 -0.1609 -0.4091 -0.0836
   10MOL   O177 4515   7.243   5.957   6.883  0.0787  0.5044 -0.0507
   10MOL   O178 4516   7.379   6.096   7.045  0.5901  0.5926  0.6259
   10MOL   C179 4517   7.251   5.893   7.138 -0.1791 -0.1060 -0.4263
   10MOL   C180 4518   7.308   5.865   7.267 -0.1423 -0.1039 -0.4550
   10MOL   C181 4519   7.240   5.795   7.372  1.1121 -1.0953 -0.0933
   10MOL   C182 4520   7.105   5.752   7.347 -0.0158  0.1406  0.4785
   10MOL   C183 4521   7.050   5.786   7.221  0.0074  0.6983  0.2381
   10MOL   C184 4522   7.121   5.848   7.118 -0.6271 -0.1106  0.3296
   10MOL   O185 4523   7.049   5.679   7.447  0.5924  0.2366 -0.6086
   10MOL   H186 4524   7.630   5.582   7.062  3.1814 -0.0698 -0.4073
   10MOL   H187 4525   7.437   5.720   7.103  0.1899  0.8973  1.2522
   10MOL   H188 4526   7.533   5.989   6.780  0.5412  1.0776  1.4617
   10MOL   H189 4527   7.734   5.850   6.732  1.9492 -2.7561  0.4780
   10MOL   H190 4528   7.412   5.892   7.281 -0.6528  0.6284  2.2077
   10MOL   H191 4529   7.295   5.772   7.462  1.8515  1.7906  0.2692
   10MOL   H192 4530   6.945   5.767   7.206  0.2629 -1.2696  0.8743
   10MOL   H193 4531   7.074   5.875   7.024 -0.3957  2.6874  0.9691
   10MOL   C194 4532   6.828   5.763   7.431  0.1488 -0.5445  1.1545
   10MOL   C195 4533   6.688   5.732   7.425 -0.0183  0.1129  0.0979
   10MOL   C196 4534   6.643   5.605   7.444  0.1173 -0.2887  0.2712
   10MOL   C197 4535   6.735   5.496   7.476  0.8719  0.5536  0.2782
   10MOL   C198 4536   6.871   5.522   7.456 -0.0964 -0.0722 -0.1696
   10MOL   C199 4537   6.915   5.652   7.445 -0.1896 -0.7172 -0.0784
   10MOL   S200 4538   6.470   5.579   7.445  0.2032 -0.2065 -0.2547
   10MOL   O201 4539   6.421   5.633   7.571  0.2889 -0.1102  0.0273
   10MOL   O202 4540   6.439   5.438   7.410 -0.0042 -0.4906 -0.4888
   10MOL   C203 4541   6.395   5.672   7.316 -0.0148  0.3632 -0.2347
   10MOL   C204 4542   6.320   5.787   7.354 -0.4393  0.1541  0.8740
   10MOL   C205 4543   6.278   5.869   7.244 -0.6398 -0.5984  0.2741
   10MOL   C206 4544   6.294   5.831   7.114 -0.7927 -0.1881  0.0996
   10MOL   C207 4545   6.367   5.717   7.087 -0.1198  0.4095 -0.0530
   10MOL   C208 4546   6.412   5.625   7.184  0.1912 -0.2750 -0.0754
   10MOL   O209 4547   6.229   5.894   7.007  0.3350  0.3610  0.2611
   10MOL   H210 4548   6.855   5.868   7.427  0.4722 -0.6833 -0.8117
   10MOL   H211 4549   6.616   5.812   7.418 -0.6268 -0.4962 -0.6145
   10MOL   H212 4550   6.685   5.404   7.502 -0.3145  0.9273 -0.6398
   10MOL   H213 4551   6.943   5.442   7.472 -1.2208 -1.1912 -0.6120
   10MOL   H214 4552   6.302   5.811   7.458  1.6519 -0.9040  1.5238
   10MOL   H215 4553   6.222   5.958   7.266 -0.6414 -0.4342 -0.3837
   10MOL   H216 4554   6.379   5.685   6.984 -2.0136 -2.4574  0.5715
   10MOL   H217 4555   6.459   5.534   7.152  0.6844  0.5348 -1.7438
   10MOL   C218 4556   6.006   5.925   7.060 -0.2898  1.0666 -0.3873
   10MOL   C219 4557   5.866   5.911   7.029 -0.4579 -0.1851  0.1653
   10MOL   C220 4558   5.831   5.822   6.925 -0.2504  0.0275 -0.8210
   10MOL   C221 4559   5.928   5.752   6.846 -0.0694 -0.1020 -0.0839
   10MOL   C222 4560   6.065   5.776   6.869  0.2928 -0.4692  0.3956
   10MOL   C223 4561   6.099   5.861   6.979 -0.4843 -0.8233 -0.0273
   10MOL   S224 4562   5.658   5.807   6.908  0.1069  0.3071 -0.0306
   10MOL   O225 4563   5.607   5.934   6.850  0.6997 -0.1975 -0.7625
   10MOL   O226 4564   5.605   5.760   7.039  0.4420  0.8632 -0.3528
   10MOL   C227 4565   5.627   5.682   6.787  0.4236  0.4546 -0.1429
   10MOL   C228 4566   5.623   5.715   6.650  0.2402  0.2114  0.1842
   10MOL   C229 4567   5.601   5.611   6.552 -0.0487 -0.2432 -0.1964
   10MOL   C230 4568   5.587   5.478   6.601  1.2531 -0.2205  0.5543
   10MOL   C231 4569   5.592   5.448   6.735 -0.1965  0.6660  0.3104
   10MOL   C232 4570   5.606   5.550   6.830 -0.2721 -0.5124  0.5657
   10MOL   O233 4571   5.575   5.383   6.509 -0.3281  0.2229  0.3009
   10MOL   H234 4572   6.043   5.986   7.140  2.6975 -0.5068 -0.5075
   10MOL   H235 4573   5.781   5.952   7.081  0.6842  1.9034  0.4277
   10MOL   H236 4574   5.905   5.692   6.760 -0.2233 -1.1905  0.7120
   10MOL   H237 4575   6.136   5.734   6.799 -1.0078 -0.6862 -0.8469
   10MOL   H238 4576   5.634   5.819   6.626  1.7672  0.4264  1.7122
   10MOL   H239 4577   5.593   5.636   6.447 -0.0005 -1.2543 -0.4478
   10MOL   H240 4578   5.559   5.349   6.763 -2.2853  1.1319 -0.3874
   10MOL   H241 4579   5.606   5.519   6.934  3.2411 -1.2567  0.4068
   10MOL   C242 4580   5.363   5.277   6.570 -0.2141  0.3206  0.3850
   10MOL   C243 4581   5.238   5.228   6.528 -0.4831 -0.1505  0.1875
   10MOL   C244 4582   5.182   5.279   6.404  0.3786  0.0139 -0.3667
   10MOL   C245 4583   5.256   5.370   6.320  0.2444  0.1662 -0.5100
   10MOL   C246 4584   5.386   5.391   6.356 -0.0322 -0.1441 -0.2788
   10MOL   C247 4585   5.448   5.351   6.479  0.4356  1.1982 -0.2005
   10MOL   S248 4586   5.019   5.228   6.363  0.5018  0.0356 -0.3533
   10MOL   O249 4587   5.030   5.166   6.232 -0.0031  0.6271  0.1355
   10MOL   O250 4588   4.925   5.339   6.380 -0.0374 -0.3422  0.1752
   10MOL   C251 4589   4.973   5.097   6.478  0.4247 -0.3094  0.1624
   10MOL   C252 4590   5.015   4.966   6.453  0.2402  0.7488  0.6612
   10MOL   C253 4591   4.969   4.863   6.533 -0.2437 -0.0818 -0.7087
   10MOL   C254 4592   4.882   4.889   6.635 -0.3372 -0.6864 -0.5533
   10MOL   C255 4593   4.831   5.018   6.660  0.2305 -0.4605 -0.4230
   10MOL   C256 4594   4.879   5.121   6.579  0.6212  0.3846  0.7118
   10MOL   O257 4595   4.844   4.786   6.719 -0.1536  0.1143  0.0055
   10MOL   H258 4596   5.413   5.259   6.664 -1.2350 -0.2087  0.8308
   10MOL   H259 4597   5.181   5.174   6.602 -1.2388  1.5469  0.8740
   10MOL   H260 4598   5.204   5.406   6.233  2.0526  0.9612 -1.2778
   10MOL   H261 4599   5.438   5.440   6.274 -0.1151 -0.5427 -0.5693
   10MOL   H262 4600   5.095   4.944   6.383  1.3269 -0.1301  2.1258
   10MOL   H263 4601   5.003   4.762   6.516 -0.6748 -0.4035  0.2783
   10MOL   H264 4602   4.752   5.051   6.727 -0.0183  0.4311 -1.1360
   10MOL   H265 4603   4.838   5.220   6.592 -2.8881 -1.1446  2.0099
   10MOL   C266 4604   4.779   4.691   6.925  0.1215  0.3620 -0.0542
   10MOL   C267 4605   4.774   4.683   7.071 -0.4742  0.6823  0.6154
   10MOL   C268 4606   4.826   4.794   7.142 -0.2193  0.2140  0.9066
   10MOL   C269 4607   4.886   4.897   7.070  0.0953 -0.9607 -0.7934
   10MOL   C270 4608   4.898   4.909   6.928  0.3348 -0.1591 -0.2001
   10MOL   C271 4609   4.842   4.799   6.852 -0.3859  0.8388 -0.2340
   10MOL   S272 4610   4.815   4.801   7.328  0.2136  0.1079 -0.1976
   10MOL   O273 4611   4.676   4.782   7.371  0.0315 -0.3545  0.0533
   10MOL   O274 4612   4.892   4.921   7.373  0.0831  0.2260  0.3158
   10MOL   C275 4613   4.916   4.666   7.399  0.5386  0.7128  0.2324
   10MOL   C276 4614   4.892   4.621   7.528  0.0551 -0.3046  0.4219
   10MOL   C277 4615   4.973   4.519   7.583  0.1135  0.3925  0.3179
   10MOL   C278 4616   5.073   4.458   7.501  0.6135 -0.3876 -0.1316
   10MOL   C279 4617   5.092   4.501   7.369  0.1705  0.1476 -0.2693
   10MOL   C280 4618   5.016   4.608   7.320 -0.5402 -0.0747  0.7249
   10MOL   O281 4619   5.150   4.366   7.560 -0.4226 -0.0311 -0.5883
   10MOL   H282 4620   4.748   4.604   6.869  2.6608  0.3145 -1.4094
   10MOL   H283 4621   4.740   4.599   7.130  1.2153  0.5899  1.4837
   10MOL   H284 4622   4.927   4.980   7.126 -2.1675 -1.7477  2.1953
   10MOL   H285 4623   4.957   4.992   6.892  1.7106 -0.9244  0.2785
   10MOL   H286 4624   4.816   4.668   7.589  0.6250  0.2290  0.7344
   10MOL   H287 4625   4.961   4.480   7.683  2.5425  0.9622  0.8517
   10MOL   H288 4626   5.165   4.453   7.305 -0.2769 -0.8791 -0.0287
   10MOL   H289 4627   5.027   4.648   7.221  0.6553 -0.3545  0.7416
   10MOL   C290 4628   5.112   4.146   7.494  0.0535  0.8673  0.2558
   10MOL   C291 4629   5.145   4.036   7.406  0.4619 -0.6120 -0.9540
   10MOL   C292 4630   5.268   4.036   7.339 -0.0048  0.7385 -0.3218
   10MOL   C293 4631   5.353   4.148   7.342 -0.5182 -0.2971  0.0630
   10MOL   C294 4632   5.307   4.263   7.408 -0.6255  0.0567  0.3051
   10MOL   C295 4633   5.196   4.259   7.495 -0.1286  0.4518  0.2985
   10MOL   S296 4634   5.324   3.884   7.267  0.0599 -0.0276 -0.0295
   10MOL   O297 4635   5.433   3.914   7.173  0.3011 -0.2768 -0.2365
   10MOL   O298 4636   5.200   3.816   7.234 -0.4874  0.5754  0.0766
   10MOL   C299 4637   5.400   3.788   7.406 -0.4651 -0.0019  1.0557
   10MOL   C300 4638   5.414   3.835   7.537 -0.5839 -0.1517  0.6124
   10MOL   C301 4639   5.485   3.757   7.629  0.0631  0.0579  0.4047
   10MOL   C302 4640   5.535   3.634   7.593  0.5765 -0.0340 -0.4644
   10MOL   C303 4641   5.500   3.577   7.468 -0.1238  0.0893  0.3778
   10MOL   C304 4642   5.438   3.655   7.374  0.4670  0.2112 -0.7656
   10MOL   O305 4643   5.612   3.558   7.680  0.1973 -0.3931  0.0533
   10MOL   H306 4644   5.018   4.147   7.547 -0.3660  0.6213 -0.4747
   10MOL   H307 4645   5.080   3.949   7.408  0.8097 -0.8638 -0.1024
   10MOL   H308 4646   5.439   4.139   7.278 -1.4544 -0.5012 -1.1639
   10MOL   H309 4647   5.370   4.350   7.397 -1.8226  0.9270  0.2913
   10MOL   H310 4648   5.372   3.930   7.565  2.7665  1.3500  0.7401
   10MOL   H311 4649   5.498   3.807   7.724 -0.3192 -2.3195  1.7423
   10MOL   H312 4650   5.523   3.481   7.425  2.4083  1.7187 -2.0946
   10MOL   H313 4651   5.397   3.605   7.287  0.2313  1.6617 -1.5112
   10MOL   C314 4652   5.434   3.492   7.838  0.1201 -0.0143 -0.1338
   10MOL   C315 4653   5.394   3.478   7.974 -0.3592  0.7823 -0.4746
   10MOL   C316 4654   5.487   3.520   8.075  0.2463 -0.1040 -0.6319
   10MOL   C317 4655   5.618   3.554   8.036 -0.3625 -0.8004 -1.0182
   10MOL   C318 4656   5.654   3.568   7.904  0.1715  0.5750  0.4534
   10MOL   C319 4657   5.564   3.540   7.806 -0.1347  0.1159 -0.1811
   10MOL   S320 4658   5.440   3.523   8.246  0.0068  0.2150 -0.1262
   10MOL   O321 4659   5.407   3.656   8.287 -0.1062 -0.3026  0.3913
   10MOL   O322 4660   5.554   3.463   8.316  0.3246  0.0952 -0.3146
   10MOL   C323 4661   5.291   3.420   8.267  0.2588 -0.3205  0.7361
   10MOL   C324 4662   5.163   3.464   8.234  0.9398  0.1733  0.8786
   10MOL   C325 4663   5.056   3.376   8.255 -0.4911  0.0242  0.2068
   10MOL   C326 4664   5.073   3.248   8.308 -0.3130  0.0609 -0.3133
   10MOL   C327 4665   5.203   3.202   8.336 -0.0705 -0.0243  0.2837
   10MOL   C328 4666   5.315   3.291   8.321 -0.4206 -0.1270 -1.2237
   10MOL   O329 4667   4.970   3.167   8.348 -0.0288  0.4360 -0.5400
   10MOL   H330 4668   5.358   3.469   7.764 -1.1185  1.0757  0.7813
   10MOL   H331 4669   5.292   3.446   7.990 -0.2300  1.0979  1.1313
   10MOL   H332 4670   5.696   3.575   8.108  0.4112  0.3631 -2.1688
   10MOL   H333 4671   5.753   3.605   7.877  0.9237 -0.5377  1.6587
   10MOL   H334 4672   5.159   3.567   8.199  0.0308 -0.0929  0.1697
   10MOL   H335 4673   4.960   3.423   8.240 -0.3079 -0.1932 -1.7956
   10MOL   H336 4674   5.216   3.096   8.348 -1.4044 -0.3137 -0.7079
   10MOL   H337 4675   5.413   3.246   8.330  0.4612  1.7245 -1.3231
   10MOL   C338 4676   4.816   3.272   0.071  0.2918  0.2299 -0.3179
   10MOL   C339 4677   4.765   3.293   0.201 -0.5846  0.0607 -0.4054
   10MOL   C340 4678   4.814   3.218   0.305 -0.5955 -0.6084  0.1206
   10MOL   C341 4679   4.913   3.123   0.285 -0.7309  0.2783 -0.7357
   10MOL   C342 4680   4.975   3.107   0.160 -0.6761 -0.6022 -0.1423
   10MOL   C343 4681   4.922   3.180   0.052  0.0626  1.1733  0.4128
   10MOL   S344 4682   4.742   3.226   0.467 -0.0207  0.2066 -0.2009
   10MOL   O345 4683   4.720   3.095   0.522  0.0848 -0.6549  0.3468
   10MOL   O346 4684   4.624   3.314   0.471  0.0578 -0.1306  0.0287
   10MOL   C347 4685   4.874   3.296   0.566 -0.0185 -0.4393  0.4645
   10MOL   C348 4686   4.954   3.214   0.648 -0.6094  0.0668  0.0828
   10MOL   C349 4687   5.074   3.263   0.704  0.4486 -0.2052 -0.9248
   10MOL   C350 4688   5.106   3.393   0.686  0.3327 -0.5584 -0.3231
   10MOL   C351 4689   5.027   3.480   0.607 -0.9991  0.1805 -0.2766
   10MOL   C352 4690   4.908   3.428   0.549  0.2210 -0.3164  0.3151
   10MOL   O353 4691   5.223   3.432   0.754  1.1403  0.3540 -0.5679
   10MOL   H354 4692   4.767   3.321   8.413  1.3689 -1.2862 -1.9028
   10MOL   H355 4693   4.681   3.360   0.216  0.2511  0.8653  0.7854
   10MOL   H356 4694   4.941   3.060   0.368  1.1594  0.4674 -1.1939
   10MOL   H357 4695   5.050   3.031   0.149 -0.2723 -0.5953  2.1564
   10MOL   H358 4696   4.919   3.113   0.662 -2.2409  0.7235  0.7447
   10MOL   H359 4697   5.125   3.190   0.765 -0.7332 -1.5553 -1.5088
   10MOL   H360 4698   5.049   3.586   0.600  0.2178 -0.0488 -0.0215
   10MOL   H361 4699   4.833   3.488   0.500 -1.3394 -1.3008  1.4385
   10MOL   C362 4700   5.138   3.557   0.940 -0.3807 -0.3935 -0.4151
   10MOL   C363 4701   5.133   3.667   1.026 -0.4669  0.1171  0.1228
   10MOL   C364 4702   5.205   3.781   0.986 -0.1012 -0.0943  0.6336
   10MOL   C365 4703   5.284   3.775   0.869 -1.0473  0.0400  0.4055
   10MOL   C366 4704   5.289   3.663   0.789 -0.0005 -0.4129  0.2149
   10MOL   C367 4705   5.217   3.549   0.828 -0.0092 -0.2302  0.1720
   10MOL   S368 4706   5.210   3.918   1.098 -0.2030  0.2734  0.3205
   10MOL   O369 4707   5.259   4.033   1.018 -0.0928 -0.1875  0.0197
   10MOL   O370 4708   5.295   3.866   1.210  0.3972  0.6566  0.2042
   10MOL   C371 4709   5.057   3.960   1.170 -0.0735  0.3666 -0.5497
   10MOL   C372 4710   4.939   3.929   1.105  0.1008 -0.2488  0.2150
   10MOL   C373 4711   4.814   3.964   1.156  0.4093 -0.4555 -0.0863
   10MOL   C374 4712   4.808   4.027   1.285 -0.2549 -0.0363 -0.2896
   10MOL   C375 4713   4.928   4.045   1.359  0.6009  0.1299  0.1455
   10MOL   C376 4714   5.055   4.025   1.294  0.1144 -0.0422  0.0936
   10MOL   O377 4715   4.682   4.060   1.332  0.5166  0.0816 -0.4404
   10MOL   H378 4716   5.077   3.474   0.973 -1.3192  1.0122  1.4672
   10MOL   H379 4717   5.059   3.672   1.105 -0.1560  1.5260  0.3393
   10MOL   H380 4718   5.346   3.859   0.842 -0.1225 -0.9882 -0.7402
   10MOL   H381 4719   5.354   3.663   0.702 -2.2029  0.1321 -1.4660
   10MOL   H382 4720   4.945   3.868   1.017 -2.0664 -1.0492  0.6040
   10MOL   H383 4721   4.726   3.933   1.102  0.5409 -1.9048  0.5023
   10MOL   H384 4722   4.918   4.091   1.456  2.8667 -1.2815  1.1007
   10MOL   H385 4723   5.145   4.035   1.354 -0.0400  1.0707  0.1515
   10MOL   C386 4724   4.477   4.130   1.256  0.2418  0.7178 -0.1722
   10MOL   C387 4725   4.391   4.223   1.194  0.2725 -0.5525  0.0727
   10MOL   C388 4726   4.441   4.346   1.150 -0.1138 -0.1475 -0.5021
   10MOL   C389 4727   4.579   4.370   1.168  0.1706 -0.5594 -0.0843
   10MOL   C390 4728   4.666   4.276   1.224 -0.8856  0.6778 -0.5869
   10MOL   C391 4729   4.610   4.154   1.265 -0.1154 -0.1422 -0.0219
   10MOL   S392 4730   4.321   4.463   1.086 -0.0802  0.1797  0.2559
   10MOL   O393 4731   4.200   4.390   1.040  0.3456 -0.2936 -0.6860
   10MOL   O394 4732   4.390   4.539   0.980 -0.1511 -0.0884 -0.0981
   10MOL   C395 4733   4.271   4.568   1.222  0.8606 -0.0350 -0.3021
   10MOL   C396 4734   4.365   4.663   1.271  0.4481  0.0422 -0.1448
   10MOL   C397 4735   4.319   4.767   1.352  0.4915 -0.1909  0.0417
   10MOL   C398 4736   4.182   4.777   1.392 -0.1480  0.3028  0.1620
   10MOL   C399 4737   4.091   4.676   1.355  0.5452  0.8807 -0.6440
   10MOL   C400 4738   4.136   4.573   1.269 -0.2684  0.1445 -0.3594
   10MOL   O401 4739   4.143   4.884   1.459  0.4282  0.5318 -0.4168
   10MOL   H402 4740   4.432   4.036   1.286  0.6891  0.7376  0.5937
   10MOL   H403 4741   4.285   4.198   1.190  0.5879 -1.7057 -2.0855
   10MOL   H404 4742   4.607   4.468   1.132  1.8934 -1.1698 -0.4436
   10MOL   H405 4743   4.769   4.292   1.252 -0.3155  0.0691 -2.3096
   10MOL   H406 4744   4.470   4.651   1.249 -0.1058 -3.1654 -1.3706
   10MOL   H407 4745   4.383   4.845   1.391 -1.9125  0.7837  2.1924
   10MOL   H408 4746   3.990   4.670   1.395  1.5797  1.9566  2.2857
   10MOL   H409 4747   4.060   4.499   1.250  1.4318 -1.4291 -1.1699
   10MOL   C410 4748   3.975   4.918   1.628 -0.3493 -0.1526 -0.1024
   10MOL   C411 4749   3.942   4.925   1.763 -0.2928 -0.2140  0.1198
   10MOL   C412 4750   4.033   4.875   1.859 -0.5152  0.6837  0.0455
   10MOL   C413 4751   4.161   4.816   1.815 -0.1276  0.2839  0.1951
   10MOL   C414 4752   4.191   4.815   1.680 -0.9227 -0.0880 -0.1902
   10MOL   C415 4753   4.100   4.866   1.588  0.2561  0.2376  0.7925
   10MOL   S416 4754   4.000   4.869   2.032 -0.0315  0.5023 -0.3366
   10MOL   O417 4755   4.016   4.728   2.077  0.2583  0.9477 -0.3673
   10MOL   O418 4756   3.865   4.929   2.047  0.0912  1.2094 -0.0726
   10MOL   C419 4757   4.121   4.962   2.116 -0.0291  0.0230 -0.2735
   10MOL   C420 4758   4.188   5.075   2.058  0.7287  0.2025  0.6282
   10MOL   C421 4759   4.272   5.147   2.146  0.3246  0.4825 -1.3012
   10MOL   C422 4760   4.313   5.095   2.273  0.1917  0.2160  0.1344
   10MOL   C423 4761   4.239   4.988   2.325 -0.4448 -0.0312  0.7672
   10MOL   C424 4762   4.150   4.915   2.245  0.7463  0.2029  0.6654
   10MOL   O425 4763   4.397   5.169   2.351 -0.1095  0.1685 -0.5207
   10MOL   H426 4764   3.918   4.954   1.543 -1.3079 -3.8812 -1.1570
   10MOL   H427 4765   3.850   4.963   1.804 -0.0399  0.4210  0.0941
   10MOL   H428 4766   4.229   4.773   1.888 -2.0455 -1.3539  1.0826
   10MOL   H429 4767   4.294   4.790   1.658 -0.5694  0.9048  0.2895
   10MOL   H430 4768   4.153   5.114   1.964 -0.9861 -1.2621  0.6424
   10MOL   H431 4769   4.316   5.240   2.113  0.1485  0.8717 -0.4628
   10MOL   H432 4770   4.256   4.962   2.428 -0.3155 -0.9160  0.5243
   10MOL   H433 4771   4.093   4.840   2.297  0.7150 -0.8605 -0.8416
   10MOL   C434 4772   4.601   5.131   2.216  0.1777 -0.0508  0.2075
   10MOL   C435 4773   4.717   5.183   2.153 -0.2192 -0.0467 -0.1143
   10MOL   C436 4774   4.752   5.322   2.172  0.1110 -0.5485 -0.2941
   10MOL   C437 4775   4.674   5.397   2.266 -0.5259  0.2896  0.1013
   10MOL   C438 4776   4.558   5.343   2.324 -0.0212 -0.1683 -0.5371
   10MOL   C439 4777   4.513   5.214   2.290 -0.1390  0.0447  0.6040
   10MOL   S440 4778   4.910   5.385   2.111  0.1505  0.0971 -0.1205
   10MOL   O441 4779   4.903   5.531   2.128 -0.4463  0.1761  0.1157
   10MOL   O442 4780   4.938   5.318   1.986 -0.4390 -0.0104 -0.0832
   10MOL   C443 4781   5.019   5.330   2.237 -0.6467  0.0710  0.3062
   10MOL   C444 4782   4.991   5.370   2.369 -0.1826  0.1356  0.2614
   10MOL   C445 4783   5.070   5.316   2.471 -0.2894  0.1271  0.6340
   10MOL   C446 4784   5.170   5.217   2.442 -0.9717 -0.2788 -0.2533
   10MOL   C447 4785   5.191   5.179   2.308 -0.3090  0.1539 -0.2198
   10MOL   C448 4786   5.115   5.233   2.206  0.6167 -0.1956  0.2332
   10MOL   O449 4787   5.247   5.159   2.539  0.0674  0.2625  0.1029
   10MOL   H450 4788   4.581   5.026   2.204 -1.0823  0.4830 -2.8817
   10MOL   H451 4789   4.786   5.116   2.103  0.3686 -0.1399  0.8052
   10MOL   H452 4790   4.698   5.501   2.280 -0.4575  0.0009  2.3051
   10MOL   H453 4791   4.508   5.399   2.402  1.2915  2.0682 -1.2696
   10MOL   H454 4792   4.918   5.448   2.382 -1.2131 -0.8341  0.3857
   10MOL   H455 4793   5.036   5.341   2.571 -1.3777 -1.5720  0.7046
   10MOL   H456 4794   5.262   5.101   2.285 -0.6569 -0.1775 -0.1564
   10MOL   H457 4795   5.120   5.190   2.107 -0.6789 -0.2504  0.1846
   10MOL   C458 4796   5.096   4.997   2.623 -0.0947 -0.4058  0.1238
   10MOL   C459 4797   5.077   4.874   2.685 -0.9211 -0.0337 -0.1186
   10MOL   C460 4798   5.187   4.787   2.692 -0.2510 -0.2402 -0.7716
   10MOL   C461 4799   5.312   4.818   2.643 -0.2237  0.4290  0.4115
   10MOL   C462 4800   5.336   4.942   2.587  0.9976 -0.4129 -0.1493
   10MOL   C463 4801   5.224   5.031   2.579 -0.0027  0.0064 -0.1665
   10MOL   S464 4802   5.169   4.631   2.778 -0.1314 -0.1769 -0.2316
   10MOL   O465 4803   5.250   4.533   2.704  0.1059 -0.0268 -0.0885
   10MOL   O466 4804   5.031   4.597   2.807  0.0134  0.2314  0.1452
   10MOL   C467 4805   5.244   4.659   2.935  0.4234 -0.3047  0.1647
   10MOL   C468 4806   5.234   4.780   3.005  0.4059 -0.1869 -0.4085
   10MOL   C469 4807   5.280   4.783   3.136 -0.3755  0.6266 -0.0631
   10MOL   C470 4808   5.342   4.677   3.204 -0.3476 -0.0869 -0.0548
   10MOL   C471 4809   5.365   4.556   3.134  0.2780 -0.0545 -0.6281
   10MOL   C472 4810   5.310   4.548   3.000  0.0476 -0.2509 -0.4000
   10MOL   O473 4811   5.406   4.700   3.329 -0.2245  0.1686  0.4084
   10MOL   H474 4812   5.017   5.070   2.615 -1.1450 -1.4071  1.2743
   10MOL   H475 4813   4.979   4.849   2.724 -1.6557  2.1501 -0.4782
   10MOL   H476 4814   5.396   4.750   2.643 -0.9295 -0.5336 -2.4965
   10MOL   H477 4815   5.434   4.981   2.565 -0.4630  4.0379  0.8212
   10MOL   H478 4816   5.183   4.866   2.963  0.1638  1.4374  3.0641
   10MOL   H479 4817   5.272   4.875   3.192  1.4486 -0.4854  2.1098
   10MOL   H480 4818   5.418   4.474   3.182 -1.6940 -0.7052  0.5283
   10MOL   H481 4819   5.310   4.455   2.946  1.8039 -0.8418  0.5791
   10MOL   H482 4820   5.495   4.672   3.317 -0.0326  1.2012 -0.5868
   11MOL     C1 4821   6.515   7.908   5.698  0.1163  0.5882  0.1901
   11MOL     C2 4822   6.608   7.904   5.805 -0.1715 -0.1929  0.0242
   11MOL     C3 4823   6.565   7.919   5.939 -0.2648 -0.0849 -0.7757
   11MOL     C4 4824   6.433   7.943   5.969  0.1418 -0.0230  0.0730
   11MOL     C5 4825   6.344   7.962   5.858 -0.0196 -0.1549 -0.0821
   11MOL     C6 4826   6.382   7.938   5.724  0.2161 -0.2032 -0.0991
   11MOL     S7 4827   6.692   7.922   6.060 -0.0978  0.0346  0.2968
   11MOL     O8 4828   6.792   7.819   6.024  0.1434  0.5738 -0.2338
   11MOL     O9 4829   6.628   7.925   6.191 -0.2289 -0.1265 -0.2475
   11MOL    C10 4830   6.772   8.083   6.043 -0.0976  0.3114 -0.2253
   11MOL    C11 4831   6.765   8.182   6.142 -0.3531 -0.0971  0.4849
   11MOL    C12 4832   6.826   8.304   6.118  0.2756 -0.0197 -0.0243
   11MOL    C13 4833   6.904   8.326   6.002 -0.7372 -0.0077  0.1738
   11MOL    C14 4834   6.924   8.221   5.911  0.3126  0.7696  0.2578
   11MOL    C15 4835   6.845   8.107   5.919 -0.2079  0.7047 -0.3164
   11MOL    O16 4836   6.971   0.011   5.990 -0.2707 -0.2220 -0.2316
   11MOL    H17 4837   6.550   7.891   5.598 -0.4985  1.9190 -0.2568
   11MOL    H18 4838   6.711   7.874   5.793  0.5877  2.4092 -0.3974
   11MOL    H19 4839   6.402   7.966   6.069  0.9931  1.2405  0.0594
   11MOL    H20 4840   6.245   8.003   5.872 -0.2203  0.0080 -1.9425
   11MOL    H21 4841   6.716   8.162   6.237  0.9753 -1.0308  0.9847
   11MOL    H22 4842   6.815   8.373   6.201 -1.9129  0.0722 -0.3615
   11MOL    H23 4843   6.996   8.239   5.833  0.2851  1.9717  0.5000
   11MOL    H24 4844   6.855   8.024   5.850  0.1608  1.2836 -0.9724
   11MOL    H25 4845   6.311   7.956   5.645  0.6687 -1.3572 -0.7732
   11MOL    C26 4846   6.800   0.101   5.838  0.1068 -0.0330 -0.1089
   11MOL    C27 4847   6.719   0.212   5.807 -0.4405 -0.6014  0.4318
   11MOL    C28 4848   6.719   0.329   5.879 -0.2692  0.3968  1.0271
   11MOL    C29 4849   6.804   0.339   5.992  0.7871  0.1517 -0.9140
   11MOL    C30 4850   6.895   0.241   6.023 -0.5013  1.0928 -0.2869
   11MOL    C31 4851   6.886   0.117   5.952  0.4857  0.0614 -0.4273
   11MOL    S32 4852   6.602   0.464   5.852  0.2589 -0.0150  0.4527
   11MOL    O33 4853   6.532   0.497   5.976 -0.0583 -0.0216 -0.3418
   11MOL    O34 4854   6.521   0.432   5.731 -0.2899  0.2148 -0.1731
   11MOL    C35 4855   6.705   0.605   5.811 -0.1574  0.1235  0.4960
   11MOL    C36 4856   6.732   0.628   5.671  0.4224  0.3007  0.0340
   11MOL    C37 4857   6.825   0.733   5.636  0.0092 -0.3684 -0.0123
   11MOL    C38 4858   6.888   0.807   5.735  0.2225  0.1987 -0.3328
   11MOL    C39 4859   6.855   0.784   5.869  0.5474  0.1729  0.4076
   11MOL    C40 4860   6.766   0.683   5.910  0.2773 -0.0020  0.3397
   11MOL    O41 4861   6.977   0.908   5.706  0.0713  0.3745  0.3196
   11MOL    H42 4862   6.815   0.021   5.767 -2.7800  0.7060 -1.6285
   11MOL    H43 4863   6.658   0.202   5.718  1.8289  3.5057 -1.7562
   11MOL    H44 4864   6.797   0.428   6.053  1.2441 -0.9604  0.7976
   11MOL    H45 4865   6.969   0.248   6.101 -0.1983  1.2384 -0.5830
   11MOL    H46 4866   6.692   0.577   5.584 -1.5263  1.8050  0.0008
   11MOL    H47 4867   6.834   0.750   5.530  1.0625 -0.5739  0.0394
   11MOL    H48 4868   6.906   0.833   5.951  1.2211  0.3726 -0.1354
   11MOL    H49 4869   6.746   0.667   6.015 -0.3714 -0.3686  0.1691
   11MOL    C50 4870   7.115   0.931   5.509  0.0150 -0.0680  0.4771
   11MOL    C51 4871   7.236   0.900   5.440  0.0449 -0.2908  0.0611
   11MOL    C52 4872   7.321   0.803   5.493  0.3820  0.0918  0.3959
   11MOL    C53 4873   7.290   0.742   5.615  0.0482 -0.2840 -0.2834
   11MOL    C54 4874   7.179   0.789   5.694  0.2446  0.1788 -0.4468
   11MOL    C55 4875   7.091   0.880   5.636  0.8762  0.3893  0.5939
   11MOL    S56 4876   7.473   0.767   5.401 -0.2649 -0.2243 -0.0361
   11MOL    O57 4877   7.471   0.816   5.261  0.6186 -0.7723 -0.9018
   11MOL    O58 4878   7.501   0.627   5.427 -0.0167  0.1867 -0.2802
   11MOL    C59 4879   7.590   0.866   5.500 -0.0754 -0.6218 -0.0125
   11MOL    C60 4880   7.651   0.801   5.610 -0.1505 -0.3395  0.2542
   11MOL    C61 4881   7.705   0.875   5.711 -0.2786  0.2330 -0.0464
   11MOL    C62 4882   7.723   1.014   5.690 -0.7114 -0.0836 -0.7389
   11MOL    C63 4883   7.668   1.074   5.575 -0.1130  0.2194  0.0894
   11MOL    C64 4884   7.604   1.005   5.475  0.4691 -0.0968 -0.2141
   11MOL    O65 4885   7.770   1.092   5.790  0.6015  0.2537  0.1494
   11MOL    H66 4886   7.043   0.995   5.460 -0.3354 -1.4056 -0.8051
   11MOL    H67 4887   7.241   0.946   5.342 -0.1940  0.6247  0.4760
   11MOL    H68 4888   7.357   0.666   5.652  0.9868  0.9176  0.5534
   11MOL    H69 4889   7.148   0.745   5.788  0.9747  1.8833  0.6102
   11MOL    H70 4890   7.632   0.695   5.619  0.2565 -0.6320 -1.9320
   11MOL    H71 4891   7.740   0.832   5.803 -0.9425  2.1075  1.1040
   11MOL    H72 4892   7.680   1.181   5.560  0.3034  0.1321 -0.2002
   11MOL    H73 4893   7.571   1.057   5.386  0.4979  1.0477  0.4404
   11MOL    C74 4894   7.981   1.073   5.906  0.5474 -0.7901  0.1786
   11MOL    C75 4895   8.116   1.116   5.922 -0.4594 -0.4154  0.5791
   11MOL    C76 4896   8.179   1.209   5.835 -0.2933 -0.4507  0.3968
   11MOL    C77 4897   8.099   1.254   5.728  0.2848 -0.0456  0.3477
   11MOL    C78 4898   7.966   1.207   5.710 -0.1559 -0.8111 -0.1607
   11MOL    C79 4899   7.903   1.120   5.800  0.7925 -0.4317 -0.5169
   11MOL    S80 4900   8.336   1.286   5.881  0.4028  0.4238 -0.1863
   11MOL    O81 4901   8.291   1.399   5.965 -0.0077 -0.0687  0.3588
   11MOL    O82 4902   8.402   1.319   5.755  0.0174 -0.2375 -0.1070
   11MOL    C83 4903   8.425   1.177   5.985  0.5289 -0.2318 -0.4172
   11MOL    C84 4904   0.107   1.099   5.936 -0.6886 -0.5306 -0.2524
   11MOL    C85 4905   0.162   1.001   6.021  0.1339  0.1753  0.9779
   11MOL    C86 4906   0.113   0.982   6.154 -0.2292 -0.2714  0.7614
   11MOL    C87 4907   8.423   1.057   6.192  0.0330  0.5531  0.1448
   11MOL    C88 4908   8.376   1.161   6.114  0.1661  0.7688 -0.2362
   11MOL    O89 4909   0.163   0.880   6.231 -0.4153  0.1274 -0.4290
   11MOL    H90 4910   7.940   1.005   5.980 -1.7310  1.9610  1.5392
   11MOL    H91 4911   8.183   1.080   5.999  2.3087  1.6558 -0.7758
   11MOL    H92 4912   8.135   1.331   5.660 -1.3877  1.6514  1.3571
   11MOL    H93 4913   7.913   1.241   5.622  0.0096  2.0895  0.8200
   11MOL    H94 4914   0.133   1.112   5.832 -1.1635  0.5262 -0.2393
   11MOL    H95 4915   0.243   0.940   5.984 -1.5923 -0.3032 -2.1346
   11MOL    H96 4916   8.375   1.053   6.288  1.6722  0.4252  0.9858
   11MOL    H97 4917   8.292   1.213   6.158  0.9752  1.8041  0.1181
   11MOL    C98 4918   8.391   0.733   6.168  0.1389  0.5113  0.0978
   11MOL    C99 4919   8.316   0.620   6.194 -0.0788 -0.3481  0.1867
   11MOL   C100 4920   8.340   0.545   6.309  0.1994  0.1412 -0.1487
   11MOL   C101 4921   0.020   0.575   6.398 -0.6716 -1.3217  0.1179
   11MOL   C102 4922   0.105   0.685   6.363 -0.1480  0.1302 -0.5098
   11MOL   C103 4923   0.080   0.768   6.251  1.1540  0.3814  0.2448
   11MOL   S104 4924   8.219   0.413   6.352 -0.1167  0.0571 -0.1996
   11MOL   O105 4925   8.244   0.301   6.263 -0.0015  0.4052  0.4560
   11MOL   O106 4926   8.084   0.467   6.359  0.3030 -0.7162 -0.0838
   11MOL   C107 4927   8.264   0.354   6.518 -0.5509 -0.2616 -0.3052
   11MOL   C108 4928   8.350   0.243   6.529 -0.6757 -0.1980 -0.0589
   11MOL   C109 4929   8.363   0.173   6.650  0.3530 -0.8956  0.2387
   11MOL   C110 4930   8.281   0.211   6.758  0.3525  0.3734  0.2880
   11MOL   C111 4931   8.192   0.314   6.749  0.7253  0.4213 -0.7020
   11MOL   C112 4932   8.188   0.388   6.631  0.8660 -0.4273  0.2262
   11MOL   O113 4933   8.295   0.143   6.877 -0.4532 -0.0805 -0.4515
   11MOL   H114 4934   8.352   0.788   6.083 -0.8657 -0.5721 -0.1421
   11MOL   H115 4935   8.233   0.607   6.126 -0.3917 -0.6444  0.6140
   11MOL   H116 4936   0.031   0.521   6.490  2.5109 -1.4251 -0.2909
   11MOL   H117 4937   0.186   0.708   6.431  0.0632  0.9811 -1.0528
   11MOL   H118 4938   8.410   0.228   6.440  1.1028 -0.7386  1.2068
   11MOL   H119 4939   0.001   0.086   6.660  1.5703  0.0835  1.1030
   11MOL   H120 4940   8.126   0.336   6.832  0.6718 -0.2172 -0.5778
   11MOL   H121 4941   8.120   0.471   6.621 -1.4600 -2.4849 -1.6785
   11MOL   C122 4942   8.082   0.096   6.972  0.1845 -0.7461  0.4704
   11MOL   C123 4943   7.985   8.425   7.018 -0.4071  0.0464 -0.3840
   11MOL   C124 4944   8.007   8.291   6.992  0.2633 -0.5992 -0.0002
   11MOL   C125 4945   8.128   8.250   6.940 -0.3635  0.0436 -0.8417
   11MOL   C126 4946   8.227   8.341   6.892  0.3677  0.9904 -0.4572
   11MOL   C127 4947   8.203   0.053   6.912 -0.3989  1.1347  0.4629
   11MOL   S128 4948   7.898   8.168   7.048  0.2841 -0.1757  0.2922
   11MOL   O129 4949   7.903   8.045   6.963  0.4814 -0.3235  0.3679
   11MOL   O130 4950   7.763   8.226   7.061  0.1708 -0.1039  0.0887
   11MOL   C131 4951   7.947   8.120   7.212  0.6724  0.5292  0.4190
   11MOL   C132 4952   7.864   8.024   7.281  0.5407  0.6854 -0.1438
   11MOL   C133 4953   7.916   7.978   7.406  0.1414 -0.0087 -0.3419
   11MOL   C134 4954   8.038   8.029   7.460  0.1896 -0.0182 -0.9545
   11MOL   C135 4955   8.103   8.131   7.398  0.6495 -0.4613  0.5924
   11MOL   C136 4956   8.069   8.167   7.264 -0.7383 -0.3983 -0.2203
   11MOL   O137 4957   8.088   7.965   7.575 -0.0267  0.4427 -0.3433
   11MOL   H138 4958   8.061   0.199   6.997 -3.0390 -1.2447  0.0711
   11MOL   H139 4959   7.890   0.025   7.063  0.3400  2.5999 -0.1799
   11MOL   H140 4960   8.147   8.144   6.929 -1.7144 -0.0130 -2.8324
   11MOL   H141 4961   8.323   8.307   6.856 -0.8246 -1.2023 -1.6416
   11MOL   H142 4962   7.783   7.970   7.236  0.8549 -1.5074  1.8407
   11MOL   H143 4963   7.876   7.888   7.451  0.5570  0.8250  1.7745
   11MOL   H144 4964   8.191   8.176   7.440  0.8480  0.0371 -0.3470
   11MOL   H145 4965   8.128   8.244   7.215 -0.9712  0.3224  0.6210
   11MOL   C146 4966   7.950   7.939   7.766 -0.5804  0.4094 -0.1439
   11MOL   C147 4967   7.891   7.989   7.887  0.5906 -0.4360 -0.5907
   11MOL   C148 4968   7.934   8.112   7.937  0.2301  0.5428  0.8125
   11MOL   C149 4969   8.032   8.182   7.868 -0.1469  0.4156 -0.1286
   11MOL   C150 4970   8.088   8.134   7.747 -0.3371 -0.0169  0.4573
   11MOL   C151 4971   8.043   8.011   7.691 -0.2711 -0.5488 -0.4039
   11MOL   S152 4972   7.857   8.174   8.079 -0.0263 -0.1643  0.3766
   11MOL   O153 4973   7.751   8.082   8.114  0.5258  0.6377 -0.4399
   11MOL   O154 4974   7.822   8.318   8.065  0.0240 -0.6930  0.2067
   11MOL   C155 4975   7.971   8.155   8.211  0.5757  0.7051 -0.0953
   11MOL   C156 4976   7.990   8.017   8.242  0.4960  0.1559 -0.2730
   11MOL   C157 4977   8.076   7.976   8.350  0.0896  0.0236  0.3411
   11MOL   C158 4978   8.151   8.081   8.408  0.8350 -0.7321 -0.3060
   11MOL   C159 4979   8.132   8.221   8.379 -0.5806 -0.2779 -0.4425
   11MOL   C160 4980   8.038   8.260   8.283 -0.3000  0.5008 -0.5082
   11MOL   O161 4981   8.251   8.046   0.072 -0.0303 -0.0044  0.3380
   11MOL   H162 4982   7.909   7.841   7.746 -1.8641  0.6857  1.0245
   11MOL   H163 4983   7.824   7.938   7.955  0.1520  2.3230  1.1262
   11MOL   H164 4984   8.061   8.280   7.903 -2.5321  1.4046 -0.8081
   11MOL   H165 4985   8.163   8.195   7.698 -1.1984  0.7459  0.0722
   11MOL   H166 4986   7.943   7.943   8.179 -2.0678  0.2425  1.4954
   11MOL   H167 4987   8.095   7.870   8.341  0.1820 -0.0774  1.6089
   11MOL   H168 4988   8.190   8.292   0.011 -1.7974 -0.1015  0.5985
   11MOL   H169 4989   8.026   8.366   8.266 -0.1184  0.3166 -1.8201
   11MOL   C170 4990   0.006   8.029   8.340 -0.3656  0.3297 -0.3710
   11MOL   C171 4991   0.140   8.062   8.308  0.4042 -0.3405 -0.6866
   11MOL   C172 4992   0.215   8.142   8.392 -0.3182  0.3425 -0.2875
   11MOL   C173 4993   0.163   8.187   0.086  0.6135  0.9602 -0.0681
   11MOL   C174 4994   0.036   8.152   0.131 -0.5741  0.9091  0.3629
   11MOL   C175 4995   8.381   8.079   0.035 -0.0897 -0.0850 -0.1859
   11MOL   S176 4996   0.371   8.215   8.336  0.2297 -0.2377 -0.7523
   11MOL   O177 4997   0.329   8.344   8.284  0.1822  0.3777  0.8469
   11MOL   O178 4998   0.436   8.120   8.248  0.2824 -0.4446 -0.0213
   11MOL   C179 4999   0.485   8.248   0.054  0.3963 -0.1113 -0.4988
   11MOL   C180 5000   0.513   8.151   0.149 -0.1924 -0.1932  0.5748
   11MOL   C181 5001   0.608   8.182   0.250 -0.4550 -0.1555  1.0688
   11MOL   C182 5002   0.682   8.304   0.247 -0.2174  0.2330 -0.0116
   11MOL   C183 5003   0.652   8.399   0.152  0.6928 -0.5306  0.2423
   11MOL   C184 5004   0.557   8.370   0.056 -0.4435 -0.7524  0.0366
   11MOL   O185 5005   0.779   8.326   0.340 -0.0394  0.4284 -0.0726
   11MOL   H186 5006   8.373   7.967   8.273 -0.0494 -1.0915  0.6357
   11MOL   H187 5007   0.186   8.016   8.221 -0.2781 -0.7603 -0.8313
   11MOL   H188 5008   0.221   8.250   0.152  0.8736  0.8207 -0.1601
   11MOL   H189 5009   8.415   8.177   0.225  0.1483  1.7173  0.5031
   11MOL   H190 5010   0.455   8.060   0.145  0.5699 -0.6721  0.3775
   11MOL   H191 5011   0.637   8.108   0.324  1.8384  0.1748  0.5318
   11MOL   H192 5012   0.698   0.072   0.150 -0.8503  0.2179  0.8569
   11MOL   H193 5013   0.533   0.021   8.409  0.4961 -0.9718 -0.5287
   11MOL   C194 5014   0.857   0.114   0.398 -0.5922  0.0659  0.0387
   11MOL   C195 5015   0.950   0.218   0.390 -0.1045 -0.1854 -0.3218
   11MOL   C196 5016   1.066   0.203   0.318  0.4130 -0.1294 -0.2335
   11MOL   C197 5017   1.085   0.089   0.236 -0.1477 -0.1756 -0.4993
   11MOL   C198 5018   0.992   8.405   0.239 -0.0533  0.1693  0.1671
   11MOL   C199 5019   0.874   8.424   0.327 -0.7208  0.0476 -0.6043
   11MOL   S200 5020   1.196   0.328   0.313  0.0408 -0.3958 -0.0001
   11MOL   O201 5021   1.318   0.254   0.273 -0.0767 -0.0706 -0.0988
   11MOL   O202 5022   1.189   0.407   0.434  0.2346 -1.1189 -0.2225
   11MOL   C203 5023   1.137   0.435   0.177  0.3470 -0.1842  0.1474
   11MOL   C204 5024   1.156   0.574   0.187  0.2910 -0.1720  0.2999
   11MOL   C205 5025   1.096   0.661   0.090 -0.5984 -0.0653  0.3872
   11MOL   C206 5026   1.014   0.611   8.413  0.1137 -0.0249  0.5110
   11MOL   C207 5027   0.996   0.475   8.400  0.3940  0.3339  0.1370
   11MOL   C208 5028   1.055   0.389   0.072  0.4192  0.5500  0.2911
   11MOL   O209 5029   0.944   0.685   8.323 -0.0669  0.3783 -0.0179
   11MOL   H210 5030   0.774   0.125   0.466 -1.6157 -1.3187 -0.9696
   11MOL   H211 5031   0.939   0.309   0.447  0.1441 -1.1268  1.2592
   11MOL   H212 5032   1.174   0.076   0.177  1.0616 -3.2423  1.9132
   11MOL   H213 5033   1.013   8.309   0.194  0.0349  0.0762  0.4074
   11MOL   H214 5034   1.229   0.620   0.252  0.0838  1.0005 -0.2836
   11MOL   H215 5035   1.129   0.764   0.093  1.2409 -0.6034 -0.5120
   11MOL   H216 5036   0.927   0.451   8.320  1.7902 -1.3455 -0.5970
   11MOL   H217 5037   1.033   0.284   0.061  0.3814  0.4936  0.9274
   11MOL   C218 5038   1.018   0.868   8.195 -0.3064 -1.2211  0.3529
   11MOL   C219 5039   1.100   0.924   8.096  0.4381  0.0182 -0.0284
   11MOL   C220 5040   1.161   0.834   8.006 -0.1482  0.3448 -0.0856
   11MOL   C221 5041   1.148   0.694   8.014  0.8245 -0.1458  0.7053
   11MOL   C222 5042   1.071   0.643   8.120 -0.2377 -0.1681  0.1956
   11MOL   C223 5043   1.010   0.731   8.212 -0.1464  0.5152  0.7301
   11MOL   S224 5044   1.281   0.882   7.887  0.3256 -0.0491  0.2631
   11MOL   O225 5045   1.203   0.933   7.774 -0.0964  0.4853 -0.0673
   11MOL   O226 5046   1.374   0.770   7.864  0.2732 -0.5057 -0.0990
   11MOL   C227 5047   1.373   1.014   7.959  0.0948 -0.2912 -0.3516
   11MOL   C228 5048   1.455   0.984   8.073  0.3524  0.5572  0.1110
   11MOL   C229 5049   1.510   1.094   8.147  0.4149  0.0060  0.0438
   11MOL   C230 5050   1.503   1.225   8.095 -0.2238  0.0502 -0.0549
   11MOL   C231 5051   1.428   1.247   7.973  0.4252  0.0310  0.3298
   11MOL   C232 5052   1.354   1.145   7.913 -0.3738  0.2568 -0.0377
   11MOL   O233 5053   1.559   1.333   8.156  0.4251 -0.4620 -0.1075
   11MOL   H234 5054   0.962   0.937   8.257  1.4904  2.5949 -2.0905
   11MOL   H235 5055   1.119   1.031   8.098  0.8303 -0.0772  1.9682
   11MOL   H236 5056   1.204   0.634   7.943  2.9975  2.8569 -0.2584
   11MOL   H237 5057   1.058   0.536   8.131  0.7553 -0.5722 -2.1528
   11MOL   H238 5058   1.474   0.878   8.086 -2.4482 -0.0504 -0.3203
   11MOL   H239 5059   1.563   1.078   8.239  0.5286 -2.3099 -0.3990
   11MOL   H240 5060   1.423   1.347   7.932 -0.7499  0.4412  1.4556
   11MOL   H241 5061   1.283   1.161   7.833 -0.6006 -0.1306  0.0813
   11MOL   C242 5062   1.788   1.289   8.159 -0.5037  0.1770  0.6721
   11MOL   C243 5063   1.916   1.284   8.223  0.2135  0.0624 -0.2391
   11MOL   C244 5064   1.933   1.319   8.358  0.2017  0.2035 -0.2916
   11MOL   C245 5065   1.812   1.346   0.005 -0.1085 -0.4580 -0.2955
   11MOL   C246 5066   1.682   1.361   8.370  0.1498  0.4623  0.0230
   11MOL   C247 5067   1.671   1.321   8.233  0.3279 -0.3894  0.4918
   11MOL   S248 5068   2.104   1.321   0.003 -0.3443 -0.1622  0.3218
   11MOL   O249 5069   2.174   1.428   8.355  0.0469  0.1428  0.2089
   11MOL   O250 5070   2.151   1.185   8.422 -0.4574  0.3685 -0.0764
   11MOL   C251 5071   2.106   1.363   0.176  0.2518 -0.7459  0.4871
   11MOL   C252 5072   2.016   1.298   0.262 -0.3759 -0.3989 -0.5337
   11MOL   C253 5073   2.028   1.328   0.396 -0.3519  0.6601  0.4216
   11MOL   C254 5074   2.131   1.407   0.446  0.7175 -0.3063 -0.4114
   11MOL   C255 5075   2.224   1.465   0.360  0.3508  0.3381  0.8604
   11MOL   C256 5076   2.209   1.448   0.221 -0.1627  0.0975 -0.0865
   11MOL   O257 5077   2.146   1.429   0.578 -0.1149  0.5565  0.0045
   11MOL   H258 5078   1.773   1.259   8.057 -1.3069  2.0696  0.2182
   11MOL   H259 5079   2.010   1.262   8.176  0.2126 -3.9210  1.3737
   11MOL   H260 5080   1.819   1.377   0.108  1.1916 -2.2328  0.1802
   11MOL   H261 5081   1.595   1.391   0.001  1.5004  0.0197  2.4233
   11MOL   H262 5082   1.941   1.230   0.225 -0.8503 -0.4814  0.5484
   11MOL   H263 5083   1.966   1.269   0.461 -1.6770  1.7823  0.2061
   11MOL   H264 5084   2.298   1.533   0.398  1.3380 -0.5363  0.5101
   11MOL   H265 5085   2.287   1.476   0.152  1.1902  0.0615  1.4116
   11MOL   C266 5086   2.013   1.625   0.586 -0.3439 -0.5128 -0.3789
   11MOL   C267 5087   1.920   1.703   0.652  0.1841 -0.2610 -0.2151
   11MOL   C268 5088   1.853   1.650   0.760 -0.1645  0.2849 -0.2016
   11MOL   C269 5089   1.884   1.519   0.806  0.1516  0.1915 -0.4923
   11MOL   C270 5090   1.977   1.437   0.734  0.3332 -0.3052 -1.1705
   11MOL   C271 5091   2.049   1.502   0.634 -0.7261  0.6257  0.1230
   11MOL   S272 5092   1.734   1.745   0.847 -0.0450  0.4293  0.0907
   11MOL   O273 5093   1.803   1.867   0.891 -0.1299  0.4224  0.5749
   11MOL   O274 5094   1.676   1.660   0.947  0.2543  0.3922  0.6667
   11MOL   C275 5095   1.607   1.789   0.731 -0.3085 -0.1905  0.4108
   11MOL   C276 5096   1.488   1.715   0.728  0.6400 -0.1483 -0.5312
   11MOL   C277 5097   1.391   1.742   0.629 -0.8036  0.7399  0.7873
   11MOL   C278 5098   1.412   1.848   0.540  0.0130 -0.0700  0.6527
   11MOL   C279 5099   1.527   1.929   0.551  0.1070  0.3722 -0.6357
   11MOL   C280 5100   1.625   1.900   0.646  0.2884  0.3853  0.1415
   11MOL   O281 5101   1.322   1.882   0.442 -0.0198 -0.0784 -0.1110
   11MOL   H282 5102   2.076   1.669   0.510  0.0279  0.2025  0.3379
   11MOL   H283 5103   1.896   1.807   0.637 -1.1804 -0.7316 -1.3874
   11MOL   H284 5104   1.841   1.479   0.897  0.5603 -0.7377 -0.6991
   11MOL   H285 5105   2.003   1.339   0.773 -1.2363 -0.4417 -0.3998
   11MOL   H286 5106   1.481   1.628   0.791 -2.1992  0.0439 -0.5005
   11MOL   H287 5107   1.293   1.697   0.632 -0.4689 -0.3258 -2.1996
   11MOL   H288 5108   1.542   2.012   0.483 -0.1557  0.6168 -0.3988
   11MOL   H289 5109   1.722   1.948   0.645  0.2719  0.4158 -0.0636
   11MOL   C290 5110   1.171   1.704   0.368 -0.0245  0.9226  0.7936
   11MOL   C291 5111   1.044   1.645   0.383  0.9562  0.8772 -0.7541
   11MOL   C292 5112   0.944   1.706   0.457 -0.2362  0.6877 -0.5202
   11MOL   C293 5113   0.960   1.835   0.501 -0.1265  0.1504 -0.0592
   11MOL   C294 5114   1.088   1.890   0.503  0.3822  0.1392 -0.2872
   11MOL   C295 5115   1.194   1.824   0.439 -0.3866  0.4644  0.6722
   11MOL   S296 5116   0.780   1.626   0.475 -0.0650  0.3582 -0.0059
   11MOL   O297 5117   0.793   1.479   0.459 -0.0939 -0.2244 -0.2066
   11MOL   O298 5118   0.692   1.704   0.389  0.1279 -0.0549 -0.2170
   11MOL   C299 5119   0.725   1.653   0.641 -0.2901 -0.0778 -0.7550
   11MOL   C300 5120   0.801   1.597   0.741 -0.1701 -0.0399 -0.0766
   11MOL   C301 5121   0.783   1.635   0.880 -0.3721 -0.5489  0.1081
   11MOL   C302 5122   0.681   1.727   0.904 -0.7826 -0.3900 -0.3661
   11MOL   C303 5123   0.594   1.775   0.805 -0.6440  0.4256  0.5384
   11MOL   C304 5124   0.616   1.739   0.673  0.2238  0.3907  0.3808
   11MOL   O305 5125   0.677   1.800   1.022 -0.4512  0.0383  0.2025
   11MOL   H306 5126   1.242   1.651   0.306 -0.5354 -0.2175  1.1652
   11MOL   H307 5127   1.017   1.558   0.326  1.7078 -0.1931  0.4902
   11MOL   H308 5128   0.877   1.879   0.556 -0.0625  1.4094 -0.9376
   11MOL   H309 5129   1.109   1.988   0.542  0.9051  0.0772 -0.4054
   11MOL   H310 5130   0.875   1.521   0.723 -1.4968 -1.4148  0.1781
   11MOL   H311 5131   0.855   1.604   0.954 -0.4933  1.5918  1.1506
   11MOL   H312 5132   0.517   1.844   0.837 -0.8257  0.2739  0.4285
   11MOL   H313 5133   0.550   1.782   0.600 -0.6779  0.6833  1.3578
   11MOL   C314 5134   0.478   1.822   1.160  0.4591  0.1087 -0.1202
   11MOL   C315 5135   0.414   1.790   1.286 -0.9223 -0.0761  0.3931
   11MOL   C316 5136   0.467   1.689   1.370  0.0299 -1.1643  0.0035
   11MOL   C317 5137   0.594   1.634   1.334  0.3523 -0.2137  0.1690
   11MOL   C318 5138   0.662   1.664   1.209  0.2419  0.2489  0.5104
   11MOL   C319 5139   0.594   1.752   1.122 -0.1855 -0.3369 -0.0803
   11MOL   S320 5140   0.371   1.650   1.515  0.5359 -0.2533  0.0894
   11MOL   O321 5141   0.277   1.757   1.545  0.1654 -0.3400  0.1072
   11MOL   O322 5142   0.476   1.626   1.615  0.4071 -0.4917 -1.0219
   11MOL   C323 5143   0.284   1.496   1.471  0.9832 -0.2237 -0.3378
   11MOL   C324 5144   0.351   1.375   1.486  1.2108  0.5362  0.3043
   11MOL   C325 5145   0.286   1.251   1.452  0.3081  0.3353 -0.1079
   11MOL   C326 5146   0.162   1.255   1.392 -0.4024 -0.3920  0.6154
   11MOL   C327 5147   0.098   1.378   1.377 -0.7441 -0.0143  0.5570
   11MOL   C328 5148   0.155   1.502   1.428  0.2372  0.3092  0.1501
   11MOL   O329 5149   0.107   1.139   1.348  0.6090 -0.1060  0.4269
   11MOL   H330 5150   0.437   1.892   1.089 -0.1595  0.6928  0.8045
   11MOL   H331 5151   0.323   1.839   1.318 -1.8833 -0.6614 -1.3575
   11MOL   H332 5152   0.637   1.554   1.393  2.0363  1.5191  1.3586
   11MOL   H333 5153   0.748   1.605   1.180 -0.5277 -0.3399 -0.6386
   11MOL   H334 5154   0.450   1.377   1.530  1.1040  0.3344  0.5589
   11MOL   H335 5155   0.343   1.160   1.455 -1.2308 -0.6283  0.8996
   11MOL   H336 5156   0.003   1.406   1.332 -0.6005 -0.1835  0.1468
   11MOL   H337 5157   0.108   1.598   1.413 -2.3848 -1.1259 -1.1511
   11MOL   C338 5158   0.129   0.908   1.297 -0.9651 -0.1520  0.2492
   11MOL   C339 5159   0.190   0.799   1.225  0.2963  0.0487 -0.4654
   11MOL   C340 5160   0.312   0.822   1.153 -0.1113 -0.3451  0.3946
   11MOL   C341 5161   0.362   0.955   1.149 -0.1433  0.0644 -0.1896
   11MOL   C342 5162   0.294   1.061   1.204  0.5713 -0.1321 -0.3165
   11MOL   C343 5163   0.183   1.042   1.290  0.2044  0.1614  0.5227
   11MOL   S344 5164   0.392   0.682   1.071  0.0707 -0.0618  0.0170
   11MOL   O345 5165   0.465   0.739   0.955 -0.3445  0.7409  0.1978
   11MOL   O346 5166   0.299   0.571   1.055  0.5306 -0.4779 -0.2794
   11MOL   C347 5167   0.524   0.621   1.180  0.3756 -0.7115  0.0207
   11MOL   C348 5168   0.514   0.653   1.317  0.5530 -0.3230  0.4157
   11MOL   C349 5169   0.624   0.620   1.403  0.4469  0.1853  0.1572
   11MOL   C350 5170   0.739   0.550   1.346  0.3916  0.0884  0.2321
   11MOL   C351 5171   0.746   0.526   1.210 -0.3238 -0.2001  0.7910
   11MOL   C352 5172   0.635   0.552   1.128 -0.0293  0.2988  0.3062
   11MOL   O353 5173   0.846   0.516   1.420  0.0819  0.1083 -0.5618
   11MOL   H354 5174   0.039   0.887   1.353 -2.8935  2.0220 -1.8993
   11MOL   H355 5175   0.157   0.698   1.241 -0.4126  0.4643  0.7570
   11MOL   H356 5176   0.456   0.968   1.098  0.5650 -0.2315  1.0046
   11MOL   H357 5177   0.336   1.160   1.193 -0.4069  0.4929  1.3014
   11MOL   H358 5178   0.431   0.711   1.356  0.2432  1.0587 -2.1787
   11MOL   H359 5179   0.615   0.646   1.507 -0.3441 -0.0717  0.1563
   11MOL   H360 5180   0.838   0.498   1.160 -0.6158  2.3724 -1.3424
   11MOL   H361 5181   0.650   0.539   1.022  2.1659  0.2928  0.5945
   11MOL   C362 5182   0.897   0.285   1.450  0.6351  0.4760  0.1200
   11MOL   C363 5183   0.896   0.164   1.519 -0.4089 -0.5714  0.7349
   11MOL   C364 5184   0.818   0.165   1.643 -0.1979 -0.5734 -0.6567
   11MOL   C365 5185   0.757   0.285   1.691 -0.5353  0.1098 -0.5917
   11MOL   C366 5186   0.789   0.408   1.631  0.4879  0.3021 -0.5572
   11MOL   C367 5187   0.840   0.405   1.501  0.7434  0.1162 -0.2230
   11MOL   S368 5188   0.792   0.009   1.723  0.2158 -0.1202  0.2729
   11MOL   O369 5189   0.902   8.352   1.669  1.2250  0.2775  0.0324
   11MOL   O370 5190   0.657   8.397   1.693 -0.1514  0.1048 -0.1684
   11MOL   C371 5191   0.829   0.022   1.900 -0.3172  0.0048 -0.3541
   11MOL   C372 5192   0.736   0.057   1.999  0.2236  0.2550  0.1132
   11MOL   C373 5193   0.788   0.081   2.129 -0.4086  0.3886 -0.0571
   11MOL   C374 5194   0.922   0.061   2.165 -0.2740 -0.7119 -0.4505
   11MOL   C375 5195   1.011   0.025   2.071 -1.1124 -0.0473  0.1385
   11MOL   C376 5196   0.967   0.006   1.935 -0.6385 -0.6890  0.6371
   11MOL   O377 5197   0.953   0.066   2.302  0.4595 -0.2145 -0.0841
   11MOL   H378 5198   0.938   0.283   1.351  0.9785 -1.2693  0.2768
   11MOL   H379 5199   0.931   0.075   1.470 -2.6224 -0.5243 -1.0513
   11MOL   H380 5200   0.693   0.291   1.778  0.8723 -0.8013  0.5269
   11MOL   H381 5201   0.744   0.497   1.671  2.1597  1.0140 -0.2187
   11MOL   H382 5202   0.634   0.080   1.973  0.4454 -0.1804 -1.2045
   11MOL   H383 5203   0.723   0.100   2.213 -0.8045 -1.0299 -0.0385
   11MOL   H384 5204   1.115   0.015   2.095 -0.6746  0.9466 -1.2891
   11MOL   H385 5205   1.034   8.399   1.857  1.6200 -1.2065  2.7375
   11MOL   C386 5206   1.180   0.131   2.369 -0.4220  0.1171 -1.0366
   11MOL   C387 5207   1.272   0.223   2.429 -0.0861 -0.1527 -0.4363
   11MOL   C388 5208   1.219   0.344   2.473 -0.2618 -0.0912  0.0568
   11MOL   C389 5209   1.077   0.362   2.468 -0.4862 -0.4659 -0.1311
   11MOL   C390 5210   0.990   0.268   2.410 -0.7500  0.6525 -0.0470
   11MOL   C391 5211   1.042   0.156   2.354  0.3106 -0.3906  0.7351
   11MOL   S392 5212   1.325   0.473   2.534  0.4366  0.2439 -0.1329
   11MOL   O393 5213   1.252   0.545   2.638 -0.8351 -0.1277 -0.3233
   11MOL   O394 5214   1.361   0.550   2.414 -0.0384 -0.2953  0.0826
   11MOL   C395 5215   1.473   0.404   2.604 -0.1264 -0.5085 -0.3329
   11MOL   C396 5216   1.491   0.418   2.745  0.0309  0.6473 -0.0513
   11MOL   C397 5217   1.619   0.384   2.801  0.1549 -0.0805 -0.2579
   11MOL   C398 5218   1.709   0.305   2.723 -1.5718 -0.5950 -0.6421
   11MOL   C399 5219   1.689   0.286   2.586 -0.2042 -0.2002 -0.0722
   11MOL   C400 5220   1.572   0.340   2.529 -0.0492 -0.9916 -0.3336
   11MOL   O401 5221   1.829   0.282   2.783 -0.1137 -0.1587  1.1773
   11MOL   H402 5222   1.226   0.041   2.330  0.7439  0.1464  0.2334
   11MOL   H403 5223   1.379   0.210   2.440 -0.1680 -1.0468 -0.6053
   11MOL   H404 5224   1.044   0.456   2.511  0.3134 -0.0122 -0.5152
   11MOL   H405 5225   0.884   0.291   2.408 -0.6055  1.1955 -1.3615
   11MOL   H406 5226   1.419   0.473   2.804 -0.5923 -1.1277  0.8863
   11MOL   H407 5227   1.638   0.423   2.900 -0.5501  1.2502 -0.6489
   11MOL   H408 5228   1.765   0.243   2.522 -0.7093  0.1579 -0.9173
   11MOL   H409 5229   1.564   0.331   2.421  1.4786  3.3347 -0.8825
   11MOL   C410 5230   2.038   0.266   2.662 -0.7320 -0.0890  0.8439
   11MOL   C411 5231   2.141   0.185   2.603  0.0857  0.1051  0.0584
   11MOL   C412 5232   2.128   0.048   2.617  0.0835  0.0619 -0.6124
   11MOL   C413 5233   2.015   8.414   2.675 -0.3572 -0.1533 -1.2760
   11MOL   C414 5234   1.917   0.069   2.726  0.6038 -0.9248 -0.0683
   11MOL   C415 5235   1.922   0.210   2.719 -0.0923  0.3014 -0.1340
   11MOL   S416 5236   2.259   8.376   2.543  0.2003  0.2486  0.0195
   11MOL   O417 5237   2.317   0.034   2.432 -0.6749 -0.1359  0.4308
   11MOL   O418 5238   2.199   8.242   2.513  0.8107 -0.7648 -0.2311
   11MOL   C419 5239   2.386   8.346   2.668  0.7770 -0.5015 -0.0301
   11MOL   C420 5240   2.513   8.394   2.639 -0.1745 -0.7358  0.0198
   11MOL   C421 5241   2.609   8.391   2.741 -0.4775  0.3487 -0.4668
   11MOL   C422 5242   2.585   8.346   2.867  0.5345 -0.6825  0.1103
   11MOL   C423 5243   2.460   8.285   2.887 -0.1425 -0.1382  0.3926
   11MOL   C424 5244   2.358   8.282   2.789 -0.2888  0.3810  0.0022
   11MOL   O425 5245   2.682   8.361   2.967  0.1452  0.1343  0.4510
   11MOL   H426 5246   2.041   0.374   2.657 -0.1150 -0.1123  0.6386
   11MOL   H427 5247   2.224   0.230   2.550  2.1310 -2.5609  0.8497
   11MOL   H428 5248   2.013   8.306   2.680 -0.3656 -0.0608  0.9790
   11MOL   H429 5249   1.826   0.027   2.766 -0.2975  0.9823 -0.0265
   11MOL   H430 5250   2.532   0.007   2.540 -0.8156  3.0989  1.2755
   11MOL   H431 5251   2.708   0.001   2.715  0.6758 -3.3928 -1.5677
   11MOL   H432 5252   2.431   8.244   2.983 -0.5121 -3.1632 -0.9575
   11MOL   H433 5253   2.264   8.231   2.804 -0.0880 -1.0166 -3.0713
   11MOL   C434 5254   2.712   8.416   3.203  0.3073  0.0821  0.7195
   11MOL   C435 5255   2.701   0.078   3.312  0.1532 -0.3496  0.7350
   11MOL   C436 5256   2.654   0.211   3.285 -0.2180  0.5058 -0.3103
   11MOL   C437 5257   2.612   0.242   3.154 -0.2855  0.3802  0.2558
   11MOL   C438 5258   2.610   0.148   3.055  0.2511 -0.0614 -0.0416
   11MOL   C439 5259   2.665   0.024   3.075  0.3985 -0.0233 -0.5678
   11MOL   S440 5260   2.635   0.327   3.414 -0.2122  0.1965  0.2699
   11MOL   O441 5261   2.577   0.258   3.526  0.2499  0.2135 -1.1248
   11MOL   O442 5262   2.572   0.448   3.363 -0.0993  0.7482 -0.4024
   11MOL   C443 5263   2.806   0.380   3.473 -0.0974 -0.0045 -0.5228
   11MOL   C444 5264   2.865   0.301   3.573 -0.1277  0.2638  0.3616
   11MOL   C445 5265   2.988   0.336   3.619 -0.2835  0.3588 -0.3113
   11MOL   C446 5266   3.060   0.449   3.576  0.3151 -0.2635 -0.0326
   11MOL   C447 5267   2.996   0.536   3.488 -0.1094 -0.3419  0.6451
   11MOL   C448 5268   2.872   0.500   3.425  0.2899  1.2044 -0.1899
   11MOL   O449 5269   3.185   0.463   3.617 -0.9295 -0.5801 -0.0123
   11MOL   H450 5270   2.761   8.321   3.219  0.9846 -0.3947 -3.5590
   11MOL   H451 5271   2.732   0.039   3.408 -2.0256 -1.4953  1.0036
   11MOL   H452 5272   2.574   0.339   3.126  1.0342  0.8398  0.0278
   11MOL   H453 5273   2.580   0.171   2.954  1.7754  1.9629 -0.0682
   11MOL   H454 5274   2.810   0.212   3.602  0.4923 -0.7890 -1.6579
   11MOL   H455 5275   3.040   0.267   3.683 -1.0126 -1.1847 -1.3495
   11MOL   H456 5276   3.043   0.622   3.443 -2.5430  2.0599  2.5835
   11MOL   H457 5277   2.824   0.572   3.360 -1.4312  0.9919  0.8014
   11MOL   C458 5278   3.328   0.644   3.573 -0.7458  0.5357  0.1329
   11MOL   C459 5279   3.427   0.711   3.492  0.0668  0.5798 -0.3091
   11MOL   C460 5280   3.489   0.641   3.387  0.5123 -0.3197  0.1697
   11MOL   C461 5281   3.443   0.514   3.349 -0.6640 -0.2939  0.3699
   11MOL   C462 5282   3.343   0.447   3.430 -0.0998  0.3980  1.2890
   11MOL   C463 5283   3.284   0.517   3.537  0.4954  0.3210  0.0236
   11MOL   S464 5284   3.625   0.710   3.299 -0.0754 -0.0627 -0.0414
   11MOL   O465 5285   3.574   0.712   3.161 -0.4925  0.5594  0.3413
   11MOL   O466 5286   3.741   0.627   3.335 -0.2411 -0.3877  0.0287
   11MOL   C467 5287   3.657   0.871   3.347  0.8738 -0.8608  0.0468
   11MOL   C468 5288   3.709   0.888   3.470 -0.1100 -0.0416 -0.2288
   11MOL   C469 5289   3.727   1.018   3.525  0.3690 -0.0464  0.9896
   11MOL   C470 5290   3.694   1.132   3.442 -1.0017 -0.0825 -1.4038
   11MOL   C471 5291   3.631   1.110   3.319 -0.4083 -0.1607  0.5617
   11MOL   C472 5292   3.614   0.979   3.268  0.0989 -1.1781 -0.2623
   11MOL   O473 5293   3.724   1.262   3.472 -0.0306  0.1857 -0.3018
   11MOL   H474 5294   3.293   0.699   3.659 -1.2464 -1.6554  1.3750
   11MOL   H475 5295   3.470   0.806   3.519 -0.1833  0.3036  1.1013
   11MOL   H476 5296   3.485   0.452   3.271 -0.1008 -0.5318  0.8613
   11MOL   H477 5297   3.302   0.350   3.405 -0.0003  0.1145  2.2223
   11MOL   H478 5298   3.738   0.806   3.533  0.5935  2.0442  2.2869
   11MOL   H479 5299   3.770   1.044   3.621  0.1040  1.0318  0.8165
   11MOL   H480 5300   3.583   1.188   3.262 -0.2017 -0.4188  0.0297
   11MOL   H481 5301   3.566   0.967   3.172 -0.3089  1.3491 -0.3848
   11MOL   H482 5302   3.804   1.267   3.523  0.8918 -4.2362 -1.0650
   12MOL     C1 5303   1.267   6.540   6.183  0.2275 -0.3035  0.3759
   12MOL     C2 5304   1.183   6.649   6.141  0.3215  0.5845 -0.1902
   12MOL     C3 5305   1.197   6.701   6.012  0.5286 -0.1773 -0.5029
   12MOL     C4 5306   1.293   6.645   5.929  0.2872 -0.0903 -0.3389
   12MOL     C5 5307   1.386   6.546   5.972  0.4059 -0.7173  0.9468
   12MOL     C6 5308   1.371   6.498   6.101 -0.2322 -0.5052  0.4103
   12MOL     S7 5309   1.109   6.844   5.961 -0.7136 -0.1188  0.1860
   12MOL     O8 5310   0.974   6.831   6.007  0.0680 -0.6433  0.4645
   12MOL     O9 5311   1.126   6.847   5.816 -0.6295  0.3457  0.4564
   12MOL    C10 5312   1.191   6.985   6.032  0.7818  0.1774 -0.2724
   12MOL    C11 5313   1.145   7.115   6.004  0.5843  0.2492 -0.6091
   12MOL    C12 5314   1.217   7.227   6.046 -0.3302 -0.3825 -0.6238
   12MOL    C13 5315   1.323   7.203   6.128  0.0410 -0.0061  0.2437
   12MOL    C14 5316   1.362   7.080   6.174  0.3457  0.2850 -0.2485
   12MOL    C15 5317   1.298   6.962   6.124 -0.0636  0.0945  0.1414
   12MOL    O16 5318   1.402   7.307   6.162  0.0752  0.1667 -0.0461
   12MOL    H17 5319   1.242   6.483   6.271  1.8893 -0.8323  0.5313
   12MOL    H18 5320   1.107   6.682   6.210  0.8556 -0.8243  1.1176
   12MOL    H19 5321   1.317   6.692   5.834  1.6300 -2.9270 -1.4547
   12MOL    H20 5322   1.472   6.510   5.917  1.4999  1.3612  1.2444
   12MOL    H21 5323   1.060   7.120   5.939  1.4738  0.2530 -1.7839
   12MOL    H22 5324   1.174   7.323   6.021 -0.3567  0.2010  1.5257
   12MOL    H23 5325   1.453   7.076   6.232  0.8979  2.8171 -0.8874
   12MOL    H24 5326   1.335   6.867   6.158  1.2218  0.4741 -0.1843
   12MOL    H25 5327   1.435   6.417   6.133 -0.4397 -0.9853 -0.3937
   12MOL    C26 5328   1.634   7.299   6.087  0.8218 -0.2105 -0.6426
   12MOL    C27 5329   1.740   7.341   6.000  0.1964  0.1529  0.7409
   12MOL    C28 5330   1.713   7.437   5.900 -0.5799 -0.8837 -0.3693
   12MOL    C29 5331   1.580   7.484   5.887 -0.1042 -0.0308  0.3380
   12MOL    C30 5332   1.479   7.438   5.970  0.5330 -0.5932  0.2836
   12MOL    C31 5333   1.504   7.345   6.074 -0.5097  0.3622  0.0599
   12MOL    S32 5334   1.838   7.494   5.785  0.2779  0.5400 -0.3946
   12MOL    O33 5335   1.784   7.483   5.647  0.0741  0.4273 -0.0349
   12MOL    O34 5336   1.965   7.432   5.822 -0.0738 -0.0468  0.4069
   12MOL    C35 5337   1.839   7.666   5.838 -0.3062 -0.4278  0.1419
   12MOL    C36 5338   1.772   7.764   5.765  0.1828 -0.2562 -0.0872
   12MOL    C37 5339   1.762   7.889   5.822  0.7661  0.7747 -0.0233
   12MOL    C38 5340   1.810   7.917   5.952  0.3402 -0.2225 -0.3337
   12MOL    C39 5341   1.882   7.815   6.017  0.4430  0.5466  0.3523
   12MOL    C40 5342   1.892   7.686   5.962  0.1757  0.1400 -0.2310
   12MOL    O41 5343   1.806   8.040   6.012 -0.0431  0.2443 -0.0013
   12MOL    H42 5344   1.664   7.236   6.170  0.3448 -0.3154 -0.5459
   12MOL    H43 5345   1.840   7.305   6.015 -0.4756 -1.0031  2.5580
   12MOL    H44 5346   1.552   7.557   5.813  0.2524  2.0518  2.1992
   12MOL    H45 5347   1.382   7.480   5.945  0.1843 -2.3489 -1.3990
   12MOL    H46 5348   1.738   7.750   5.664 -0.0081  2.7872 -0.4836
   12MOL    H47 5349   1.714   7.967   5.764 -1.4937 -0.5868 -0.0232
   12MOL    H48 5350   1.937   7.852   6.102  4.3812 -0.4095 -1.6613
   12MOL    H49 5351   1.935   7.600   6.012  0.1357 -0.0384 -0.5053
   12MOL    C50 5352   1.740   8.248   5.921  0.0916  0.5101 -0.9531
   12MOL    C51 5353   1.645   8.340   5.883 -0.7381  0.1251 -0.5661
   12MOL    C52 5354   1.512   8.313   5.914  0.4686 -0.1406 -0.6238
   12MOL    C53 5355   1.475   8.183   5.971 -0.6604 -0.3067 -0.0304
   12MOL    C54 5356   1.576   8.087   6.003 -0.0370  0.4698 -0.3926
   12MOL    C55 5357   1.705   8.122   5.975 -0.3913  0.1677  0.4956
   12MOL    S56 5358   1.386   0.006   5.869 -0.3014  0.1389  0.0159
   12MOL    O57 5359   1.276   8.414   5.969  0.4287 -0.0118 -0.4376
   12MOL    O58 5360   1.352   8.395   5.728 -0.1628  0.1772 -0.0367
   12MOL    C59 5361   1.447   0.173   5.880  0.4605  0.0074  0.0454
   12MOL    C60 5362   1.531   0.223   5.778 -1.1817  0.3415  0.1516
   12MOL    C61 5363   1.598   0.341   5.802 -0.4965  0.8823  0.2034
   12MOL    C62 5364   1.581   0.419   5.913  0.1310  0.1722 -0.3980
   12MOL    C63 5365   1.476   0.384   6.000 -0.8581 -0.7140  0.5832
   12MOL    C64 5366   1.405   0.260   5.980  0.2249  0.5008 -1.1345
   12MOL    O65 5367   1.663   0.522   5.942 -0.0935 -0.1212  0.4893
   12MOL    H66 5368   1.844   8.272   5.903 -0.2300  0.6473 -2.7098
   12MOL    H67 5369   1.675   0.012   5.847  0.9919  0.8960  2.7435
   12MOL    H68 5370   1.376   8.158   6.006  0.0643 -1.0826  1.5189
   12MOL    H69 5371   1.545   7.988   6.035 -0.7524  0.6142 -0.6338
   12MOL    H70 5372   1.552   0.163   5.691  0.2020 -0.5411  1.0915
   12MOL    H71 5373   1.670   0.371   5.727  1.1339 -0.1829  1.3169
   12MOL    H72 5374   1.459   0.445   6.087  1.7776  1.4649 -0.3580
   12MOL    H73 5375   1.339   0.231   6.061  1.5654 -1.5120 -0.7530
   12MOL    C74 5376   1.741   0.522   6.171  0.0208  0.2904  0.0255
   12MOL    C75 5377   1.849   0.489   6.260  0.2782 -0.0303  0.6463
   12MOL    C76 5378   1.979   0.456   6.207 -0.1665  0.0098 -0.4256
   12MOL    C77 5379   1.996   0.445   6.069  0.3104  0.1427  0.5506
   12MOL    C78 5380   1.885   0.460   5.980 -0.0385  0.3084 -0.5576
   12MOL    C79 5381   1.763   0.497   6.034  0.3013 -0.1314 -0.2789
   12MOL    S80 5382   2.115   0.402   6.318  0.2581 -0.3630  0.1693
   12MOL    O81 5383   2.189   0.298   6.246  0.3364  0.0023  0.0723
   12MOL    O82 5384   2.054   0.357   6.445  0.2650 -0.6550 -0.1793
   12MOL    C83 5385   2.232   0.533   6.348 -0.6315 -0.0735 -0.5237
   12MOL    C84 5386   2.234   0.591   6.476 -0.5630  0.1251 -0.0495
   12MOL    C85 5387   2.335   0.682   6.509 -0.6565 -0.2634  0.4880
   12MOL    C86 5388   2.424   0.724   6.416  0.3097  0.3441  0.1962
   12MOL    C87 5389   2.422   0.664   6.290 -0.1598  0.0187  0.2670
   12MOL    C88 5390   2.335   0.561   6.257  1.0178 -0.3757  0.0186
   12MOL    O89 5391   2.496   0.836   6.447  0.3912  0.5816  0.1340
   12MOL    H90 5392   1.647   0.556   6.214 -0.3230  0.9817 -1.2383
   12MOL    H91 5393   1.825   0.491   6.366  0.1144 -0.4012  0.6195
   12MOL    H92 5394   2.091   0.419   6.024 -0.2124 -2.5298  0.9315
   12MOL    H93 5395   1.890   0.454   5.872  4.4982  1.2382 -0.4906
   12MOL    H94 5396   2.163   0.555   6.549 -0.3958 -0.1241 -0.0101
   12MOL    H95 5397   2.327   0.733   6.604 -0.3934 -0.1313  0.4385
   12MOL    H96 5398   2.491   0.696   6.213 -0.3475 -0.2770 -0.0299
   12MOL    H97 5399   2.343   0.503   6.166  0.4026  1.3087 -1.1154
   12MOL    C98 5400   2.723   0.726   6.460  0.1287 -0.3619  0.6070
   12MOL    C99 5401   2.864   0.737   6.460  0.3804  0.1871 -0.2864
   12MOL   C100 5402   2.912   0.857   6.397  0.6358  0.5849 -0.3091
   12MOL   C101 5403   2.824   0.959   6.352  0.0520  0.3114 -0.1697
   12MOL   C102 5404   2.686   0.941   6.369  0.2155 -0.0709  0.0480
   12MOL   C103 5405   2.631   0.829   6.427 -0.2428  0.4578 -0.1670
   12MOL   S104 5406   3.088   0.885   6.384 -0.0068  0.2513 -0.2063
   12MOL   O105 5407   3.126   0.883   6.241 -0.0950 -0.1580  0.3401
   12MOL   O106 5408   3.159   0.792   6.476 -0.0009  0.1720 -0.3962
   12MOL   C107 5409   3.119   1.049   6.442 -0.0289 -0.4135 -0.3303
   12MOL   C108 5410   3.123   1.148   6.340  0.0730  0.5875  0.0762
   12MOL   C109 5411   3.159   1.281   6.379 -0.1818 -0.6971  0.0221
   12MOL   C110 5412   3.188   1.309   6.519  0.4394  0.0431  0.6032
   12MOL   C111 5413   3.193   1.205   6.613  0.7297  0.1349  0.1070
   12MOL   C112 5414   3.156   1.071   6.579  0.0865 -0.2431  0.2563
   12MOL   O113 5415   3.202   1.439   6.562  0.0086  0.6197  0.0174
   12MOL   H114 5416   2.681   0.639   6.508  2.8324 -1.2432  1.4587
   12MOL   H115 5417   2.934   0.660   6.489 -0.3920 -1.2295 -2.0894
   12MOL   H116 5418   2.858   1.055   6.314 -1.7992  0.5920 -1.1648
   12MOL   H117 5419   2.619   1.024   6.353 -0.6606 -0.8195 -0.1796
   12MOL   H118 5420   3.103   1.127   6.236 -1.5049 -0.8609  0.6569
   12MOL   H119 5421   3.145   1.359   6.307 -0.5262 -1.5137 -0.8022
   12MOL   H120 5422   3.220   1.241   6.711 -0.5386  0.1969  0.4418
   12MOL   H121 5423   3.147   1.004   6.662  0.0679  0.0035  0.4537
   12MOL   C122 5424   3.255   1.640   6.436 -0.9782 -0.0920 -0.1570
   12MOL   C123 5425   3.351   1.720   6.379  0.0196  0.4147  0.3201
   12MOL   C124 5426   3.488   1.689   6.388  0.3678 -0.1723  0.5096
   12MOL   C125 5427   3.529   1.573   6.455  0.5186 -0.2352  0.4935
   12MOL   C126 5428   3.431   1.479   6.499  0.6626 -0.5268  0.3129
   12MOL   C127 5429   3.297   1.518   6.497  0.1065  0.1401  0.4893
   12MOL   S128 5430   3.610   1.805   6.340  0.3099  0.1632 -0.0651
   12MOL   O129 5431   3.716   1.794   6.440 -0.0628  0.2175 -0.5016
   12MOL   O130 5432   3.551   1.940   6.327 -0.4654  0.3487 -0.0752
   12MOL   C131 5433   3.675   1.756   6.182 -0.1131 -0.6633 -0.2858
   12MOL   C132 5434   3.805   1.699   6.171 -0.1074 -0.2102  0.3957
   12MOL   C133 5435   3.849   1.654   6.044 -0.1246 -0.0751 -0.3895
   12MOL   C134 5436   3.764   1.671   5.932  0.0979  0.1189  0.3057
   12MOL   C135 5437   3.636   1.729   5.947  0.3912  0.5995  0.0066
   12MOL   C136 5438   3.594   1.771   6.070 -0.2715 -0.0359  0.0738
   12MOL   O137 5439   3.807   1.633   5.809  0.6099 -0.0346 -0.0162
   12MOL   H138 5440   3.153   1.670   6.449 -0.5641  0.6362  1.4783
   12MOL   H139 5441   3.327   1.818   6.342  1.8610  0.9866  0.6051
   12MOL   H140 5442   3.633   1.545   6.459  1.3779  2.9195  1.4846
   12MOL   H141 5443   3.464   1.388   6.547  2.4518  0.5787  1.2247
   12MOL   H142 5444   3.862   1.672   6.258 -0.8560 -0.8936  0.6879
   12MOL   H143 5445   3.949   1.617   6.034 -0.1751 -0.5823  0.8551
   12MOL   H144 5446   3.575   1.752   5.860  0.7324  4.5648  0.7131
   12MOL   H145 5447   3.494   1.808   6.085  0.0608 -0.0499  2.3656
   12MOL   C146 5448   3.664   1.439   5.821 -0.7534  0.1709 -0.2439
   12MOL   C147 5449   3.629   1.316   5.763  0.5398  0.3272  0.3164
   12MOL   C148 5450   3.686   1.268   5.640  0.0097 -0.6278 -0.9844
   12MOL   C149 5451   3.773   1.355   5.569 -1.0149 -0.7815  0.5301
   12MOL   C150 5452   3.799   1.483   5.622 -0.0560  1.0299 -0.3068
   12MOL   C151 5453   3.757   1.518   5.758 -1.0358  0.2947  0.3826
   12MOL   S152 5454   3.636   1.115   5.583  0.0778 -0.2582  0.3301
   12MOL   O153 5455   3.490   1.119   5.562  0.2541 -0.0999 -0.3636
   12MOL   O154 5456   3.683   1.009   5.667 -0.2701 -0.4599 -0.2723
   12MOL   C155 5457   3.704   1.097   5.425 -0.5076  0.4493  0.8053
   12MOL   C156 5458   3.629   1.112   5.303  0.1448  0.1962 -0.1608
   12MOL   C157 5459   3.683   1.068   5.181 -0.1946  0.2642  0.2734
   12MOL   C158 5460   3.814   1.011   5.175  0.0763 -0.2933 -0.2132
   12MOL   C159 5461   3.878   0.988   5.299 -0.2435 -0.5070  0.8090
   12MOL   C160 5462   3.833   1.035   5.421 -0.5237 -0.8928  0.5852
   12MOL   O161 5463   3.864   0.975   5.050 -0.8521  0.2128 -0.1842
   12MOL   H162 5464   3.628   1.459   5.921  0.2938  1.8556 -0.1956
   12MOL   H163 5465   3.567   1.254   5.826  0.8240  0.3128  0.5816
   12MOL   H164 5466   3.813   1.332   5.471  0.9433 -0.9103  1.3258
   12MOL   H165 5467   3.864   1.558   5.578  2.0332 -0.0970  0.7569
   12MOL   H166 5468   3.529   1.150   5.310 -1.0373 -2.4302 -2.0630
   12MOL   H167 5469   3.628   1.075   5.088 -2.3962 -1.0231  1.4516
   12MOL   H168 5470   3.973   0.936   5.297 -1.2638 -2.4488  1.1091
   12MOL   H169 5471   3.891   1.025   5.511  2.7050 -0.6337 -1.3758
   12MOL   C170 5472   3.883   0.736   5.079  0.1830  0.9642 -0.2947
   12MOL   C171 5473   3.956   0.618   5.067 -1.0657 -0.7057 -0.3088
   12MOL   C172 5474   4.083   0.617   5.006  0.4652 -0.1943  0.4280
   12MOL   C173 5475   4.141   0.741   4.982 -0.1906 -0.2355  0.4700
   12MOL   C174 5476   4.069   0.865   5.001  0.5252  0.3113 -0.1486
   12MOL   C175 5477   3.938   0.861   5.045 -0.2087  0.2755  0.3775
   12MOL   S176 5478   4.169   0.467   4.973 -0.2710  0.3804  0.3013
   12MOL   O177 5479   4.308   0.515   4.942  0.5920 -0.2443  0.0086
   12MOL   O178 5480   4.088   0.403   4.871 -0.1483  0.3889  0.3208
   12MOL   C179 5481   4.185   0.367   5.114  0.0853  0.6342 -0.0667
   12MOL   C180 5482   4.094   0.260   5.143  0.0266 -0.0139  0.7606
   12MOL   C181 5483   4.130   0.173   5.244 -0.0521 -0.5807  0.0762
   12MOL   C182 5484   4.245   0.185   5.326  0.2851  0.1279  0.6971
   12MOL   C183 5485   4.325   0.298   5.306  0.2105  0.2279  0.0999
   12MOL   C184 5486   4.300   0.380   5.193 -0.7037 -0.2044  0.2397
   12MOL   O185 5487   4.262   0.109   5.434 -0.5210 -0.0419 -0.0486
   12MOL   H186 5488   3.779   0.734   5.109 -0.0513  0.5427 -1.1143
   12MOL   H187 5489   3.919   0.518   5.079  0.5132 -1.2670  0.0199
   12MOL   H188 5490   4.237   0.745   4.932  0.1399  1.4374  1.2121
   12MOL   H189 5491   4.114   0.962   4.983  1.0715  0.1721  0.4383
   12MOL   H190 5492   4.007   0.242   5.082  1.0862  0.4962 -0.9080
   12MOL   H191 5493   4.062   0.094   5.272  0.0356 -0.7334 -0.1385
   12MOL   H192 5494   4.412   0.313   5.368  0.5800 -0.9353 -0.1321
   12MOL   H193 5495   4.369   0.462   5.177 -0.2798 -0.3905  1.0908
   12MOL   C194 5496   4.366   8.339   5.536 -0.2083  0.7372 -0.0809
   12MOL   C195 5497   4.457   8.232   5.529 -0.4694 -0.5840 -0.0777
   12MOL   C196 5498   4.542   8.213   5.417 -0.4603  0.4122  0.0759
   12MOL   C197 5499   4.534   8.303   5.310  0.2991 -1.0019  0.1010
   12MOL   C198 5500   4.441   8.410   5.314  0.3287  0.0248  0.2727
   12MOL   C199 5501   4.364   0.006   5.433 -0.1297 -0.1801 -0.2239
   12MOL   S200 5502   4.649   8.079   5.419  0.6787  0.2650  0.1739
   12MOL   O201 5503   4.678   8.048   5.562  0.2010 -0.0573  0.0157
   12MOL   O202 5504   4.763   8.115   5.334 -0.1159 -0.4465 -0.0613
   12MOL   C203 5505   4.572   7.940   5.338 -0.3570 -0.1087 -0.7697
   12MOL   C204 5506   4.520   7.966   5.209  0.5185 -0.4433 -0.7587
   12MOL   C205 5507   4.454   7.868   5.131  0.2205 -0.5487  0.0462
   12MOL   C206 5508   4.431   7.745   5.192 -0.0116 -0.0189 -0.0169
   12MOL   C207 5509   4.489   7.713   5.318  0.2608 -0.2129 -0.5276
   12MOL   C208 5510   4.560   7.811   5.394 -0.8176 -0.3170  0.1237
   12MOL   O209 5511   4.351   7.651   5.130 -0.3403 -0.1597 -0.8187
   12MOL   H210 5512   4.308   8.342   5.627 -1.0679 -1.2244 -0.5183
   12MOL   H211 5513   4.459   8.174   5.620 -0.9107 -0.9848 -0.3146
   12MOL   H212 5514   4.592   8.287   5.220  1.9412 -2.8938  1.4857
   12MOL   H213 5515   4.436   0.051   5.229  0.4073 -2.3108 -1.5950
   12MOL   H214 5516   4.534   8.064   5.165 -2.0592  0.5677  0.5385
   12MOL   H215 5517   4.408   7.883   5.034 -1.7588  2.1951  1.3582
   12MOL   H216 5518   4.467   7.617   5.362 -0.4094  0.0355 -0.3216
   12MOL   H217 5519   4.587   7.801   5.498 -3.5178  2.1895  1.1225
   12MOL   C218 5520   4.120   7.674   5.214  0.3975  0.1036  0.3513
   12MOL   C219 5521   4.012   7.605   5.271  0.0369  0.6684  0.6442
   12MOL   C220 5522   4.002   7.467   5.294 -0.0143  0.4857  0.1631
   12MOL   C221 5523   4.124   7.396   5.269  0.0088 -0.2748 -0.3178
   12MOL   C222 5524   4.239   7.456   5.220  0.1760 -0.1879  0.0094
   12MOL   C223 5525   4.238   7.598   5.189 -0.2769  0.1090 -0.3145
   12MOL   S224 5526   3.856   7.387   5.355 -0.0635  0.1400 -0.1282
   12MOL   O225 5527   3.863   7.397   5.502 -0.2304  0.5149  0.2081
   12MOL   O226 5528   3.841   7.254   5.288 -0.0065 -0.3202  0.1430
   12MOL   C227 5529   3.714   7.482   5.297  0.1671 -0.8339  0.0229
   12MOL   C228 5530   3.669   7.606   5.354  0.2329 -0.2248 -0.6755
   12MOL   C229 5531   3.541   7.666   5.323  0.8566  0.1944  0.4033
   12MOL   C230 5532   3.473   7.618   5.207 -0.3726 -0.4003 -0.2222
   12MOL   C231 5533   3.520   7.506   5.140 -0.1591  1.3472  0.1675
   12MOL   C232 5534   3.637   7.437   5.189 -0.5566  0.3158  0.1346
   12MOL   O233 5535   3.368   7.689   5.149 -0.1275  0.2429 -0.0533
   12MOL   H234 5536   4.099   7.779   5.204 -1.8860 -0.4203 -0.5999
   12MOL   H235 5537   3.926   7.660   5.307  1.0032  1.1621  2.2415
   12MOL   H236 5538   4.127   7.293   5.300 -1.8228 -0.2433 -0.0015
   12MOL   H237 5539   4.326   7.393   5.205  0.0532 -0.2007 -0.6525
   12MOL   H238 5540   3.739   7.653   5.422 -1.2309 -1.1952  1.5880
   12MOL   H239 5541   3.505   7.753   5.374  0.1512 -0.5032  1.1161
   12MOL   H240 5542   3.468   7.473   5.052  1.1987  0.3618 -0.2820
   12MOL   H241 5543   3.670   7.353   5.129  1.9206  1.5141 -0.2300
   12MOL   C242 5544   3.411   7.919   5.099  0.1407 -0.2994  0.4994
   12MOL   C243 5545   3.471   8.010   5.008 -0.5753  0.3687 -0.2225
   12MOL   C244 5546   3.517   7.968   4.879  0.1967  0.1133  0.0508
   12MOL   C245 5547   3.501   7.838   4.838  0.0889  0.2146  0.4373
   12MOL   C246 5548   3.443   7.738   4.928 -0.9228 -0.0630 -0.4876
   12MOL   C247 5549   3.408   7.782   5.061  0.1047  0.0962  0.0340
   12MOL   S248 5550   3.581   8.087   4.764 -0.2149  0.1879  0.0194
   12MOL   O249 5551   3.698   8.022   4.698  0.0010 -0.3424  0.1877
   12MOL   O250 5552   3.602   8.211   4.838  0.1184 -0.1516 -0.4590
   12MOL   C251 5553   3.476   8.127   4.624  0.1464  0.6717  0.0360
   12MOL   C252 5554   3.379   8.036   4.573  0.9270  0.0524  0.3010
   12MOL   C253 5555   3.287   8.078   4.474 -0.0456  0.4967  0.3723
   12MOL   C254 5556   3.289   8.209   4.432 -0.0619  0.2936 -0.4840
   12MOL   C255 5557   3.393   8.295   4.472  0.1814 -0.0885 -0.2856
   12MOL   C256 5558   3.487   8.254   4.568  0.0928 -0.0331 -0.7606
   12MOL   O257 5559   3.199   8.248   4.341  0.3451  0.2219  0.2979
   12MOL   H258 5560   3.374   7.940   5.198  0.9740 -1.5396  1.0784
   12MOL   H259 5561   3.479   8.112   5.043 -1.4163  1.0571 -2.0046
   12MOL   H260 5562   3.535   7.808   4.739 -1.4416  0.1936 -0.0965
   12MOL   H261 5563   3.426   7.641   4.884 -1.8655  0.7798 -2.0040
   12MOL   H262 5564   3.354   7.942   4.620  5.0109 -1.1501  0.2627
   12MOL   H263 5565   3.206   8.013   4.445  0.9971 -1.3248  1.4611
   12MOL   H264 5566   3.391   8.399   4.440  1.3464  0.1632  0.4298
   12MOL   H265 5567   3.568   8.315   4.603  0.2355 -1.1240  0.8587
   12MOL   C266 5568   2.958   8.253   4.395 -0.1772 -0.3292 -0.6998
   12MOL   C267 5569   2.843   8.319   4.447  0.8695  0.1237 -0.3322
   12MOL   C268 5570   2.866   0.022   4.513 -0.0627 -0.1730  0.4912
   12MOL   C269 5571   2.993   0.082   4.509  0.0805  0.0471 -0.4692
   12MOL   C270 5572   3.102   0.010   4.457 -0.3584 -0.1984  0.4140
   12MOL   C271 5573   3.089   8.310   4.396  1.3789  0.6339  0.3461
   12MOL   S272 5574   2.731   0.097   4.608 -0.3541  0.1581 -0.1322
   12MOL   O273 5575   2.790   0.206   4.683 -0.0379  0.6619  0.6442
   12MOL   O274 5576   2.658   8.414   4.678  0.1757  0.3913 -1.0837
   12MOL   C275 5577   2.623   0.153   4.478  0.1939 -0.5474 -0.5578
   12MOL   C276 5578   2.525   0.064   4.429 -0.2504 -0.0101 -0.4049
   12MOL   C277 5579   2.438   0.103   4.328  0.0089  0.3737  0.4314
   12MOL   C278 5580   2.445   0.235   4.271 -0.7062  0.6426 -0.4156
   12MOL   C279 5581   2.552   0.319   4.308  0.7633 -0.3079  0.2344
   12MOL   C280 5582   2.637   0.276   4.404  0.0821  0.7560  0.2772
   12MOL   O281 5583   2.355   0.280   4.180  0.4637 -0.1240 -0.2681
   12MOL   H282 5584   2.935   8.154   4.359 -0.6691 -1.2859  2.1436
   12MOL   H283 5585   2.745   8.274   4.441  1.1161 -0.3312 -0.9069
   12MOL   H284 5586   2.999   0.186   4.539  0.8148 -1.0581  3.3511
   12MOL   H285 5587   3.197   0.061   4.460 -0.1165 -0.7309  2.3410
   12MOL   H286 5588   2.522   8.387   4.464  0.0275 -0.3648 -1.4067
   12MOL   H287 5589   2.360   0.040   4.287  0.6535  0.2516 -0.6213
   12MOL   H288 5590   2.555   0.418   4.266  0.3006  0.2324  1.4491
   12MOL   H289 5591   2.708   0.346   4.445  0.4730  0.4841  0.0639
   12MOL   C290 5592   2.148   0.386   4.132 -0.7941 -0.0751 -0.3456
   12MOL   C291 5593   2.013   0.417   4.168  0.0475  0.0079 -0.1657
   12MOL   C292 5594   1.964   0.384   4.293 -0.2662  0.4381 -0.1182
   12MOL   C293 5595   2.046   0.325   4.389 -0.0800 -0.2131 -0.0794
   12MOL   C294 5596   2.183   0.291   4.354 -0.4192  0.2830  0.3825
   12MOL   C295 5597   2.230   0.318   4.223 -0.0344  0.6517 -0.2389
   12MOL   S296 5598   1.792   0.412   4.334  0.2140 -0.2490  0.4905
   12MOL   O297 5599   1.748   0.533   4.258 -0.6290  0.9145  0.3898
   12MOL   O298 5600   1.776   0.407   4.481  0.0449 -0.2979  0.0722
   12MOL   C299 5601   1.699   0.275   4.274 -0.6083  0.7205 -0.2985
   12MOL   C300 5602   1.761   0.190   4.185  0.1794 -0.3340  0.1728
   12MOL   C301 5603   1.694   0.074   4.134 -0.4782  0.5282 -0.4489
   12MOL   C302 5604   1.561   0.051   4.177  0.4506 -0.9308 -0.0761
   12MOL   C303 5605   1.502   0.133   4.268  0.7827 -0.1272  0.3110
   12MOL   C304 5606   1.569   0.251   4.319 -0.3628  0.0232  0.7810
   12MOL   O305 5607   1.488   8.373   4.135 -0.1581  0.1106  0.1972
   12MOL   H306 5608   2.178   0.398   4.029  0.4388 -1.0047 -0.1064
   12MOL   H307 5609   1.947   0.469   4.100  0.7638 -0.8350 -1.5406
   12MOL   H308 5610   1.998   0.304   4.484  0.8950 -1.0882  0.2300
   12MOL   H309 5611   2.238   0.232   4.426  1.4001  1.2354 -0.1917
   12MOL   H310 5612   1.862   0.204   4.150  1.3175 -4.3626  1.5252
   12MOL   H311 5613   1.748   8.423   4.080 -0.2379 -1.0526  1.9205
   12MOL   H312 5614   1.399   0.117   4.298  0.7862  1.4415  1.2427
   12MOL   H313 5615   1.514   0.309   4.393  0.9774  1.2161  0.8624
   12MOL   C314 5616   1.598   8.185   4.226 -0.1675 -0.4202  0.8808
   12MOL   C315 5617   1.598   8.073   4.312 -0.1406 -0.0139 -0.1790
   12MOL   C316 5618   1.482   8.022   4.363 -0.0205 -0.1010 -1.2777
   12MOL   C317 5619   1.364   8.093   4.340 -0.4824 -0.6187  0.4448
   12MOL   C318 5620   1.363   8.211   4.254 -0.0697 -0.3412  0.1061
   12MOL   C319 5621   1.486   8.259   4.206  0.3123 -0.4359  0.6309
   12MOL   S320 5622   1.479   7.878   4.466  0.0044  0.0151  0.0112
   12MOL   O321 5623   1.556   7.775   4.400 -0.3642  0.3851  0.2966
   12MOL   O322 5624   1.341   7.841   4.514 -0.4304  0.6454 -0.0067
   12MOL   C323 5625   1.579   7.937   4.605 -0.0500  0.0770  0.5226
   12MOL   C324 5626   1.567   8.068   4.660 -0.5345  0.3252  0.4661
   12MOL   C325 5627   1.649   8.107   4.769  0.1255 -0.5126 -0.2092
   12MOL   C326 5628   1.752   8.018   4.805  0.6695  0.5115 -0.5473
   12MOL   C327 5629   1.762   7.891   4.749  0.1902 -0.2980  0.1316
   12MOL   C328 5630   1.669   7.844   4.649  0.4198  0.2297 -0.0962
   12MOL   O329 5631   1.844   8.055   4.903  0.8862  0.0518 -0.4225
   12MOL   H330 5632   1.688   8.214   4.174 -0.4208 -2.1689 -0.5719
   12MOL   H331 5633   1.690   8.018   4.328 -1.8930 -2.2167  2.9402
   12MOL   H332 5634   1.266   8.053   4.362 -0.7683 -1.3076 -1.9114
   12MOL   H333 5635   1.274   8.272   4.244 -0.0972  0.0551  2.3225
   12MOL   H334 5636   1.494   8.140   4.626 -1.5074 -0.2159  1.3874
   12MOL   H335 5637   1.645   8.206   4.811  1.6316 -2.1190  3.9438
   12MOL   H336 5638   1.849   7.833   4.777 -0.1544 -1.0509 -0.3425
   12MOL   H337 5639   1.678   7.745   4.605 -1.9637  0.4867 -1.2285
   12MOL   C338 5640   1.969   8.257   4.945 -0.2653 -0.0429  0.1587
   12MOL   C339 5641   2.075   8.345   4.914  0.2898 -0.4874 -0.2011
   12MOL   C340 5642   2.168   8.304   4.814  0.2492 -0.3923 -0.1705
   12MOL   C341 5643   2.161   8.177   4.757 -0.1049  0.0378 -0.1547
   12MOL   C342 5644   2.054   8.092   4.785 -0.1793 -0.6546  0.1176
   12MOL   C343 5645   1.948   8.137   4.872  0.2260 -0.6344  0.4557
   12MOL   S344 5646   2.295   8.413   4.761  0.0907 -0.3310  0.2133
   12MOL   O345 5647   2.232   0.120   4.731  0.2734  0.0547 -0.5614
   12MOL   O346 5648   2.372   8.344   4.655  0.1074 -0.9406 -0.6173
   12MOL   C347 5649   2.404   8.425   4.912 -1.1504 -0.3556 -0.2247
   12MOL   C348 5650   2.489   8.318   4.948 -0.0029  0.6180  0.4298
   12MOL   C349 5651   2.572   8.321   5.056  0.0246  0.4320 -0.8067
   12MOL   C350 5652   2.579   0.003   5.138  0.5637  0.5032 -0.0815
   12MOL   C351 5653   2.496   0.116   5.106 -0.0587 -0.1137  0.7401
   12MOL   C352 5654   2.403   0.113   4.996 -0.3235  0.4881  0.7676
   12MOL   O353 5655   2.648   8.423   5.254 -0.0727 -0.1714 -0.5641
   12MOL   H354 5656   1.901   8.279   5.025  1.5339  1.1795  1.4030
   12MOL   H355 5657   2.095   0.021   4.945 -2.5771  0.5989 -1.7800
   12MOL   H356 5658   2.248   8.163   4.695  1.4690 -0.1347  2.0348
   12MOL   H357 5659   2.052   7.992   4.746  1.3849  0.0316 -1.8029
   12MOL   H358 5660   2.479   8.233   4.881 -2.6192 -0.6474  2.3318
   12MOL   H359 5661   2.649   8.250   5.081 -0.9558 -0.2053  0.4446
   12MOL   H360 5662   2.499   0.203   5.170  0.2002  0.1014  0.4325
   12MOL   H361 5663   2.336   0.194   4.969  0.4633  1.0354  0.4292
   12MOL   C362 5664   2.752   0.127   5.427  0.2754 -0.6830 -0.3611
   12MOL   C363 5665   2.832   0.236   5.460  0.2393 -0.4465 -0.0334
   12MOL   C364 5666   2.900   0.308   5.359  0.1604 -0.2913 -0.1519
   12MOL   C365 5667   2.903   0.268   5.228 -0.4906 -0.2751 -0.5094
   12MOL   C366 5668   2.812   0.170   5.188 -0.1085 -0.5399 -0.3607
   12MOL   C367 5669   2.736   0.099   5.284 -0.2478  0.9184  0.5502
   12MOL   S368 5670   3.000   0.440   5.404  0.1964 -0.2639  0.0151
   12MOL   O369 5671   3.139   0.407   5.368 -0.0030  0.5915 -0.7537
   12MOL   O370 5672   2.986   0.490   5.544 -0.0446  0.2167 -0.1825
   12MOL   C371 5673   2.963   0.586   5.297 -0.0565  0.4428  1.1066
   12MOL   C372 5674   2.853   0.590   5.207 -0.7511  0.2527 -0.3157
   12MOL   C373 5675   2.819   0.712   5.134  0.3736  0.0112  0.3753
   12MOL   C374 5676   2.904   0.826   5.158 -0.7897 -0.1037 -0.0828
   12MOL   C375 5677   3.015   0.818   5.244  0.4281 -0.9247  0.2984
   12MOL   C376 5678   3.042   0.698   5.320  0.0142  0.4458 -0.2374
   12MOL   O377 5679   2.883   0.944   5.087 -0.3046 -0.3705 -0.1017
   12MOL   H378 5680   2.699   0.066   5.500 -0.4662  2.0852  1.4818
   12MOL   H379 5681   2.835   0.282   5.557  0.6221 -1.1939  0.3107
   12MOL   H380 5682   2.966   0.324   5.161  0.0617  1.1694  1.1571
   12MOL   H381 5683   2.801   0.141   5.085  0.9513 -1.4516 -0.2243
   12MOL   H382 5684   2.796   0.501   5.186  0.6641 -0.9385  0.8248
   12MOL   H383 5685   2.731   0.714   5.072  0.6211  2.2985  0.0444
   12MOL   H384 5686   3.076   0.903   5.270 -2.6810  1.1899  0.9485
   12MOL   H385 5687   3.124   0.699   5.390 -0.5800  0.5251  0.4666
   12MOL   C386 5688   2.879   0.905   4.856 -0.1999 -0.3518 -0.4934
   12MOL   C387 5689   2.929   0.924   4.730 -0.0657 -0.0368  0.5431
   12MOL   C388 5690   3.060   0.972   4.711  0.4991  0.1606  0.1414
   12MOL   C389 5691   3.135   1.007   4.827 -0.5400 -0.3636  0.0877
   12MOL   C390 5692   3.081   1.004   4.955  0.2777 -0.3973  0.1853
   12MOL   C391 5693   2.949   0.953   4.965  0.6856 -0.3197 -0.1997
   12MOL   S392 5694   3.129   0.962   4.549  0.2517 -0.3658 -0.1660
   12MOL   O393 5695   3.068   0.846   4.475 -0.0205  0.0731 -1.0183
   12MOL   O394 5696   3.272   0.962   4.567 -0.1466 -0.4684  0.5480
   12MOL   C395 5697   3.087   1.113   4.477  0.7665  0.3995  0.2833
   12MOL   C396 5698   3.171   1.152   4.372 -0.6857  0.5495 -0.1055
   12MOL   C397 5699   3.141   1.273   4.300 -0.3790  0.2238 -0.0598
   12MOL   C398 5700   3.025   1.345   4.335  0.6121  0.0664 -0.5719
   12MOL   C399 5701   2.935   1.300   4.434  0.1642 -0.4953 -0.1700
   12MOL   C400 5702   2.972   1.186   4.511  0.3689  0.4732 -0.7156
   12MOL   O401 5703   3.005   1.467   4.280  0.5801  0.3576  0.1116
   12MOL   H402 5704   2.780   0.867   4.879 -0.1491  0.1033  0.5239
   12MOL   H403 5705   2.874   0.884   4.646  0.3861 -2.8305  1.5085
   12MOL   H404 5706   3.235   1.042   4.808  0.0746 -1.2011  1.6428
   12MOL   H405 5707   3.130   1.036   5.046 -0.1401 -1.4615  0.7879
   12MOL   H406 5708   3.257   1.095   4.340 -1.9733 -1.5351  0.0954
   12MOL   H407 5709   3.215   1.304   4.228 -0.2824 -0.8885 -0.4476
   12MOL   H408 5710   2.850   1.363   4.456  0.0233 -1.7283  3.0338
   12MOL   H409 5711   2.921   1.160   4.603  0.6320 -1.6463 -1.1272
   12MOL   C410 5712   3.109   1.489   4.062  0.0062  0.4145 -0.2754
   12MOL   C411 5713   3.098   1.507   3.926 -0.3164  0.2704  0.0973
   12MOL   C412 5714   2.972   1.500   3.862  1.0798 -0.3026 -1.0672
   12MOL   C413 5715   2.857   1.475   3.941 -0.5597  0.7854  0.0776
   12MOL   C414 5716   2.873   1.474   4.085  0.2005 -0.1577  0.8100
   12MOL   C415 5717   2.999   1.471   4.145  0.6831 -0.3774  0.5005
   12MOL   S416 5718   2.970   1.520   3.687 -0.2898 -0.0977  0.3452
   12MOL   O417 5719   3.100   1.469   3.649 -0.4207  0.0346 -0.4405
   12MOL   O418 5720   2.944   1.665   3.669  0.4075  0.2399  0.4658
   12MOL   C419 5721   2.839   1.420   3.635 -0.4407 -0.2142  0.1003
   12MOL   C420 5722   2.738   1.478   3.555  0.5720 -0.2857 -0.5036
   12MOL   C421 5723   2.624   1.404   3.518 -0.4718  0.6444  0.0380
   12MOL   C422 5724   2.620   1.262   3.550  0.0263  0.2623 -0.5869
   12MOL   C423 5725   2.725   1.202   3.618 -0.6637  0.0838  0.1929
   12MOL   C424 5726   2.826   1.283   3.665 -0.7244  0.0568 -0.1910
   12MOL   O425 5727   2.535   1.179   3.497 -0.3836 -0.5878  0.4489
   12MOL   H426 5728   3.207   1.477   4.107 -0.3853  0.1512  0.5126
   12MOL   H427 5729   3.186   1.518   3.865  0.5141 -1.6732  0.9172
   12MOL   H428 5730   2.762   1.472   3.890 -0.5854  2.1398  0.0104
   12MOL   H429 5731   2.787   1.460   4.148  0.2423 -0.4577  0.8029
   12MOL   H430 5732   2.750   1.579   3.519 -0.8743  0.1881  0.2955
   12MOL   H431 5733   2.557   1.449   3.446 -1.7809 -1.9819 -0.4369
   12MOL   H432 5734   2.716   1.095   3.629  0.5290  0.0268  0.6204
   12MOL   H433 5735   2.904   1.232   3.719 -0.0119  0.8716 -0.4382
   12MOL   C434 5736   2.336   1.254   3.606  0.4643 -0.2244 -0.7544
   12MOL   C435 5737   2.205   1.305   3.606  0.7752  0.4583  0.9096
   12MOL   C436 5738   2.142   1.330   3.485 -0.0769  0.7307  0.3565
   12MOL   C437 5739   2.204   1.304   3.362  0.2885  0.2053  0.4079
   12MOL   C438 5740   2.338   1.256   3.367 -0.1414  0.3144 -0.1438
   12MOL   C439 5741   2.406   1.234   3.490 -0.3541 -0.1668 -0.1819
   12MOL   S440 5742   1.986   1.413   3.488  0.7542  0.0911  0.3470
   12MOL   O441 5743   1.950   1.447   3.628 -0.5227  0.2960  0.1617
   12MOL   O442 5744   1.892   1.336   3.404  0.2557  0.7686 -0.4324
   12MOL   C443 5745   2.018   1.565   3.401 -0.9053 -0.0673 -0.2754
   12MOL   C444 5746   2.048   1.682   3.474  0.0157 -0.1823 -0.2098
   12MOL   C445 5747   2.067   1.794   3.401 -0.4730 -0.7687 -0.0023
   12MOL   C446 5748   2.054   1.809   3.263 -0.3244 -0.0580 -0.4139
   12MOL   C447 5749   2.016   1.694   3.188  0.1803 -0.6094 -0.6347
   12MOL   C448 5750   2.001   1.572   3.259 -0.0485  0.3173 -0.8185
   12MOL   O449 5751   2.067   1.928   3.196  0.1644  0.0187 -0.4588
   12MOL   H450 5752   2.379   1.232   3.703 -1.6222 -1.6430 -0.1015
   12MOL   H451 5753   2.171   1.338   3.702  0.6260  1.2666  0.5881
   12MOL   H452 5754   2.147   1.319   3.271  2.4695  0.1254 -1.0270
   12MOL   H453 5755   2.385   1.243   3.271  0.9398  0.0464  0.4155
   12MOL   H454 5756   2.030   1.681   3.580 -0.8632  1.0590 -0.3364
   12MOL   H455 5757   2.092   1.880   3.463  0.8022 -0.6671 -0.6315
   12MOL   H456 5758   2.005   1.708   3.082  3.8365  0.9805 -0.8947
   12MOL   H457 5759   1.976   1.485   3.200  0.0270 -0.2694  0.0132
   12MOL   C458 5760   1.867   2.009   3.097 -0.2976  0.5204 -0.4930
   12MOL   C459 5761   1.768   2.106   3.102 -0.4712  0.0713  0.2903
   12MOL   C460 5762   1.751   2.196   3.214  0.3273  0.2827 -0.4614
   12MOL   C461 5763   1.854   2.202   3.309  1.3753 -0.0565  0.2312
   12MOL   C462 5764   1.963   2.113   3.303 -0.7847  0.7673  0.3143
   12MOL   C463 5765   1.963   2.014   3.203  0.4201 -0.8925 -0.2124
   12MOL   S464 5766   1.597   2.287   3.222 -0.0871 -0.3229 -0.0181
   12MOL   O465 5767   1.493   2.181   3.226  0.2550  0.2784  0.0120
   12MOL   O466 5768   1.608   2.390   3.119 -0.3708  0.1869 -0.1609
   12MOL   C467 5769   1.597   2.366   3.383 -0.9549 -0.0261 -0.4543
   12MOL   C468 5770   1.570   2.289   3.492 -0.3810  0.2943 -0.2887
   12MOL   C469 5771   1.565   2.347   3.617  0.6902 -0.6836  0.1387
   12MOL   C470 5772   1.594   2.485   3.634 -0.2057 -0.5179 -0.0688
   12MOL   C471 5773   1.620   2.560   3.521 -0.7163 -0.0471  0.0482
   12MOL   C472 5774   1.616   2.501   3.395  0.1269 -0.1590  0.7264
   12MOL   O473 5775   1.602   2.532   3.758 -0.6366  0.4223 -0.1875
   12MOL   H474 5776   1.878   1.940   3.014 -0.3250  1.8825 -1.6514
   12MOL   H475 5777   1.694   2.111   3.024  1.5824  1.9991 -1.6252
   12MOL   H476 5778   1.849   2.274   3.389 -0.5220  0.8657 -0.6959
   12MOL   H477 5779   2.039   2.104   3.379 -0.0378  2.3297 -0.2319
   12MOL   H478 5780   1.543   2.185   3.480 -0.4221  0.5028 -2.1236
   12MOL   H479 5781   1.531   2.275   3.690 -0.8510  0.0956  0.2187
   12MOL   H480 5782   1.638   2.666   3.531 -0.7118  0.1145 -1.5434
   12MOL   H481 5783   1.633   2.569   3.313 -1.2901  1.0807  1.4463
   12MOL   H482 5784   1.603   2.626   3.757 -0.8544  0.4194 -0.6702
   13MOL     C1 5785   7.546   3.582   8.127  0.2573 -0.3999  0.0652
   13MOL     C2 5786   7.635   3.537   8.217  0.2195 -0.4648  0.4518
   13MOL     C3 5787   7.598   3.530   8.354 -0.3526 -0.5764  0.2647
   13MOL     C4 5788   7.472   3.567   8.395 -0.3734  0.7390 -0.0130
   13MOL     C5 5789   7.373   3.601   8.294  0.2633 -0.0603 -0.0241
   13MOL     C6 5790   7.416   3.618   8.163 -0.1167 -0.0050  0.3365
   13MOL     S7 5791   7.712   3.463   0.053 -0.0761  0.0711  0.3430
   13MOL     O8 5792   7.799   3.362   8.413  0.2737  0.2393 -0.2884
   13MOL     O9 5793   7.634   3.422   0.168 -0.2226  0.3548  0.1498
   13MOL    C10 5794   7.797   3.617   0.090 -0.9626  0.0505 -0.0433
   13MOL    C11 5795   7.783   3.678   0.214  0.7231  0.1718 -0.1050
   13MOL    C12 5796   7.833   3.805   0.239  0.0519 -0.3384  0.4624
   13MOL    C13 5797   7.903   3.877   0.136  0.5585  0.0390 -0.2464
   13MOL    C14 5798   7.930   3.813   0.016  0.0977  0.4379  0.3809
   13MOL    C15 5799   7.872   3.680   8.416  0.8136 -0.3199  0.1951
   13MOL    O16 5800   7.959   4.002   0.150 -0.1163 -0.5494 -0.7982
   13MOL    H17 5801   7.566   3.585   8.021 -1.0324 -1.3982 -0.2143
   13MOL    H18 5802   7.736   3.508   8.189 -0.4686 -3.5875  0.9930
   13MOL    H19 5803   7.448   3.556   0.075  3.7166 -0.2312  0.9217
   13MOL    H20 5804   7.269   3.607   8.322 -0.0370 -0.4086 -1.0103
   13MOL    H21 5805   7.717   3.627   0.282 -1.4550  0.2156 -2.1453
   13MOL    H22 5806   7.822   3.858   0.332 -2.0693 -2.2926  1.3638
   13MOL    H23 5807   7.984   3.855   8.357 -3.4149  2.6794 -0.8717
   13MOL    H24 5808   7.901   3.626   8.327 -0.9784  2.0718 -1.9396
   13MOL    H25 5809   7.352   3.656   8.085  2.4131  3.3282 -0.1816
   13MOL    C26 5810   7.757   4.131   0.119  0.2261  0.2423 -0.1569
   13MOL    C27 5811   7.679   4.232   0.053  0.3456 -0.1435 -0.6717
   13MOL    C28 5812   7.753   4.343   8.424 -0.2216  0.5021  0.0726
   13MOL    C29 5813   7.890   4.333   8.416  0.2236  0.1136  0.0648
   13MOL    C30 5814   7.959   4.217   0.026 -0.1176 -0.1107  0.3085
   13MOL    C31 5815   7.893   4.115   0.097 -0.4353  0.3109  0.0742
   13MOL    S32 5816   7.662   4.497   8.381 -0.2295 -0.6117 -0.1935
   13MOL    O33 5817   7.649   4.577   0.079  0.1898  0.0482 -0.1680
   13MOL    O34 5818   7.542   4.465   8.305 -0.1948 -0.3284 -0.4532
   13MOL    C35 5819   7.766   4.586   8.258  0.0367 -0.4019  0.4694
   13MOL    C36 5820   7.836   4.704   8.300  0.6898 -0.6453 -0.1093
   13MOL    C37 5821   7.912   4.778   8.205 -0.7703 -1.1148  0.4322
   13MOL    C38 5822   7.921   4.720   8.073 -0.4894 -0.2537 -1.0642
   13MOL    C39 5823   7.851   4.608   8.035  0.1597 -0.0664  0.3982
   13MOL    C40 5824   7.774   4.535   8.125 -0.3696  0.4921  0.5074
   13MOL    O41 5825   7.994   4.794   7.980  0.1815 -0.1411  0.0159
   13MOL    H42 5826   7.705   4.057   0.178 -0.1234  0.0946 -0.6451
   13MOL    H43 5827   7.574   4.253   0.067  0.9955  2.7004  0.1331
   13MOL    H44 5828   7.940   4.413   8.364  0.9769 -0.1458  0.3761
   13MOL    H45 5829   8.064   4.208   0.005 -0.0122  0.5805  0.5312
   13MOL    H46 5830   7.836   4.739   8.402  1.9024  2.3583 -1.0778
   13MOL    H47 5831   7.964   4.868   8.232 -1.7487 -0.2463 -0.5185
   13MOL    H48 5832   7.856   4.568   7.934  0.1613 -0.1384  0.4271
   13MOL    H49 5833   7.726   4.443   8.096 -0.0768  0.2032  0.9327
   13MOL    C50 5834   7.838   4.968   7.915  0.3154  0.2759 -0.4708
   13MOL    C51 5835   7.755   5.031   7.817  0.3759 -0.1975  0.8954
   13MOL    C52 5836   7.758   4.975   7.685  0.0972 -0.0386 -0.1828
   13MOL    C53 5837   7.841   4.867   7.655 -0.1114 -0.5731 -0.6624
   13MOL    C54 5838   7.924   4.809   7.746  0.0241 -0.2672 -0.0814
   13MOL    C55 5839   7.920   4.861   7.882  0.1302 -0.0047 -0.3980
   13MOL    S56 5840   7.649   5.060   7.567 -0.2669 -0.5030  0.4576
   13MOL    O57 5841   7.700   5.200   7.570  0.1841 -0.2779 -0.2767
   13MOL    O58 5842   7.508   5.039   7.594  0.2008 -0.2438  0.3098
   13MOL    C59 5843   7.682   4.985   7.400 -0.4500 -0.0155  0.0181
   13MOL    C60 5844   7.780   5.035   7.314  0.4288  0.1175  0.6345
   13MOL    C61 5845   7.807   4.968   7.192 -0.4221  0.2871  0.4101
   13MOL    C62 5846   7.727   4.858   7.146  0.4592  0.5263  0.2554
   13MOL    C63 5847   7.628   4.813   7.241 -0.4103  0.2624  0.4851
   13MOL    C64 5848   7.607   4.870   7.364  0.1372  0.1473 -0.9368
   13MOL    O65 5849   7.755   4.794   7.025  0.2818 -0.5549 -0.1432
   13MOL    H66 5850   7.823   4.993   8.019  2.4558  1.1044 -0.3252
   13MOL    H67 5851   7.683   5.110   7.834 -1.4169 -2.1127  2.4731
   13MOL    H68 5852   7.839   4.834   7.552 -3.7822 -1.4717 -0.3697
   13MOL    H69 5853   7.991   4.735   7.707 -0.1647 -1.0119  0.9707
   13MOL    H70 5854   7.847   5.116   7.339 -0.7142  1.3484 -0.1824
   13MOL    H71 5855   7.884   5.012   7.132 -0.7670  2.8651  1.8017
   13MOL    H72 5856   7.581   4.718   7.220  1.8175 -0.8854  0.4776
   13MOL    H73 5857   7.546   4.818   7.436  0.3564  0.5906 -0.4199
   13MOL    C74 5858   7.737   4.969   6.872  0.6724 -0.1942 -0.3034
   13MOL    C75 5859   7.670   5.031   6.764  0.7992  0.1379 -0.3283
   13MOL    C76 5860   7.566   4.974   6.702  0.2496  0.0136 -0.2830
   13MOL    C77 5861   7.527   4.845   6.739 -1.0035 -0.6551  0.0506
   13MOL    C78 5862   7.589   4.784   6.849 -0.1029  0.0404  0.0212
   13MOL    C79 5863   7.693   4.846   6.915 -0.4664 -0.6565 -1.2250
   13MOL    S80 5864   7.499   5.049   6.556  0.0212  0.6468  0.3153
   13MOL    O81 5865   7.534   5.187   6.545 -0.1392  0.0022  0.7271
   13MOL    O82 5866   7.356   5.014   6.551  0.0435  0.5488  0.0520
   13MOL    C83 5867   7.580   4.959   6.428 -0.4340 -0.0661 -0.3036
   13MOL    C84 5868   7.504   4.906   6.320 -0.5576  0.1205  0.0895
   13MOL    C85 5869   7.578   4.839   6.221 -0.7579 -0.2430 -0.3637
   13MOL    C86 5870   7.718   4.810   6.239 -0.1140 -0.2149  0.2846
   13MOL    C87 5871   7.791   4.867   6.346  0.3142 -0.7569  0.0789
   13MOL    C88 5872   7.719   4.940   6.443  0.5679 -0.2564 -0.1734
   13MOL    O89 5873   7.780   4.738   6.145 -0.3729  0.4261 -0.0226
   13MOL    H90 5874   7.818   5.027   6.915 -0.2954  1.7131 -1.0177
   13MOL    H91 5875   7.707   5.127   6.731  1.9372  1.1167  3.4698
   13MOL    H92 5876   7.456   4.791   6.679  0.1189 -2.7092  0.5067
   13MOL    H93 5877   7.557   4.682   6.867  0.2920 -0.3585 -1.4915
   13MOL    H94 5878   7.396   4.917   6.318 -0.2588  3.6420  0.3241
   13MOL    H95 5879   7.529   4.798   6.133 -1.5042 -0.5150  0.1700
   13MOL    H96 5880   7.898   4.849   6.344  0.4915  0.3650 -1.4214
   13MOL    H97 5881   7.777   4.982   6.524  0.9410 -0.1335 -0.5029
   13MOL    C98 5882   7.819   4.917   5.984  0.4274  0.7962 -0.5174
   13MOL    C99 5883   7.900   4.970   5.884  0.8541 -0.2357 -0.6254
   13MOL   C100 5884   8.036   4.927   5.873 -0.6581  0.2464  0.1207
   13MOL   C101 5885   8.084   4.826   5.959  0.4559  0.6253  0.0742
   13MOL   C102 5886   7.998   4.766   6.047  0.4898  0.8633 -0.4610
   13MOL   C103 5887   7.869   4.808   6.062  1.0949 -0.3741  0.1326
   13MOL   S104 5888   8.139   5.007   5.746 -0.0440 -0.2464  0.0724
   13MOL   O105 5889   8.233   4.911   5.691  0.6589  0.0064  0.6710
   13MOL   O106 5890   8.200   5.131   5.797  0.1032 -0.4315 -0.3142
   13MOL   C107 5891   8.029   5.047   5.617  0.4529  0.0633 -0.6122
   13MOL   C108 5892   8.005   5.177   5.569 -0.3652  0.5476 -0.2897
   13MOL   C109 5893   7.917   5.193   5.454 -0.0409  0.1848 -0.8215
   13MOL   C110 5894   7.851   5.078   5.400  0.4349 -0.0549 -0.5892
   13MOL   C111 5895   7.877   4.947   5.454  0.8701 -0.6378 -0.1470
   13MOL   C112 5896   7.969   4.931   5.555 -0.3441 -0.2816  0.5806
   13MOL   O113 5897   7.766   5.076   5.292 -0.0758  0.2386  0.0915
   13MOL   H114 5898   7.719   4.955   6.003 -0.3126 -0.9139 -0.8789
   13MOL   H115 5899   7.863   5.048   5.820 -2.1231  0.0287  1.3051
   13MOL   H116 5900   8.185   4.789   5.947  0.0337 -0.9897  1.3026
   13MOL   H117 5901   8.034   4.688   6.113 -0.4644  2.4327  2.0009
   13MOL   H118 5902   8.050   5.263   5.616 -0.4994  0.1916  0.4894
   13MOL   H119 5903   7.920   5.291   5.410  0.6253  1.4066  1.8411
   13MOL   H120 5904   7.837   4.861   5.402  1.2791  0.5391 -2.4529
   13MOL   H121 5905   7.985   4.829   5.588 -2.5349 -0.5840  0.8148
   13MOL   C122 5906   7.584   5.212   5.382 -0.2058  0.5566  0.8290
   13MOL   C123 5907   7.508   5.329   5.370 -0.5183 -0.2049  0.0720
   13MOL   C124 5908   7.525   5.415   5.258  0.7125 -0.4346 -0.6192
   13MOL   C125 5909   7.626   5.393   5.163  0.0999  0.7359 -0.2273
   13MOL   C126 5910   7.703   5.274   5.172  0.3463  0.0362 -0.5266
   13MOL   C127 5911   7.687   5.187   5.281 -0.5047 -0.4661 -0.6376
   13MOL   S128 5912   7.422   5.569   5.238 -0.0421  0.0479  0.0320
   13MOL   O129 5913   7.458   5.636   5.114  0.2252 -0.2124  0.1196
   13MOL   O130 5914   7.449   5.643   5.359  0.4048 -0.1983 -0.3342
   13MOL   C131 5915   7.252   5.519   5.238 -0.1079  0.7812 -0.4649
   13MOL   C132 5916   7.185   5.470   5.354 -0.1195 -0.2139 -0.1055
   13MOL   C133 5917   7.048   5.448   5.349  0.6067  0.1602  0.3796
   13MOL   C134 5918   6.981   5.466   5.224 -0.1702  0.3263  0.6714
   13MOL   C135 5919   7.047   5.508   5.115  0.3586 -0.3520 -0.6613
   13MOL   C136 5920   7.180   5.539   5.122 -0.1366  1.2369 -0.5830
   13MOL   O137 5921   6.847   5.437   5.212 -0.0207 -0.8571 -0.5961
   13MOL   H138 5922   7.578   5.148   5.469 -0.1862 -1.3957 -0.5677
   13MOL   H139 5923   7.433   5.353   5.443 -0.9173 -1.7009  0.1721
   13MOL   H140 5924   7.630   5.462   5.080  0.9696 -1.6223 -2.2267
   13MOL   H141 5925   7.777   5.255   5.096  0.3365  1.4936 -0.9033
   13MOL   H142 5926   7.242   5.461   5.446 -0.8701  0.2425  0.4047
   13MOL   H143 5927   6.989   5.420   5.435 -4.5507  0.3823 -2.8993
   13MOL   H144 5928   7.000   5.522   5.019  0.8205 -1.1074 -1.0001
   13MOL   H145 5929   7.238   5.571   5.037  1.2166 -0.6520 -0.4158
   13MOL   C146 5930   6.913   5.206   5.157 -0.2417  0.2304 -0.1031
   13MOL   C147 5931   6.870   5.087   5.095 -0.0388 -0.8764 -0.2710
   13MOL   C148 5932   6.736   5.070   5.050  0.5337  0.3383 -0.1525
   13MOL   C149 5933   6.643   5.172   5.049 -0.3796 -0.0613  0.1666
   13MOL   C150 5934   6.699   5.297   5.084  0.2111  0.0969 -0.7209
   13MOL   C151 5935   6.820   5.317   5.150 -0.1813 -0.1674  0.1097
   13MOL   S152 5936   6.659   4.905   5.025  0.1136 -0.0163 -0.1490
   13MOL   O153 5937   6.696   4.854   4.893  0.0338  0.5977  0.4979
   13MOL   O154 5938   6.519   4.913   5.066  0.4546  0.8940 -0.1832
   13MOL   C155 5939   6.718   4.793   5.149  0.0278  0.0823  0.0209
   13MOL   C156 5940   6.745   4.662   5.114 -0.2979  0.9938  0.2052
   13MOL   C157 5941   6.776   4.573   5.214 -0.2972 -0.2376  0.1964
   13MOL   C158 5942   6.774   4.610   5.349 -0.1985  0.2717 -0.4325
   13MOL   C159 5943   6.741   4.740   5.379  0.6499  0.3381 -0.1516
   13MOL   C160 5944   6.714   4.833   5.280 -1.2137  0.7190 -0.2028
   13MOL   O161 5945   6.785   4.511   5.447  0.5149 -0.3063  0.2456
   13MOL   H162 5946   7.007   5.220   5.206 -1.1472  2.7757  0.9984
   13MOL   H163 5947   6.936   5.001   5.097  0.9487 -0.1078  0.6823
   13MOL   H164 5948   6.536   5.174   5.030 -0.5881 -0.1179  1.2861
   13MOL   H165 5949   6.623   5.373   5.080  0.1018  0.1120  1.1747
   13MOL   H166 5950   6.735   4.632   5.011 -1.7195 -0.2977  0.6879
   13MOL   H167 5951   6.796   4.474   5.177 -2.6355  0.1461 -2.2622
   13MOL   H168 5952   6.722   4.764   5.482 -2.0975 -1.2534 -0.2597
   13MOL   H169 5953   6.699   4.937   5.306 -0.1087  0.8340  0.0140
   13MOL   C170 5954   6.629   4.345   5.387 -0.5256  0.6566 -0.0153
   13MOL   C171 5955   6.498   4.286   5.409 -0.4264 -0.3236  0.1298
   13MOL   C172 5956   6.418   4.329   5.517 -0.0669 -0.1063 -0.7767
   13MOL   C173 5957   6.463   4.424   5.607 -0.5385 -0.0068  0.4001
   13MOL   C174 5958   6.586   4.488   5.583 -0.7497  0.6644  0.2224
   13MOL   C175 5959   6.667   4.451   5.472  0.7526  0.1912  0.3623
   13MOL   S176 5960   6.257   4.258   5.537 -0.0409 -0.0413 -0.0540
   13MOL   O177 5961   6.222   4.241   5.677  0.2085 -0.0964 -0.5988
   13MOL   O178 5962   6.247   4.139   5.449 -0.5610  0.1772 -0.5258
   13MOL   C179 5963   6.144   4.380   5.475 -0.0569  0.4445  0.5672
   13MOL   C180 5964   6.024   4.401   5.545 -0.1172 -0.1760  0.5195
   13MOL   C181 5965   5.921   4.476   5.479 -0.1652 -0.2004 -0.6821
   13MOL   C182 5966   5.944   4.535   5.353  0.1100 -0.6912  0.0471
   13MOL   C183 5967   6.078   4.549   5.306 -0.5542 -0.1041 -0.1684
   13MOL   C184 5968   6.176   4.462   5.366 -0.0096 -0.4285 -0.5086
   13MOL   O185 5969   5.845   4.584   5.276  0.5116  0.2314 -0.6656
   13MOL   H186 5970   6.689   4.317   5.303  0.3863 -1.1855  1.2050
   13MOL   H187 5971   6.464   4.219   5.332 -1.0667  1.7694 -1.4459
   13MOL   H188 5972   6.397   4.457   5.686 -0.3680 -0.7902  0.8826
   13MOL   H189 5973   6.614   4.573   5.643 -1.7147 -0.5221  2.4301
   13MOL   H190 5974   5.995   4.344   5.632 -3.0667 -0.6690 -0.7388
   13MOL   H191 5975   5.819   4.466   5.511  0.0482 -0.1508  0.0340
   13MOL   H192 5976   6.100   4.606   5.217 -0.5714 -0.8992 -0.6894
   13MOL   H193 5977   6.270   4.465   5.312  0.1281  2.8894 -0.1568
   13MOL   C194 5978   5.686   4.556   5.101  0.4551 -0.4537  0.3200
   13MOL   C195 5979   5.609   4.468   5.020  0.0886 -0.4578 -0.6838
   13MOL   C196 5980   5.631   4.328   5.023  0.2812 -0.8748 -0.1861
   13MOL   C197 5981   5.723   4.266   5.112  0.0917  0.0222  0.0923
   13MOL   C198 5982   5.786   4.356   5.200 -0.2337  0.1972 -0.4280
   13MOL   C199 5983   5.772   4.497   5.194 -0.4959 -0.0263 -1.0362
   13MOL   S200 5984   5.536   4.231   4.904 -0.1978  0.0298 -0.0182
   13MOL   O201 5985   5.395   4.233   4.944  0.0023  0.4786 -0.0075
   13MOL   O202 5986   5.604   4.103   4.882 -0.0925 -0.3512 -0.3596
   13MOL   C203 5987   5.558   4.316   4.744  0.8039  0.0056 -0.1850
   13MOL   C204 5988   5.685   4.351   4.693  0.4325 -0.1482  0.1728
   13MOL   C205 5989   5.692   4.446   4.590  0.1369 -0.0035 -0.7860
   13MOL   C206 5990   5.573   4.486   4.519  0.6326  0.6428  1.0764
   13MOL   C207 5991   5.456   4.427   4.558 -0.1169 -0.0587 -0.4887
   13MOL   C208 5992   5.445   4.342   4.670  0.0339  0.8176  0.1321
   13MOL   O209 5993   5.588   4.579   4.414  0.0458 -0.0935 -0.3253
   13MOL   H210 5994   5.670   4.662   5.089 -0.0618 -0.4045  1.4013
   13MOL   H211 5995   5.545   4.508   4.942 -1.2398 -0.8604  0.1714
   13MOL   H212 5996   5.742   4.162   5.131 -2.3216 -0.1674  1.7124
   13MOL   H213 5997   5.845   4.314   5.280 -0.2745  0.4978 -0.2403
   13MOL   H214 5998   5.769   4.324   4.756  0.4869  0.4717  0.3782
   13MOL   H215 5999   5.792   4.476   4.562 -0.5643  1.5850 -1.6793
   13MOL   H216 6000   5.366   4.446   4.501 -0.0938  1.0280 -0.1913
   13MOL   H217 6001   5.348   4.301   4.693 -0.5059  1.5460 -0.8266
   13MOL   C218 6002   5.501   4.520   4.196  0.5799 -0.5612  0.1984
   13MOL   C219 6003   5.519   4.470   4.063  0.0777 -0.7919  0.1575
   13MOL   C220 6004   5.646   4.440   4.021 -0.2348  0.3351  0.3792
   13MOL   C221 6005   5.756   4.444   4.109  0.7462  0.2639 -0.0565
   13MOL   C222 6006   5.737   4.499   4.240 -0.3839  0.1090 -0.0573
   13MOL   C223 6007   5.607   4.534   4.286 -0.0939 -0.0788  0.0145
   13MOL   S224 6008   5.668   4.374   3.855  0.0598  0.3170  0.1530
   13MOL   O225 6009   5.761   4.466   3.793  0.0323 -0.4754  0.4531
   13MOL   O226 6010   5.537   4.348   3.795  0.1846 -0.3743 -0.3222
   13MOL   C227 6011   5.747   4.213   3.874 -0.7083  0.0228 -0.2586
   13MOL   C228 6012   5.672   4.096   3.891  0.3141  0.3673 -0.2742
   13MOL   C229 6013   5.738   3.975   3.919 -0.0814 -0.7571  0.0023
   13MOL   C230 6014   5.876   3.964   3.915 -0.0283  0.0883  0.4334
   13MOL   C231 6015   5.950   4.082   3.887  0.7343  0.4636  0.1619
   13MOL   C232 6016   5.888   4.209   3.868  0.0126 -0.0845  1.3150
   13MOL   O233 6017   5.940   3.840   3.930  0.4772 -0.1024 -0.2326
   13MOL   H234 6018   5.402   4.543   4.232 -0.1288  0.1465 -2.0944
   13MOL   H235 6019   5.439   4.475   3.990  2.3238  0.3709 -2.3298
   13MOL   H236 6020   5.854   4.405   4.086  0.8572  0.3714  0.2355
   13MOL   H237 6021   5.824   4.491   4.304 -1.5829 -1.4517  1.4559
   13MOL   H238 6022   5.565   4.108   3.887  0.4967  1.7751 -1.4468
   13MOL   H239 6023   5.671   3.891   3.928 -1.7675  0.2799 -2.2952
   13MOL   H240 6024   6.056   4.072   3.905  0.4606 -0.9677  1.0379
   13MOL   H241 6025   5.943   4.301   3.853  1.4734 -1.4831 -2.5068
   13MOL   C242 6026   5.784   3.690   4.037 -0.0477  0.4575 -0.2163
   13MOL   C243 6027   5.717   3.566   4.029 -0.5679  0.1638  0.2063
   13MOL   C244 6028   5.746   3.475   3.927 -0.4310 -0.0839 -0.3852
   13MOL   C245 6029   5.822   3.513   3.818 -0.4399  0.4342 -0.1707
   13MOL   C246 6030   5.887   3.636   3.821 -0.4840 -0.0064 -0.2376
   13MOL   C247 6031   5.871   3.725   3.926  0.0072  0.4129 -0.2497
   13MOL   S248 6032   5.666   3.309   3.922 -0.0824 -0.0211 -0.2158
   13MOL   O249 6033   5.725   3.231   4.030 -0.1744 -0.1663 -0.4382
   13MOL   O250 6034   5.668   3.264   3.783 -0.3711 -0.0072  0.0906
   13MOL   C251 6035   5.495   3.339   3.965  0.0055 -0.6916  0.4020
   13MOL   C252 6036   5.406   3.358   3.862 -0.5537  0.0210 -0.5661
   13MOL   C253 6037   5.269   3.388   3.886  0.3817  0.3536  0.7612
   13MOL   C254 6038   5.219   3.372   4.017 -0.4936  0.4263 -0.0978
   13MOL   C255 6039   5.299   3.346   4.121  0.4920  0.9121  0.3832
   13MOL   C256 6040   5.439   3.326   4.098 -0.1687  0.0628 -0.4677
   13MOL   O257 6041   5.090   3.404   4.037  0.1941  0.5401  0.1584
   13MOL   H258 6042   5.779   3.759   4.120  3.2895  0.8355 -0.2701
   13MOL   H259 6043   5.650   3.525   4.103 -0.9126 -1.2007 -0.8554
   13MOL   H260 6044   5.839   3.451   3.730 -0.8624  1.5095 -1.0237
   13MOL   H261 6045   5.956   3.648   3.739  2.3242 -1.4362  1.8553
   13MOL   H262 6046   5.447   3.357   3.762  2.6739  1.2350  0.6937
   13MOL   H263 6047   5.203   3.395   3.801 -0.5555  1.4985  1.5646
   13MOL   H264 6048   5.249   3.326   4.214 -0.4210 -0.0150 -0.2962
   13MOL   H265 6049   5.499   3.294   4.182 -0.4247 -0.8145 -0.6078
   13MOL   C266 6050   5.128   3.641   4.088  0.2148  0.6494  0.5559
   13MOL   C267 6051   5.062   3.764   4.116  0.1178 -0.0915  0.0749
   13MOL   C268 6052   4.925   3.786   4.088 -0.1989  0.3514  0.1534
   13MOL   C269 6053   4.851   3.677   4.034  0.4488  0.2794 -0.1500
   13MOL   C270 6054   4.916   3.557   4.004 -0.4424  0.3913  0.5664
   13MOL   C271 6055   5.053   3.531   4.030 -0.1473  0.0174  0.0076
   13MOL   S272 6056   4.837   3.943   4.139 -0.3318 -0.4150  0.0435
   13MOL   O273 6057   4.852   3.962   4.282 -0.1739  0.1927  0.0625
   13MOL   O274 6058   4.706   3.938   4.074 -0.3081  0.7072 -0.2428
   13MOL   C275 6059   4.928   4.075   4.064  0.0282  0.3496 -0.3343
   13MOL   C276 6060   4.933   4.082   3.920  0.0342  0.8843 -1.0648
   13MOL   C277 6061   4.995   4.197   3.855 -0.7317  0.6803 -0.2767
   13MOL   C278 6062   5.043   4.298   3.933  0.3762  0.2984 -0.1543
   13MOL   C279 6063   5.045   4.283   4.070  0.3536  0.0420  0.2821
   13MOL   C280 6064   4.989   4.175   4.139 -0.3643 -0.5569  0.0862
   13MOL   O281 6065   5.107   4.413   3.882 -0.2034  0.4724  0.6579
   13MOL   H282 6066   5.227   3.622   4.126 -0.5124 -0.8255  1.7986
   13MOL   H283 6067   5.106   3.849   4.165  0.1698  0.4859 -0.9709
   13MOL   H284 6068   4.743   3.685   4.027  0.3846 -0.2729  0.1962
   13MOL   H285 6069   4.849   3.474   3.986 -1.2452  1.1079  0.1906
   13MOL   H286 6070   4.889   4.005   3.858  2.1154  0.3134 -1.9080
   13MOL   H287 6071   5.002   4.200   3.747 -1.5634 -1.0717 -0.4009
   13MOL   H288 6072   5.088   4.353   4.140 -0.6413  0.9655 -0.0184
   13MOL   H289 6073   4.993   4.174   4.247 -0.8916 -0.8181  0.1036
   13MOL   C290 6074   4.902   4.510   3.818  0.1517  0.1631 -0.1034
   13MOL   C291 6075   4.830   4.594   3.725  0.5623  0.1142 -0.9264
   13MOL   C292 6076   4.892   4.642   3.608  0.0174 -0.1794 -0.1997
   13MOL   C293 6077   5.023   4.605   3.580 -0.4272  0.2130  0.0763
   13MOL   C294 6078   5.095   4.523   3.669 -0.1487 -0.3042 -1.2968
   13MOL   C295 6079   5.034   4.483   3.788 -0.3247 -0.0879  0.2692
   13MOL   S296 6080   4.811   4.751   3.490 -0.3713 -0.0227  0.3653
   13MOL   O297 6081   4.892   4.871   3.499  0.5268 -0.1320 -0.0838
   13MOL   O298 6082   4.671   4.757   3.528 -0.5696  0.0596 -0.3597
   13MOL   C299 6083   4.826   4.663   3.332  0.5402 -0.1414  0.0057
   13MOL   C300 6084   4.896   4.718   3.226 -1.1733 -0.0793  0.3166
   13MOL   C301 6085   4.922   4.641   3.106 -0.0280 -0.0233  0.0637
   13MOL   C302 6086   4.858   4.514   3.096 -0.1636 -0.6268 -0.3371
   13MOL   C303 6087   4.774   4.462   3.199 -0.2060  0.2433 -0.1928
   13MOL   C304 6088   4.763   4.534   3.319 -0.0612  0.2032 -0.3123
   13MOL   O305 6089   4.870   4.420   2.995 -0.2793  0.7119 -0.1353
   13MOL   H306 6090   4.863   4.482   3.915  0.7128 -0.1386  0.0385
   13MOL   H307 6091   4.730   4.624   3.755 -0.4456 -2.1707 -1.7931
   13MOL   H308 6092   5.067   4.642   3.489  0.8237 -0.3794  0.4178
   13MOL   H309 6093   5.196   4.499   3.641  0.2909  0.9278 -0.8033
   13MOL   H310 6094   4.936   4.818   3.233  2.2025 -1.4828  2.1679
   13MOL   H311 6095   4.983   4.685   3.029 -0.7747 -1.0072 -1.1084
   13MOL   H312 6096   4.726   4.367   3.184 -1.9596  0.9670  0.7537
   13MOL   H313 6097   4.714   4.489   3.404  3.4069  1.1305  2.2830
   13MOL   C314 6098   5.026   4.270   3.119  0.4238 -0.0328 -0.7342
   13MOL   C315 6099   5.135   4.181   3.126  0.1629 -0.1178 -0.5582
   13MOL   C316 6100   5.198   4.149   3.008 -0.0417  0.9212 -0.4071
   13MOL   C317 6101   5.153   4.201   2.881 -0.3556  0.8200 -0.1616
   13MOL   C318 6102   5.038   4.279   2.877  0.4873  0.1436  0.5968
   13MOL   C319 6103   4.976   4.325   2.993 -0.3462 -0.5645 -0.3978
   13MOL   S320 6104   5.355   4.053   3.027 -0.1852 -0.3330  0.0271
   13MOL   O321 6105   5.325   3.910   3.031 -0.6716 -0.5616 -0.1161
   13MOL   O322 6106   5.434   4.112   3.134 -0.0231 -0.1070 -0.3293
   13MOL   C323 6107   5.439   4.082   2.866 -0.2024  0.5441 -0.3922
   13MOL   C324 6108   5.471   4.212   2.834 -0.4259 -0.2489 -0.1553
   13MOL   C325 6109   5.546   4.242   2.719 -0.9553  0.4545  0.5400
   13MOL   C326 6110   5.591   4.139   2.638  0.1613  0.3893 -0.6337
   13MOL   C327 6111   5.544   4.004   2.660 -0.3659  0.8304  0.0653
   13MOL   C328 6112   5.472   3.979   2.777 -0.4912 -0.5820  0.8916
   13MOL   O329 6113   5.651   4.170   2.517  0.1299 -0.6272 -0.2148
   13MOL   H330 6114   4.987   4.305   3.214 -0.1906  1.8483 -1.6426
   13MOL   H331 6115   5.165   4.146   3.224  0.7832  0.9740 -0.3560
   13MOL   H332 6116   5.206   4.166   2.793 -0.5416 -0.7635  0.3263
   13MOL   H333 6117   4.993   4.308   2.783 -0.4005  0.2941  1.0661
   13MOL   H334 6118   5.453   4.287   2.909 -1.7051 -0.3758 -0.3274
   13MOL   H335 6119   5.581   4.340   2.690 -0.0334 -0.0682 -0.1343
   13MOL   H336 6120   5.552   3.932   2.580 -2.0226  2.0267 -1.2379
   13MOL   H337 6121   5.424   3.885   2.796  0.9336 -1.6681 -0.7900
   13MOL   C338 6122   5.585   4.362   2.385  0.2705 -0.3025 -0.3620
   13MOL   C339 6123   5.498   4.414   2.286  0.5309  0.4801 -0.6586
   13MOL   C340 6124   5.401   4.334   2.226 -0.2088  0.4347 -0.1108
   13MOL   C341 6125   5.396   4.197   2.253 -0.7083  0.0180  0.5969
   13MOL   C342 6126   5.478   4.148   2.361  0.8646  0.0747  0.3388
   13MOL   C343 6127   5.574   4.225   2.422  0.4570 -1.0553 -0.3924
   13MOL   S344 6128   5.279   4.399   2.107 -0.1123 -0.4453 -0.2065
   13MOL   O345 6129   5.199   4.288   2.046  0.6280 -0.0289 -0.3696
   13MOL   O346 6130   5.345   4.504   2.028 -0.8259 -0.0662  0.3164
   13MOL   C347 6131   5.168   4.486   2.216  0.4132 -0.1862 -0.7787
   13MOL   C348 6132   5.094   4.595   2.166  0.2079  0.6222 -0.0615
   13MOL   C349 6133   5.013   4.669   2.254 -0.1297  0.0800 -0.1276
   13MOL   C350 6134   4.982   4.617   2.386  0.5147  0.4397  0.3284
   13MOL   C351 6135   5.058   4.508   2.434 -0.0303  0.5191  0.2305
   13MOL   C352 6136   5.150   4.444   2.343  0.1512 -0.0924 -0.4654
   13MOL   O353 6137   4.885   4.682   2.455  0.4609  0.0783 -0.2606
   13MOL   H354 6138   5.661   4.417   2.438 -1.8380  1.7249  0.6765
   13MOL   H355 6139   5.508   4.516   2.252  0.4509  1.2258  1.5075
   13MOL   H356 6140   5.316   4.144   2.202 -0.2468 -0.8676  0.7722
   13MOL   H357 6141   5.480   4.042   2.380  1.1326  0.1807  0.9123
   13MOL   H358 6142   5.110   4.628   2.065  0.2538 -1.3085 -0.7025
   13MOL   H359 6143   4.962   4.753   2.211  0.7253 -0.0032 -1.3620
   13MOL   H360 6144   5.061   4.478   2.538  0.2774 -1.0790 -0.2301
   13MOL   H361 6145   5.202   4.360   2.386 -0.5139 -0.6195 -0.6902
   13MOL   C362 6146   4.760   4.602   2.635  0.2943  0.3722  0.5860
   13MOL   C363 6147   4.662   4.513   2.684  0.2260 -0.0849  0.5667
   13MOL   C364 6148   4.600   4.423   2.597  0.2389 -0.0731  0.2653
   13MOL   C365 6149   4.615   4.434   2.460 -0.0491 -0.3411  0.4257
   13MOL   C366 6150   4.712   4.523   2.404  0.2506 -0.7349  0.0006
   13MOL   C367 6151   4.785   4.599   2.498 -0.2349  0.1861 -0.0717
   13MOL   S368 6152   4.479   4.316   2.665  0.1413 -0.4933  0.2192
   13MOL   O369 6153   4.420   4.237   2.558 -0.5667  0.7074 -0.5768
   13MOL   O370 6154   4.384   4.392   2.745 -0.0312 -0.1069  0.4906
   13MOL   C371 6155   4.556   4.207   2.782 -0.2764 -0.1638 -0.2447
   13MOL   C372 6156   4.692   4.176   2.773  0.1850 -0.0546  0.0169
   13MOL   C373 6157   4.750   4.084   2.864  0.3492 -0.2456 -0.0160
   13MOL   C374 6158   4.667   4.028   2.965  0.4877  1.2411  0.0354
   13MOL   C375 6159   4.526   4.045   2.967 -0.1321 -0.8898  0.1939
   13MOL   C376 6160   4.473   4.144   2.877  0.1731  0.0990  0.6104
   13MOL   O377 6161   4.724   3.944   3.057 -0.1862  0.9685  0.0424
   13MOL   H378 6162   4.817   4.666   2.701 -0.5626 -0.9727  2.6841
   13MOL   H379 6163   4.639   4.506   2.790 -0.7520  2.3674  0.5749
   13MOL   H380 6164   4.543   4.391   2.392  0.2286  1.3270 -0.9377
   13MOL   H381 6165   4.737   4.529   2.299  0.7034 -0.2315  0.1351
   13MOL   H382 6166   4.754   4.234   2.706 -0.4429  0.8749  0.2219
   13MOL   H383 6167   4.856   4.063   2.861  0.7462  1.7357 -0.1554
   13MOL   H384 6168   4.455   3.996   3.032  1.3222 -2.7367  0.4170
   13MOL   H385 6169   4.367   4.158   2.861 -0.0129 -1.3552  0.4936
   13MOL   C386 6170   4.946   3.862   3.026 -0.0621  0.0052  0.1693
   13MOL   C387 6171   5.036   3.753   3.011 -0.3991  0.3493 -0.8383
   13MOL   C388 6172   4.981   3.628   2.952 -0.6054  0.0787 -0.1660
   13MOL   C389 6173   4.843   3.612   2.939 -0.3648 -0.3343 -0.2703
   13MOL   C390 6174   4.761   3.715   2.972 -0.3477  0.5194  0.0298
   13MOL   C391 6175   4.804   3.841   3.012 -0.4350  0.1399 -0.3310
   13MOL   S392 6176   5.083   3.478   2.930 -0.0224 -0.1140 -0.0172
   13MOL   O393 6177   4.990   3.370   2.889  0.2914 -0.1241 -0.8256
   13MOL   O394 6178   5.161   3.457   3.050 -0.4961 -0.4152  0.1488
   13MOL   C395 6179   5.205   3.519   2.800  0.4403 -0.3923  0.2979
   13MOL   C396 6180   5.309   3.609   2.825  0.1472 -0.5547  0.1607
   13MOL   C397 6181   5.413   3.624   2.735  0.2147 -0.4350 -0.6971
   13MOL   C398 6182   5.409   3.559   2.609 -0.0140  0.2573  0.1883
   13MOL   C399 6183   5.304   3.466   2.580  0.6197 -0.0388  0.2349
   13MOL   C400 6184   5.204   3.443   2.679  0.3219 -0.7030 -0.2470
   13MOL   O401 6185   5.512   3.590   2.522  0.2154 -0.1004  0.0323
   13MOL   H402 6186   4.977   3.963   3.051 -0.3611  0.3760 -0.8977
   13MOL   H403 6187   5.144   3.747   3.012 -0.4813 -1.3770 -0.0517
   13MOL   H404 6188   4.808   3.520   2.895 -0.1793 -0.6987  0.3452
   13MOL   H405 6189   4.654   3.701   2.965 -0.0639 -1.1958 -1.0416
   13MOL   H406 6190   5.309   3.667   2.916 -0.0194 -0.1487 -0.0938
   13MOL   H407 6191   5.486   3.699   2.761 -0.6292  0.8507 -1.9617
   13MOL   H408 6192   5.299   3.410   2.488 -1.4993  1.0570 -0.3475
   13MOL   H409 6193   5.132   3.366   2.658 -1.3391  1.3327 -2.2665
   13MOL   C410 6194   5.691   3.425   2.518 -0.7560  0.1029 -0.2098
   13MOL   C411 6195   5.824   3.390   2.556  0.2732  0.5324 -0.5302
   13MOL   C412 6196   5.910   3.478   2.620  0.0851 -0.4192  0.4330
   13MOL   C413 6197   5.860   3.597   2.660  0.3915 -0.4944 -0.3941
   13MOL   C414 6198   5.724   3.634   2.635  0.4663  0.3710  0.2054
   13MOL   C415 6199   5.640   3.552   2.554  0.5870  0.4284  0.4957
   13MOL   S416 6200   6.088   3.436   2.607  0.2631  0.0513  0.0040
   13MOL   O417 6201   6.152   3.546   2.533 -0.1466 -0.0657 -0.3693
   13MOL   O418 6202   6.084   3.302   2.541  0.0029 -0.6319  0.1145
   13MOL   C419 6203   6.155   3.424   2.768 -1.0126  0.6472  0.3001
   13MOL   C420 6204   6.219   3.534   2.833  0.1864  0.6746 -0.4316
   13MOL   C421 6205   6.277   3.517   2.963 -0.3619 -0.1543  0.1817
   13MOL   C422 6206   6.250   3.397   3.038 -0.3354 -0.4363  0.0717
   13MOL   C423 6207   6.182   3.290   2.975 -0.1370 -0.3605  1.4990
   13MOL   C424 6208   6.135   3.302   2.838  0.5917 -1.0229 -0.9044
   13MOL   O425 6209   6.273   3.394   3.174  0.1500 -0.5969  0.2719
   13MOL   H426 6210   5.635   3.351   2.463  2.7263 -1.0871 -2.3443
   13MOL   H427 6211   5.866   3.307   2.501  0.6767  0.7768 -0.5952
   13MOL   H428 6212   5.927   3.667   2.707 -0.9685 -1.1750  2.6933
   13MOL   H429 6213   5.689   3.734   2.658 -0.7001 -0.5097  2.3664
   13MOL   H430 6214   6.232   3.625   2.777  1.8703 -0.8809 -2.7012
   13MOL   H431 6215   6.344   3.594   2.996 -0.3508  0.3404 -0.9552
   13MOL   H432 6216   6.162   3.200   3.032 -0.2102 -1.3198 -0.0219
   13MOL   H433 6217   6.087   3.213   2.800 -1.1108 -0.7577  0.5698
   13MOL   C434 6218   6.331   3.171   3.258 -0.0341 -0.3226  0.1803
   13MOL   C435 6219   6.416   3.095   3.338  0.3570 -0.8974  0.4632
   13MOL   C436 6220   6.523   3.164   3.404 -0.5340 -0.2564  0.2471
   13MOL   C437 6221   6.556   3.300   3.379 -0.1433 -0.8133  0.1066
   13MOL   C438 6222   6.473   3.367   3.287  0.0492  0.4920  0.5343
   13MOL   C439 6223   6.358   3.309   3.232 -0.1059  0.1843  0.2670
   13MOL   S440 6224   6.626   3.074   3.523  0.2851  0.0392 -0.0191
   13MOL   O441 6225   6.634   3.152   3.649  0.2039 -0.0985 -0.5437
   13MOL   O442 6226   6.752   3.026   3.461  0.0544  0.5967  0.8304
   13MOL   C443 6227   6.538   2.921   3.550  1.2485  0.7662 -0.4967
   13MOL   C444 6228   6.448   2.904   3.658  0.1894  0.0301  0.1547
   13MOL   C445 6229   6.383   2.778   3.680  0.1875  0.2411  0.8660
   13MOL   C446 6230   6.401   2.679   3.579  0.0074  0.1709 -0.3224
   13MOL   C447 6231   6.485   2.701   3.473  0.4622  0.0160 -0.8025
   13MOL   C448 6232   6.563   2.817   3.461  0.4877 -0.3804  0.0251
   13MOL   O449 6233   6.342   2.555   3.599  0.2792 -0.5089 -0.0099
   13MOL   H450 6234   6.241   3.123   3.223  1.3055 -0.4928 -3.2577
   13MOL   H451 6235   6.392   2.992   3.358 -0.4996 -1.1105 -1.5181
   13MOL   H452 6236   6.635   3.353   3.429 -0.0182 -0.1212 -0.8036
   13MOL   H453 6237   6.482   3.470   3.254 -1.6975  1.2649  2.2865
   13MOL   H454 6238   6.433   2.986   3.727 -4.0056 -1.0848  0.7216
   13MOL   H455 6239   6.312   2.764   3.760  0.5652  3.0279  1.7396
   13MOL   H456 6240   6.507   2.619   3.407 -0.9544 -1.1102  0.0857
   13MOL   H457 6241   6.642   2.818   3.387 -0.1429 -0.8265 -0.6653
   13MOL   C458 6242   6.219   2.379   3.498  0.3980  0.0460 -0.3015
   13MOL   C459 6243   6.107   2.338   3.423  0.0545  0.1690 -0.5284
   13MOL   C460 6244   6.008   2.434   3.383 -0.3073 -0.1283  0.2940
   13MOL   C461 6245   6.025   2.568   3.421 -0.2366 -0.1419 -1.0400
   13MOL   C462 6246   6.135   2.606   3.494  0.1131  0.0211 -1.1200
   13MOL   C463 6247   6.236   2.517   3.522  0.2321  0.0133  0.1794
   13MOL   S464 6248   5.851   2.380   3.298  0.2735  0.0530  0.4910
   13MOL   O465 6249   5.807   2.257   3.364 -0.1873  0.1025 -0.4846
   13MOL   O466 6250   5.867   2.389   3.152 -0.0388  0.8508 -0.1836
   13MOL   C467 6251   5.735   2.506   3.342 -0.1175  0.1089 -0.8711
   13MOL   C468 6252   5.672   2.576   3.234 -0.4509 -0.1566 -0.2426
   13MOL   C469 6253   5.592   2.689   3.270 -0.2081 -0.3082 -0.0331
   13MOL   C470 6254   5.572   2.732   3.403 -0.4582 -0.0516  0.1147
   13MOL   C471 6255   5.626   2.650   3.504 -0.2803 -0.4744  0.2976
   13MOL   C472 6256   5.707   2.539   3.473  0.0139 -0.0759  0.0649
   13MOL   O473 6257   5.487   2.831   3.438 -0.3684  1.0244  0.0041
   13MOL   H474 6258   6.287   2.302   3.530  0.4683  0.4678  0.5712
   13MOL   H475 6259   6.089   2.234   3.399 -0.6801 -0.0022  0.6687
   13MOL   H476 6260   5.949   2.642   3.398  0.8526  1.7269  1.1384
   13MOL   H477 6261   6.144   2.707   3.531  1.2779 -0.3807 -0.3093
   13MOL   H478 6262   5.694   2.544   3.133  0.4366  0.6513 -0.3197
   13MOL   H479 6263   5.550   2.745   3.187  0.8444 -1.9202 -1.6849
   13MOL   H480 6264   5.604   2.678   3.605 -1.5404 -0.1627 -0.0505
   13MOL   H481 6265   5.742   2.477   3.555  4.7632  0.6049 -1.3108
   13MOL   H482 6266   5.436   2.868   3.367  0.6759 -0.0517 -1.3328
   14MOL     C1 6267   6.415   2.467   4.260 -0.3700 -0.4466 -0.0592
   14MOL     C2 6268   6.287   2.521   4.281 -0.3709 -0.1967 -0.0050
   14MOL     C3 6269   6.178   2.443   4.239  0.6363 -0.3898  0.1977
   14MOL     C4 6270   6.198   2.313   4.185  0.2241 -0.7212  0.6475
   14MOL     C5 6271   6.329   2.263   4.172 -0.5269  1.0906 -0.0657
   14MOL     C6 6272   6.440   2.336   4.213 -0.5789  0.2986  0.3424
   14MOL     S7 6273   6.007   2.499   4.249  0.4471 -0.2481 -0.1491
   14MOL     O8 6274   5.933   2.437   4.142  0.3803 -0.7013  0.7949
   14MOL     O9 6275   6.005   2.646   4.275  0.0902 -0.0923  0.0108
   14MOL    C10 6276   5.952   2.420   4.402 -0.0682  0.2115  0.0434
   14MOL    C11 6277   5.956   2.486   4.530  0.1486  0.2134  0.3473
   14MOL    C12 6278   5.905   2.420   4.646  0.6662  1.0096  0.0185
   14MOL    C13 6279   5.839   2.295   4.636  0.7082  0.6342 -0.2700
   14MOL    C14 6280   5.836   2.238   4.509  0.6223 -0.5493 -0.2413
   14MOL    C15 6281   5.890   2.300   4.391 -0.6883 -0.0222 -0.0741
   14MOL    O16 6282   5.783   2.232   4.744  0.3089 -0.2574 -1.4183
   14MOL    H17 6283   6.505   2.523   4.279  0.1915 -0.7356 -1.7463
   14MOL    H18 6284   6.267   2.623   4.310  1.1313  0.3927 -0.9865
   14MOL    H19 6285   6.116   2.250   4.153 -0.2745  0.1616  0.1659
   14MOL    H20 6286   6.336   2.171   4.116 -1.3068  0.5901  0.6330
   14MOL    H21 6287   5.999   2.584   4.541 -1.4152  1.2416 -2.0730
   14MOL    H22 6288   5.900   2.473   4.740  0.2719 -0.8765  1.0974
   14MOL    H23 6289   5.785   2.142   4.500 -0.7060  0.2919 -2.2656
   14MOL    H24 6290   5.886   2.242   4.300  2.3859 -0.8616  0.2714
   14MOL    H25 6291   6.539   2.298   4.191 -0.3486  0.4021  1.1810
   14MOL    C26 6292   6.002   2.211   4.858  0.2512  0.1009  0.5248
   14MOL    C27 6293   6.073   2.186   4.975 -0.5777  0.0389 -0.8762
   14MOL    C28 6294   6.000   2.165   5.097  0.5970 -0.0683 -0.1649
   14MOL    C29 6295   5.857   2.145   5.095 -1.0961 -0.2338 -0.4525
   14MOL    C30 6296   5.795   2.169   4.975  0.1479  0.5682  0.3503
   14MOL    C31 6297   5.864   2.201   4.856  0.0699  0.0124  0.6887
   14MOL    S32 6298   6.089   2.122   5.248 -0.3087 -0.1846  0.2600
   14MOL    O33 6299   6.012   2.150   5.369  0.0419 -0.4631  0.1497
   14MOL    O34 6300   6.223   2.185   5.231 -0.1664  0.7119 -0.1425
   14MOL    C35 6301   6.115   1.936   5.228 -1.1329 -0.5210 -0.1555
   14MOL    C36 6302   6.210   1.889   5.137 -0.6069 -0.6525 -0.6044
   14MOL    C37 6303   6.213   1.753   5.110  0.1779  0.1162  0.5990
   14MOL    C38 6304   6.123   1.670   5.176 -0.1006 -0.3227 -0.2444
   14MOL    C39 6305   6.028   1.713   5.267 -0.2876 -0.5812 -0.7635
   14MOL    C40 6306   6.023   1.851   5.294  0.7758  0.3117  0.2547
   14MOL    O41 6307   6.144   1.535   5.174  1.0006 -0.5524 -0.5733
   14MOL    H42 6308   6.061   2.238   4.771 -0.9075 -0.8923 -0.5974
   14MOL    H43 6309   6.180   2.192   4.978 -0.5558 -0.9661  1.8103
   14MOL    H44 6310   5.796   2.117   5.180  1.5219 -0.4392  1.4405
   14MOL    H45 6311   5.688   2.174   4.986  0.4547  1.6727  3.2449
   14MOL    H46 6312   6.270   1.959   5.081  0.9643 -2.7562 -1.6100
   14MOL    H47 6313   6.288   1.711   5.044 -0.1352  1.0349 -0.3733
   14MOL    H48 6314   5.959   1.647   5.318 -1.1596  1.4478  0.7804
   14MOL    H49 6315   5.952   1.898   5.360  1.6163  1.1070  0.6037
   14MOL    C50 6316   6.274   1.505   5.373 -0.2964 -0.1216 -0.5174
   14MOL    C51 6317   6.273   1.467   5.506 -0.4344 -0.3972  0.0828
   14MOL    C52 6318   6.171   1.387   5.560 -0.3165  0.2818  0.5266
   14MOL    C53 6319   6.063   1.346   5.478 -0.2858 -0.3266  0.1112
   14MOL    C54 6320   6.066   1.377   5.340 -0.2370  0.1124 -0.7404
   14MOL    C55 6321   6.168   1.467   5.291 -0.0663  0.4938  0.1000
   14MOL    S56 6322   6.165   1.364   5.736 -0.0030 -0.2273  0.1228
   14MOL    O57 6323   6.017   1.364   5.758 -0.4785 -0.4112 -0.3375
   14MOL    O58 6324   6.261   1.459   5.799  0.7335 -0.1680 -0.6089
   14MOL    C59 6325   6.218   1.189   5.756  0.2984 -0.3118  0.4085
   14MOL    C60 6326   6.156   1.079   5.692  0.5422 -1.0140 -0.9938
   14MOL    C61 6327   6.205   0.954   5.697 -0.8652 -0.1771  0.1306
   14MOL    C62 6328   6.322   0.937   5.778  0.6443  0.3564 -0.2484
   14MOL    C63 6329   6.390   1.045   5.844 -0.4925  0.2266  0.3461
   14MOL    C64 6330   6.340   1.174   5.827  0.0529  0.5161  0.5046
   14MOL    O65 6331   6.383   0.814   5.804  0.0674  0.0297 -0.0027
   14MOL    H66 6332   6.353   1.555   5.318  1.1209 -1.2943  0.4111
   14MOL    H67 6333   6.351   1.501   5.573 -1.2611  1.1446  0.2805
   14MOL    H68 6334   5.983   1.281   5.508  1.0626 -1.9485  0.2624
   14MOL    H69 6335   5.982   1.354   5.276 -0.9463  0.6414 -0.0129
   14MOL    H70 6336   6.065   1.100   5.638 -0.1062  0.0020  0.4548
   14MOL    H71 6337   6.156   0.865   5.660 -0.7920 -0.3947  0.5472
   14MOL    H72 6338   6.489   1.035   5.885 -0.3336 -1.9817 -0.4816
   14MOL    H73 6339   6.394   1.258   5.869  1.7576  0.2644 -1.1452
   14MOL    C74 6340   6.289   0.637   5.664 -0.3877  0.1556 -0.3349
   14MOL    C75 6341   6.206   0.526   5.650 -0.6115  0.0666  0.1249
   14MOL    C76 6342   6.136   0.473   5.758  0.2634 -0.5130  0.1009
   14MOL    C77 6343   6.134   0.542   5.884  0.3310  0.0147 -0.7897
   14MOL    C78 6344   6.217   0.657   5.897 -0.0090 -0.1777 -0.2654
   14MOL    C79 6345   6.301   0.701   5.791 -0.5860  0.8137 -0.0122
   14MOL    S80 6346   6.021   0.337   5.731  0.4966 -0.0022 -0.4738
   14MOL    O81 6347   6.043   0.240   5.837 -0.2335 -0.1211 -0.5378
   14MOL    O82 6348   6.039   0.294   5.592  0.2145  0.9024  0.4642
   14MOL    C83 6349   5.852   0.407   5.752  0.0526 -0.6611 -0.7201
   14MOL    C84 6350   5.830   0.530   5.685  0.3685 -0.1798  0.1550
   14MOL    C85 6351   5.705   0.581   5.684  0.1768 -0.2137  0.5038
   14MOL    C86 6352   5.602   0.520   5.762 -0.4617  0.1484 -0.4852
   14MOL    C87 6353   5.631   0.398   5.826 -0.0844 -0.2746  0.1517
   14MOL    C88 6354   5.751   0.331   5.815 -0.4616  0.2715 -0.0514
   14MOL    O89 6355   5.485   0.579   5.776 -0.6511 -0.4192 -0.0976
   14MOL    H90 6356   6.352   0.663   5.581  0.9772 -1.5254  0.1472
   14MOL    H91 6357   6.195   0.477   5.555 -0.0726  1.9652 -0.9425
   14MOL    H92 6358   6.079   0.519   5.974  0.3775  0.7296 -0.5723
   14MOL    H93 6359   6.228   0.709   5.991 -1.7181 -0.2568 -0.0095
   14MOL    H94 6360   5.908   0.577   5.627 -0.1654  1.4511  0.7470
   14MOL    H95 6361   5.694   0.671   5.626  2.2420  0.4085  1.0019
   14MOL    H96 6362   5.557   0.363   5.896 -1.2518  3.1349  0.7135
   14MOL    H97 6363   5.749   0.239   5.871 -1.7090  0.5835  0.4430
   14MOL    C98 6364   5.382   0.767   5.686  0.0584  0.5180 -0.2530
   14MOL    C99 6365   5.306   0.830   5.586 -0.6318 -0.0481  1.1218
   14MOL   C100 6366   5.309   0.769   5.455  0.3627  0.3804 -0.3582
   14MOL   C101 6367   5.363   0.634   5.438  0.5674 -0.0423  0.5053
   14MOL   C102 6368   5.423   0.564   5.542  0.6778 -0.2228 -0.1173
   14MOL   C103 6369   5.426   0.633   5.668 -0.4234 -0.0966  0.1443
   14MOL   S104 6370   5.218   0.850   5.323 -0.2143 -0.1347  0.1959
   14MOL   O105 6371   5.246   0.791   5.193 -0.3889  0.4547  0.4745
   14MOL   O106 6372   5.254   0.997   5.338 -0.8879  0.2092  0.0693
   14MOL   C107 6373   5.047   0.822   5.372 -0.4700 -0.5250  0.6569
   14MOL   C108 6374   4.959   0.931   5.410 -0.3084 -0.3904 -0.0766
   14MOL   C109 6375   4.831   0.904   5.447  0.2439  0.1661  0.4885
   14MOL   C110 6376   4.783   0.770   5.446  0.2832 -0.5930 -0.6069
   14MOL   C111 6377   4.862   0.666   5.402 -0.9686  0.0113 -0.5528
   14MOL   C112 6378   4.997   0.691   5.371 -0.3196  0.3344  0.6337
   14MOL   O113 6379   4.645   0.750   5.471 -0.5922  0.2795  0.3968
   14MOL   H114 6380   5.379   0.812   5.785 -1.1664 -2.0479  0.9258
   14MOL   H115 6381   5.264   0.929   5.585  0.0412  0.2442 -2.0024
   14MOL   H116 6382   5.346   0.590   5.341  0.2497  0.3926  0.3606
   14MOL   H117 6383   5.463   0.465   5.527  1.4223  0.1494 -0.6713
   14MOL   H118 6384   4.999   1.031   5.411  1.1487 -0.9568  0.3020
   14MOL   H119 6385   4.769   0.980   5.492  1.7966  0.4643  2.1882
   14MOL   H120 6386   4.824   0.565   5.394  0.7155 -0.5702 -1.4964
   14MOL   H121 6387   5.067   0.610   5.358  1.8589  2.3123 -0.0537
   14MOL   C122 6388   4.676   0.652   5.691  0.0565  0.0622  0.0432
   14MOL   C123 6389   4.659   0.542   5.781 -0.4347  0.1534  0.6451
   14MOL   C124 6390   4.583   0.430   5.734  0.2114 -0.3674 -0.4234
   14MOL   C125 6391   4.527   0.428   5.606 -0.4301  0.6661  0.4134
   14MOL   C126 6392   4.542   0.536   5.515  0.4265 -0.1832 -0.0594
   14MOL   C127 6393   4.616   0.648   5.561  0.3732 -0.4296 -0.2115
   14MOL   S128 6394   4.567   0.284   5.838 -0.0972  0.4522  0.0368
   14MOL   O129 6395   4.443   0.212   5.805 -0.1132  0.4219  0.1408
   14MOL   O130 6396   4.598   0.316   5.981 -0.2285  0.2506 -0.3026
   14MOL   C131 6397   4.696   0.165   5.792 -0.1172 -0.8554 -0.2040
   14MOL   C132 6398   4.825   0.169   5.850  0.1374  0.7607 -0.0801
   14MOL   C133 6399   4.924   0.070   5.814 -0.6551 -0.4873 -0.0091
   14MOL   C134 6400   4.888   8.395   5.724 -0.5152  0.7616  0.3392
   14MOL   C135 6401   4.756   8.384   5.672  0.2104 -0.6207 -0.4128
   14MOL   C136 6402   4.662   0.057   5.706 -0.1448  0.1091  0.0244
   14MOL   O137 6403   4.985   8.305   5.678  0.3127 -0.5395 -0.1972
   14MOL   H138 6404   4.738   0.735   5.722 -0.3386  1.0235 -1.6469
   14MOL   H139 6405   4.696   0.538   5.882  0.3725  1.5291  0.4317
   14MOL   H140 6406   4.481   0.336   5.574  1.3522 -0.2972  0.5849
   14MOL   H141 6407   4.481   0.543   5.426 -0.0891 -0.2498  0.2872
   14MOL   H142 6408   4.850   0.251   5.915 -1.0169  0.8291  0.2901
   14MOL   H143 6409   5.026   0.079   5.850 -0.4958 -1.0889 -0.2995
   14MOL   H144 6410   4.721   8.306   5.606  1.4231 -2.6987  1.3268
   14MOL   H145 6411   4.561   0.057   5.668 -1.4787 -0.5916  3.4080
   14MOL   C146 6412   4.911   8.091   5.794 -0.0186  0.1922 -0.1644
   14MOL   C147 6413   4.899   7.947   5.784  0.1270  0.0011  0.3148
   14MOL   C148 6414   4.949   7.886   5.668  0.0632  0.4396  0.3407
   14MOL   C149 6415   4.992   7.968   5.561 -0.1662 -0.6082  0.7350
   14MOL   C150 6416   5.004   8.102   5.577 -0.1298  0.2495 -0.0589
   14MOL   C151 6417   4.973   8.166   5.691  0.0693 -0.0791 -0.2615
   14MOL   S152 6418   4.941   7.705   5.651  0.0891  0.4882 -0.4138
   14MOL   O153 6419   4.826   7.677   5.568  0.7693  0.0791  0.1769
   14MOL   O154 6420   4.945   7.655   5.795  0.0174  0.1311  0.5574
   14MOL   C155 6421   5.093   7.653   5.582 -0.4206  0.3728 -0.1278
   14MOL   C156 6422   5.086   7.531   5.509 -1.0171 -0.1900  0.2590
   14MOL   C157 6423   5.202   7.472   5.454 -0.2235  0.0232  0.6736
   14MOL   C158 6424   5.324   7.538   5.473 -0.5173 -0.1400  1.0506
   14MOL   C159 6425   5.335   7.665   5.534  0.1391  0.9652 -0.0877
   14MOL   C160 6426   5.217   7.722   5.585  0.7486  0.2742 -0.2528
   14MOL   O161 6427   5.434   7.473   5.430 -0.2202  0.6230  0.1620
   14MOL   H162 6428   4.878   8.144   5.882 -1.8463  0.7877 -1.1868
   14MOL   H163 6429   4.856   7.893   5.866 -2.8577  0.6900 -0.7197
   14MOL   H164 6430   5.018   7.928   5.464 -0.5364  0.7189  0.0748
   14MOL   H165 6431   5.029   8.170   5.496  1.8913 -0.7653 -0.3087
   14MOL   H166 6432   4.994   7.474   5.514 -0.0983 -1.6045  1.5322
   14MOL   H167 6433   5.196   7.389   5.385  1.7002  0.7041 -0.3511
   14MOL   H168 6434   5.419   7.733   5.540  0.9401 -0.1289  1.5622
   14MOL   H169 6435   5.229   7.817   5.636  3.8657 -0.9605  1.4584
   14MOL   C170 6436   5.531   7.602   5.245 -0.6985  0.1729 -0.5204
   14MOL   C171 6437   5.636   7.692   5.205 -0.2573  0.1569  0.0192
   14MOL   C172 6438   5.748   7.718   5.287 -0.6727 -0.6949  0.1521
   14MOL   C173 6439   5.748   7.663   5.416 -0.2395  0.0546 -0.4152
   14MOL   C174 6440   5.642   7.580   5.461  0.4805  0.3718  1.0359
   14MOL   C175 6441   5.535   7.549   5.375 -1.1857 -0.9615  0.0228
   14MOL   S176 6442   5.875   7.837   5.232  0.1842 -0.2625 -0.0540
   14MOL   O177 6443   5.876   7.837   5.086  0.3147 -0.2933  0.0673
   14MOL   O178 6444   6.001   7.812   5.305  0.6544  0.0358 -0.0573
   14MOL   C179 6445   5.814   7.992   5.282 -0.4746 -0.4537 -0.0193
   14MOL   C180 6446   5.872   8.052   5.395  0.0580 -0.2547  0.9721
   14MOL   C181 6447   5.837   8.183   5.431  0.5096 -0.6108 -0.5558
   14MOL   C182 6448   5.739   8.255   5.364  0.1102 -0.1087  0.0650
   14MOL   C183 6449   5.677   8.192   5.258 -0.1622  0.0814 -0.3126
   14MOL   C184 6450   5.712   8.061   5.218  0.2358  0.1175 -1.0292
   14MOL   O185 6451   5.706   8.377   5.412  0.3303  0.3822 -0.0876
   14MOL   H186 6452   5.437   7.590   5.194 -1.3229 -1.2290  0.9444
   14MOL   H187 6453   5.636   7.734   5.105  2.9796 -2.1259 -1.0333
   14MOL   H188 6454   5.825   7.688   5.488 -0.0088  0.6463 -0.8638
   14MOL   H189 6455   5.627   7.538   5.559 -0.9820 -0.7098  0.3623
   14MOL   H190 6456   5.945   7.993   5.449  0.8190  0.0476  0.2799
   14MOL   H191 6457   5.891   8.230   5.511 -1.0913  1.9713 -0.9525
   14MOL   H192 6458   5.590   8.243   5.218 -0.2290  0.0444 -0.2153
   14MOL   H193 6459   5.677   8.019   5.126 -1.0725 -1.1095  0.0056
   14MOL   C194 6460   5.791   0.057   5.206  0.2892  0.1696  0.3555
   14MOL   C195 6461   5.810   0.181   5.141  0.6170 -0.0416  0.0281
   14MOL   C196 6462   5.800   0.302   5.214  0.2845  0.8219  0.5362
   14MOL   C197 6463   5.756   0.302   5.349 -0.2771 -0.0284  0.3073
   14MOL   C198 6464   5.727   0.182   5.412 -0.0637 -0.7927  0.5800
   14MOL   C199 6465   5.736   0.063   5.339 -0.3859  0.4850  0.0770
   14MOL   S200 6466   5.843   0.459   5.130  0.1148 -0.1353  0.3458
   14MOL   O201 6467   5.742   0.496   5.028 -0.2461  0.4224 -0.0683
   14MOL   O202 6468   5.980   0.442   5.082 -0.2761 -0.0976  0.7465
   14MOL   C203 6469   5.863   0.594   5.247  0.8500 -0.0980 -0.5803
   14MOL   C204 6470   5.985   0.614   5.319 -0.2387 -0.5326  0.3505
   14MOL   C205 6471   5.998   0.721   5.401 -0.1355  0.1979  0.5236
   14MOL   C206 6472   5.892   0.810   5.428 -0.0629 -0.3390 -0.2582
   14MOL   C207 6473   5.767   0.795   5.358 -0.1151  0.6184  0.2472
   14MOL   C208 6474   5.755   0.688   5.265 -0.0171  0.5354 -0.6839
   14MOL   O209 6475   5.917   0.905   5.527 -0.0235  0.6483  0.0641
   14MOL   H210 6476   5.803   8.387   5.157  1.0165  0.7768 -0.6698
   14MOL   H211 6477   5.840   0.194   5.038 -0.0287  2.9004  0.1623
   14MOL   H212 6478   5.751   0.391   5.409 -0.7852  0.4010 -0.3588
   14MOL   H213 6479   5.688   0.181   5.513 -1.0457 -1.2308  0.2090
   14MOL   H214 6480   6.074   0.553   5.308  0.2691 -0.1498  2.1625
   14MOL   H215 6481   6.092   0.734   5.452  0.2665 -0.3115 -0.0907
   14MOL   H216 6482   5.686   0.863   5.380  0.1855  0.5550  1.5686
   14MOL   H217 6483   5.673   0.677   5.195 -0.2162  1.4563 -0.5944
   14MOL   C218 6484   5.709   0.960   5.637 -0.3634  0.3874  0.4430
   14MOL   C219 6485   5.628   0.956   5.756  0.2688  0.7771 -0.0941
   14MOL   C220 6486   5.688   0.919   5.880 -0.6521  0.2717  0.0271
   14MOL   C221 6487   5.816   0.860   5.883 -0.9007 -0.7133  0.5159
   14MOL   C222 6488   5.885   0.845   5.758  0.6073 -0.2003 -0.4837
   14MOL   C223 6489   5.836   0.902   5.636 -0.0502 -0.4102 -0.6298
   14MOL   S224 6490   5.593   0.944   6.030  0.1260  0.1816 -0.0941
   14MOL   O225 6491   5.449   0.937   5.997 -0.1013  0.5152  0.0634
   14MOL   O226 6492   5.652   1.058   6.099  1.1688  0.0454 -0.2580
   14MOL   C227 6493   5.610   0.794   6.134  0.7041  0.3555  0.5066
   14MOL   C228 6494   5.650   0.667   6.089 -0.3860  0.7044  0.8631
   14MOL   C229 6495   5.687   0.570   6.180 -0.0400 -0.3075 -0.5665
   14MOL   C230 6496   5.674   0.587   6.319 -0.5042  0.5340  0.4013
   14MOL   C231 6497   5.629   0.712   6.365 -0.5808 -0.6456 -0.4748
   14MOL   C232 6498   5.596   0.816   6.274 -0.0446 -0.4935  0.0225
   14MOL   O233 6499   5.701   0.490   6.409  0.0193  0.3694 -0.2262
   14MOL   H234 6500   5.670   1.012   5.550 -1.4889 -1.6576 -0.3262
   14MOL   H235 6501   5.535   1.011   5.758  0.4266  1.0312  1.5184
   14MOL   H236 6502   5.864   0.840   5.977 -1.1248 -0.8604  0.5988
   14MOL   H237 6503   5.987   0.808   5.760  0.4058 -0.7436 -0.3216
   14MOL   H238 6504   5.665   0.645   5.984  1.5931  1.1623  1.0281
   14MOL   H239 6505   5.719   0.474   6.141 -1.2234 -0.6332 -0.7767
   14MOL   H240 6506   5.608   0.730   6.470 -0.2202 -1.5140 -0.2492
   14MOL   H241 6507   5.564   0.912   6.310  0.6145  0.4047 -1.6912
   14MOL   C242 6508   5.500   0.487   6.551 -0.5130  0.8846  0.1119
   14MOL   C243 6509   5.393   0.409   6.606  0.1653  0.3445  0.0503
   14MOL   C244 6510   5.376   0.276   6.567  0.3797 -0.3270  0.2816
   14MOL   C245 6511   5.469   0.213   6.479  0.8511  0.6636  0.7822
   14MOL   C246 6512   5.580   0.286   6.432 -0.4218 -0.0877 -0.3604
   14MOL   C247 6513   5.588   0.425   6.462 -0.5961  0.2260  0.2337
   14MOL   S248 6514   5.224   0.194   6.615 -0.1677 -0.2376 -0.3872
   14MOL   O249 6515   5.161   0.132   6.497  0.2837 -0.4000  0.2477
   14MOL   O250 6516   5.140   0.281   6.696 -0.4442  0.1421  0.2931
   14MOL   C251 6517   5.277   0.061   6.725 -0.8822  0.3403  0.1465
   14MOL   C252 6518   5.337   0.094   6.852 -0.7372 -0.2680 -0.5185
   14MOL   C253 6519   5.366   8.422   6.952 -0.2476 -0.0840  0.1740
   14MOL   C254 6520   5.338   8.289   6.918  0.4827  0.4356  0.2257
   14MOL   C255 6521   5.289   8.258   6.790 -0.3232  0.5183 -0.1615
   14MOL   C256 6522   5.260   8.357   6.698  0.1570  0.5185 -0.2710
   14MOL   O257 6523   5.357   8.190   7.011  0.2810 -0.0089  0.0444
   14MOL   H258 6524   5.511   0.588   6.589  0.2716  1.9109 -2.7086
   14MOL   H259 6525   5.316   0.447   6.671  0.9564 -1.3031  2.0038
   14MOL   H260 6526   5.451   0.117   6.434 -0.4878  1.3138 -0.1169
   14MOL   H261 6527   5.653   0.245   6.363  1.7297  0.6079  1.4357
   14MOL   H262 6528   5.363   0.197   6.872 -0.7355 -0.5191  0.8006
   14MOL   H263 6529   5.388   0.028   7.052  0.6519 -2.2970  0.7016
   14MOL   H264 6530   5.273   8.153   6.772  1.5381  0.5514 -2.2314
   14MOL   H265 6531   5.226   8.319   6.603 -1.5193 -0.7005  0.7810
   14MOL   C266 6532   5.153   8.232   7.144  0.0862 -0.0882 -0.5277
   14MOL   C267 6533   5.083   8.260   7.266 -0.9758 -0.1392  0.3088
   14MOL   C268 6534   5.162   8.250   7.384 -0.0756  0.6459 -0.1729
   14MOL   C269 6535   5.300   8.226   7.381  0.0796  0.2216 -0.2555
   14MOL   C270 6536   5.364   8.213   7.256 -0.2958  0.3058  0.0859
   14MOL   C271 6537   5.291   8.203   7.135 -0.3096 -0.7449 -1.1478
   14MOL   S272 6538   5.066   8.274   7.536 -0.2698 -0.0702 -0.3862
   14MOL   O273 6539   4.939   8.207   7.527  0.4464  0.0058  0.4182
   14MOL   O274 6540   5.065   8.416   7.575  0.0032  0.3823 -0.8207
   14MOL   C275 6541   5.167   8.184   7.657  0.0414 -0.6962 -0.1272
   14MOL   C276 6542   5.131   8.050   7.691 -0.2351  0.0687  0.8821
   14MOL   C277 6543   5.206   7.984   7.791 -0.3063  0.1314  0.0108
   14MOL   C278 6544   5.316   8.051   7.848 -0.7722  0.0698 -0.0714
   14MOL   C279 6545   5.348   8.183   7.824 -0.2436  0.2714 -0.2954
   14MOL   C280 6546   5.266   8.258   7.727  0.1191 -0.2466 -0.7894
   14MOL   O281 6547   5.384   7.994   7.945  0.0257 -0.2771 -0.4539
   14MOL   H282 6548   5.097   8.238   7.052  1.1459  1.0264 -1.1154
   14MOL   H283 6549   4.977   8.274   7.275 -1.2493 -1.7877 -0.2727
   14MOL   H284 6550   5.365   8.218   7.467 -2.2221 -1.8340  1.3835
   14MOL   H285 6551   5.470   8.192   7.255 -0.2718  0.2444 -3.7188
   14MOL   H286 6552   5.045   8.004   7.644  0.5648  2.0953 -2.7455
   14MOL   H287 6553   5.192   7.884   7.831 -0.0971 -0.4167 -1.2529
   14MOL   H288 6554   5.441   8.221   7.863  0.5458 -1.9180  0.0503
   14MOL   H289 6555   5.281   8.362   7.704 -1.8342  0.6488  1.6719
   14MOL   C290 6556   5.540   7.864   7.814  0.1194 -0.5279  0.0131
   14MOL   C291 6557   5.676   7.810   7.803 -0.2462 -0.2702 -0.5399
   14MOL   C292 6558   5.779   7.856   7.894  0.1724  0.3046 -0.5806
   14MOL   C293 6559   5.747   7.947   8.000  0.5132  0.0644 -0.7368
   14MOL   C294 6560   5.615   7.998   8.007  0.3595 -0.0664 -0.2199
   14MOL   C295 6561   5.510   7.947   7.923 -0.3653 -0.7258 -1.0460
   14MOL   S296 6562   5.939   7.782   7.899  0.0771 -0.0116 -0.1663
   14MOL   O297 6563   6.029   7.889   7.953  0.3388 -0.7145 -0.1002
   14MOL   O298 6564   5.969   7.728   7.766 -0.0208 -0.3583 -0.6651
   14MOL   C299 6565   5.922   7.649   8.027 -0.4365  0.3896 -0.4302
   14MOL   C300 6566   5.798   7.603   8.077 -0.6460  0.6898 -0.2795
   14MOL   C301 6567   5.792   7.504   8.178 -0.1012 -0.4159 -0.0671
   14MOL   C302 6568   5.905   7.430   8.209 -0.1820 -0.6968 -0.7812
   14MOL   C303 6569   6.029   7.470   8.154 -0.1616  0.3963  0.6775
   14MOL   C304 6570   6.041   7.586   8.075 -0.0753  0.1528  0.7333
   14MOL   O305 6571   5.898   7.329   8.303  0.5473 -0.2007  0.4135
   14MOL   H306 6572   5.456   7.842   7.750  0.3309 -1.3612  0.0161
   14MOL   H307 6573   5.705   7.745   7.722  1.8628  1.3044 -1.1007
   14MOL   H308 6574   5.821   7.986   8.070 -1.1249  0.9030  0.5674
   14MOL   H309 6575   5.591   8.063   8.090 -1.5744 -1.7719  0.5846
   14MOL   H310 6576   5.705   7.643   8.041  0.3581  0.8749 -2.7314
   14MOL   H311 6577   5.700   7.474   8.224 -0.4119  1.2376  0.4366
   14MOL   H312 6578   6.118   7.415   8.178 -0.7222 -2.1025 -2.5340
   14MOL   H313 6579   6.139   7.619   8.043 -0.0985 -0.9823 -0.5456
   14MOL   C314 6580   5.715   7.178   8.272 -0.0991 -0.7554 -0.4967
   14MOL   C315 6581   5.670   7.054   8.230 -0.5491  0.1517 -0.5190
   14MOL   C316 6582   5.762   6.954   8.193 -0.3369 -0.8911  0.0936
   14MOL   C317 6583   5.898   6.979   8.177 -0.0714  0.5302 -0.9946
   14MOL   C318 6584   5.947   7.109   8.209  0.2201 -1.0033  0.2254
   14MOL   C319 6585   5.856   7.205   8.261  0.4412 -0.4594 -0.0488
   14MOL   S320 6586   5.702   6.802   8.138  0.2124 -0.0861  0.4021
   14MOL   O321 6587   5.561   6.798   8.162 -0.3271  0.0124 -0.3455
   14MOL   O322 6588   5.786   6.693   8.191 -0.4350  0.0045  0.5558
   14MOL   C323 6589   5.733   6.812   7.956  0.5151 -0.0896  0.4376
   14MOL   C324 6590   5.745   6.937   7.893  0.2209 -0.7859  0.2290
   14MOL   C325 6591   5.757   6.940   7.751 -0.1577 -0.1019 -0.0025
   14MOL   C326 6592   5.750   6.821   7.670  0.5638 -0.6072 -0.0473
   14MOL   C327 6593   5.738   6.699   7.739 -0.6310  0.0580 -0.2890
   14MOL   C328 6594   5.726   6.696   7.877  0.7173  0.5359  0.5766
   14MOL   O329 6595   5.738   6.821   7.537 -0.2308 -0.1436  0.4154
   14MOL   H330 6596   5.644   7.252   8.306  1.7658 -0.0187  1.9998
   14MOL   H331 6597   5.565   7.028   8.239 -0.4531  0.0251  0.2673
   14MOL   H332 6598   5.963   6.905   8.134  1.2015  0.6548  0.6281
   14MOL   H333 6599   6.042   7.157   8.195  0.5366 -1.5753  0.3934
   14MOL   H334 6600   5.762   7.029   7.947  0.4480  0.9960 -2.8112
   14MOL   H335 6601   5.773   7.038   7.708 -0.7493 -0.0471 -0.1083
   14MOL   H336 6602   5.737   6.600   7.697  0.5529 -1.2750  2.6592
   14MOL   H337 6603   5.714   6.603   7.930  0.9254  0.4030  0.3932
   14MOL   C338 6604   5.496   6.853   7.579 -0.3164 -0.2047 -0.1992
   14MOL   C339 6605   5.373   6.868   7.508 -0.1015 -0.2581  0.5459
   14MOL   C340 6606   5.369   6.888   7.371  0.4186 -0.3159 -0.3734
   14MOL   C341 6607   5.484   6.878   7.295  0.3416 -0.9662 -0.3728
   14MOL   C342 6608   5.611   6.861   7.352 -0.4196 -0.2950  0.5226
   14MOL   C343 6609   5.613   6.841   7.494 -0.0197  0.1055  0.2562
   14MOL   S344 6610   5.204   6.884   7.294 -0.4051 -0.0599  0.1635
   14MOL   O345 6611   5.144   6.755   7.342 -0.1932  0.5190  0.7956
   14MOL   O346 6612   5.220   6.912   7.154 -0.1794 -0.6617 -0.5443
   14MOL   C347 6613   5.110   7.018   7.365  0.6122 -0.7893 -0.4048
   14MOL   C348 6614   5.168   7.145   7.376  0.2964 -0.0573  0.1248
   14MOL   C349 6615   5.089   7.249   7.424  0.8885  0.1301  0.2888
   14MOL   C350 6616   4.951   7.233   7.446 -0.1303 -0.5170 -0.4928
   14MOL   C351 6617   4.889   7.110   7.422  0.0551  0.0432 -0.4450
   14MOL   C352 6618   4.974   6.999   7.390  0.0319  0.3557 -0.1103
   14MOL   O353 6619   4.864   7.333   7.479  0.2219  0.0558  0.1734
   14MOL   H354 6620   5.501   6.842   7.687 -0.8422 -1.4623 -0.3013
   14MOL   H355 6621   5.278   6.886   7.557 -0.6803  1.4129 -1.1560
   14MOL   H356 6622   5.476   6.896   7.189 -0.3299 -1.0085 -0.3348
   14MOL   H357 6623   5.702   6.865   7.293 -0.7410  1.6095  0.1447
   14MOL   H358 6624   5.273   7.165   7.359  0.2470  0.2017  0.1216
   14MOL   H359 6625   5.138   7.343   7.444  0.0110  0.4057  1.1951
   14MOL   H360 6626   4.782   7.096   7.428  0.1919 -2.2841 -2.7880
   14MOL   H361 6627   4.934   6.899   7.382 -0.6420  0.6000  0.2058
   14MOL   C362 6628   4.718   7.390   7.669 -0.0808  0.0043  0.7001
   14MOL   C363 6629   4.706   7.463   7.794 -0.1085 -0.0427 -0.0787
   14MOL   C364 6630   4.817   7.483   7.876  0.3047  0.0871 -0.3033
   14MOL   C365 6631   4.944   7.449   7.833 -0.1971  0.1315  0.0292
   14MOL   C366 6632   4.958   7.394   7.705  0.2287 -0.2433  0.2706
   14MOL   C367 6633   4.849   7.372   7.617  0.5710 -0.2063 -0.7512
   14MOL   S368 6634   4.791   7.573   8.032  0.0290  0.1376  0.2500
   14MOL   O369 6635   4.917   7.575   8.114 -0.5033  0.0087 -0.5894
   14MOL   O370 6636   4.676   7.507   8.102  0.3094 -0.0246 -0.9568
   14MOL   C371 6637   4.741   7.736   7.989  0.3935 -0.3030  0.8637
   14MOL   C372 6638   4.841   7.828   7.958 -0.1711  0.6009 -0.2071
   14MOL   C373 6639   4.805   7.966   7.927  0.0815  0.0700 -0.3222
   14MOL   C374 6640   4.669   8.012   7.926  0.4931  0.7291 -1.3387
   14MOL   C375 6641   4.574   7.911   7.959  0.2654  0.0639  0.0117
   14MOL   C376 6642   4.608   7.778   7.992 -0.2752  0.0890  0.1771
   14MOL   O377 6643   4.635   8.139   7.910 -0.1093  0.2279  0.6107
   14MOL   H378 6644   4.628   7.358   7.618 -0.2983  1.2408  0.2915
   14MOL   H379 6645   4.605   7.485   7.825 -0.1411  1.0304 -0.9099
   14MOL   H380 6646   5.031   7.468   7.894  0.4230  0.9258 -1.1016
   14MOL   H381 6647   5.051   7.387   7.650  0.1444 -1.1236  0.2347
   14MOL   H382 6648   4.940   7.787   7.973 -1.0837 -1.5985  0.0268
   14MOL   H383 6649   4.879   8.044   7.914  2.2861 -1.8912 -0.0501
   14MOL   H384 6650   4.469   7.931   7.975  0.1454 -0.1880 -0.4409
   14MOL   H385 6651   4.539   7.697   8.009 -2.3808  1.5425 -1.2460
   14MOL   C386 6652   4.524   8.158   7.696  0.2625  1.0701 -0.2131
   14MOL   C387 6653   4.509   8.222   7.576 -0.1740 -0.1681  0.0442
   14MOL   C388 6654   4.596   8.329   7.540  0.9800 -0.3760 -0.5674
   14MOL   C389 6655   4.697   8.372   7.630  1.2031  0.1324 -0.0879
   14MOL   C390 6656   4.713   8.299   7.750 -0.5190  0.1694 -0.8877
   14MOL   C391 6657   4.628   8.195   7.783 -0.1153  0.1773  0.1863
   14MOL   S392 6658   4.553   8.421   7.393 -0.2281 -0.0105  0.0379
   14MOL   O393 6659   4.611   8.343   7.284  0.2130  0.0358  0.1837
   14MOL   O394 6660   4.592   0.134   7.404 -0.1994 -0.2263 -0.0939
   14MOL   C395 6661   4.377   8.410   7.378 -0.7723 -1.5423  0.8790
   14MOL   C396 6662   4.309   8.330   7.282  0.3509 -0.3104  0.1741
   14MOL   C397 6663   4.173   8.306   7.288 -1.1234  0.0913 -0.5346
   14MOL   C398 6664   4.101   8.373   7.389  0.0087  0.0423  0.2107
   14MOL   C399 6665   4.164   0.027   7.487 -0.4498 -0.4313 -0.2785
   14MOL   C400 6666   4.303   0.047   7.478 -0.5364  0.1154  0.6789
   14MOL   O401 6667   3.968   8.348   7.392  0.3944  0.2048  0.5076
   14MOL   H402 6668   4.452   8.083   7.726  2.4036 -1.4427 -1.1574
   14MOL   H403 6669   4.427   8.192   7.513 -0.4550  0.4749  0.1051
   14MOL   H404 6670   4.760   0.029   7.600  0.1791  1.0133  0.1430
   14MOL   H405 6671   4.798   8.319   7.814  1.2536 -0.1214 -3.0671
   14MOL   H406 6672   4.371   8.286   7.204 -0.6755  0.1101 -0.8902
   14MOL   H407 6673   4.128   8.235   7.220 -0.5949 -2.1429  1.4120
   14MOL   H408 6674   4.108   0.084   7.560  1.0682  0.6338  0.0736
   14MOL   H409 6675   4.357   0.099   7.556  0.6129 -0.3274  0.1864
   14MOL   C410 6676   3.911   8.266   7.607 -0.2370 -0.5387  0.1839
   14MOL   C411 6677   3.847   8.294   7.728 -0.2182 -0.6274  0.0211
   14MOL   C412 6678   3.773   8.410   7.751 -0.3458 -0.1623  0.6418
   14MOL   C413 6679   3.766   0.085   7.650  0.8723  0.7375 -0.1649
   14MOL   C414 6680   3.827   0.058   7.520 -0.2210  0.0220 -0.3249
   14MOL   C415 6681   3.907   8.367   7.511  0.6342  0.1909  0.2972
   14MOL   S416 6682   3.696   0.024   7.911 -0.2549 -0.0288  0.2010
   14MOL   O417 6683   3.564   8.382   7.906  0.0896  0.3345 -0.3110
   14MOL   O418 6684   3.705   0.167   7.931  0.6091 -0.1640 -0.6172
   14MOL   C419 6685   3.799   8.363   8.032 -0.5733 -0.8109 -0.3301
   14MOL   C420 6686   3.939   8.389   8.039 -0.1155 -0.1249  0.0242
   14MOL   C421 6687   4.017   8.311   8.125  0.3155  0.6696  0.3626
   14MOL   C422 6688   3.957   8.208   8.200 -0.0556 -0.4369 -0.1519
   14MOL   C423 6689   3.818   8.187   8.191  0.5751  0.3058 -0.1658
   14MOL   C424 6690   3.736   8.265   8.110  0.1977 -0.0141  0.0347
   14MOL   O425 6691   4.037   8.125   8.276 -0.4568 -0.9823  0.2750
   14MOL   H426 6692   3.961   8.173   7.581 -0.7571 -1.2643  1.7027
   14MOL   H427 6693   3.862   8.214   7.799 -0.6281 -0.5239  0.2242
   14MOL   H428 6694   3.709   0.176   7.663  0.3411  0.2316  1.1499
   14MOL   H429 6695   3.820   0.128   7.438 -4.2500 -0.8717 -0.8327
   14MOL   H430 6696   3.972   0.035   7.966  3.0238 -0.7071  0.8017
   14MOL   H431 6697   4.122   8.308   8.101  0.3270  1.9258  0.2467
   14MOL   H432 6698   3.779   8.106   8.252 -1.3957  0.4408 -1.2075
   14MOL   H433 6699   3.631   8.242   8.107 -0.0292  1.0308 -0.3786
   14MOL   C434 6700   4.147   7.919   8.301 -0.3551 -0.1984 -0.2390
   14MOL   C435 6701   4.200   7.800   8.257 -0.3038 -0.0219  0.4659
   14MOL   C436 6702   4.214   7.784   8.113 -0.3669 -0.6034 -0.1598
   14MOL   C437 6703   4.163   7.881   8.027 -0.6725  1.1355 -0.5743
   14MOL   C438 6704   4.112   8.002   8.075 -0.4057 -0.3554  0.6466
   14MOL   C439 6705   4.098   8.020   8.213 -0.0941  0.2930 -1.3291
   14MOL   S440 6706   4.286   7.624   8.057 -0.3484  0.1913  0.3350
   14MOL   O441 6707   4.377   7.585   8.164 -0.6599  0.4139  0.0947
   14MOL   O442 6708   4.333   7.638   7.917 -0.5735 -0.0493 -0.0501
   14MOL   C443 6709   4.171   7.491   8.055  0.4955  0.4934  0.6384
   14MOL   C444 6710   4.104   7.458   8.174  0.4830  0.0602 -0.9686
   14MOL   C445 6711   4.032   7.335   8.177  0.1802 -0.2505  0.0373
   14MOL   C446 6712   4.009   7.260   8.059 -0.2878 -0.1481 -0.1896
   14MOL   C447 6713   4.073   7.303   7.938  0.2908  0.2482  0.1799
   14MOL   C448 6714   4.151   7.416   7.939 -0.3938  0.1262 -0.0220
   14MOL   O449 6715   3.955   7.137   8.062 -0.5373  0.0563  0.3743
   14MOL   H450 6716   4.122   7.935   8.405 -1.3152 -3.9876  0.1933
   14MOL   H451 6717   4.225   7.721   8.326  0.5079 -0.9634 -0.8776
   14MOL   H452 6718   4.148   7.866   7.921  0.7943  0.7442 -0.7297
   14MOL   H453 6719   4.069   8.071   8.004  0.6406 -1.1194 -0.7756
   14MOL   H454 6720   4.122   7.507   8.268 -0.0308 -0.7382 -0.4513
   14MOL   H455 6721   3.987   7.308   8.272 -1.1239  0.5634 -0.3447
   14MOL   H456 6722   4.056   7.248   7.847 -0.7778  0.2843  0.3533
   14MOL   H457 6723   4.203   7.450   7.851  0.4974 -0.4702  0.2625
   14MOL   C458 6724   3.975   6.926   7.972 -0.0871  0.7637  0.3596
   14MOL   C459 6725   4.055   6.808   7.949  0.3128  0.1886  0.1212
   14MOL   C460 6726   4.194   6.808   7.984  0.3831  0.0535  0.5796
   14MOL   C461 6727   4.258   6.926   8.026 -0.1963 -0.0641  0.5803
   14MOL   C462 6728   4.174   7.031   8.064  0.4329  0.1175 -0.4942
   14MOL   C463 6729   4.037   7.033   8.034 -0.1785  0.4712  0.8426
   14MOL   S464 6730   4.290   6.654   7.973 -0.2560 -0.2073 -0.2116
   14MOL   O465 6731   4.412   6.686   7.896 -0.0231  0.3485 -0.1615
   14MOL   O466 6732   4.199   6.545   7.934 -0.3935  0.2462 -0.2730
   14MOL   C467 6733   4.350   6.634   8.140  0.0409 -0.6176 -0.0561
   14MOL   C468 6734   4.477   6.684   8.183 -0.0539 -0.1870 -0.8609
   14MOL   C469 6735   4.513   6.686   8.322 -0.3825  0.5214 -0.3527
   14MOL   C470 6736   4.418   6.639   8.411 -0.4651 -0.8375 -0.4844
   14MOL   C471 6737   4.291   6.596   8.376  0.6735  0.0223  0.5101
   14MOL   C472 6738   4.256   6.597   8.235 -0.6080 -0.1100  0.1569
   14MOL   O473 6739   4.448   6.620   0.118  0.2755  0.5205  0.6083
   14MOL   H474 6740   3.870   6.932   7.947 -0.2234 -0.5069  0.5751
   14MOL   H475 6741   4.011   6.718   7.909 -1.1535 -0.0954  2.2920
   14MOL   H476 6742   4.366   6.927   8.036 -0.3998  1.0887  3.1350
   14MOL   H477 6743   4.219   7.116   8.113  3.1808 -2.0972  0.9791
   14MOL   H478 6744   4.546   6.728   8.112  0.2474  0.8041  0.0361
   14MOL   H479 6745   4.611   6.717   8.354 -0.5155 -0.0377  0.5966
   14MOL   H480 6746   4.224   6.561   0.027 -0.5085 -0.9190 -0.9390
   14MOL   H481 6747   4.154   6.581   8.204 -0.7104  0.3318  0.2688
   14MOL   H482 6748   4.529   6.657   0.151 -0.5719  1.1612  2.0200
   15MOL     C1 6749   3.085   5.060   4.727  0.1257  0.5697  0.0288
   15MOL     C2 6750   3.041   4.942   4.803 -0.4858  0.8808 -0.0030
   15MOL     C3 6751   2.924   4.885   4.757  0.4294 -0.1755 -0.1028
   15MOL     C4 6752   2.854   4.934   4.637 -0.4647  1.4374  0.2130
   15MOL     C5 6753   2.904   5.046   4.568  0.8160 -1.1538  0.3517
   15MOL     C6 6754   3.018   5.111   4.616 -0.1733  0.5662 -0.5606
   15MOL     S7 6755   2.858   4.745   4.853 -0.4434 -0.3197 -0.1269
   15MOL     O8 6756   2.715   4.771   4.868  0.4794  0.4331 -0.3407
   15MOL     O9 6757   2.944   4.730   4.974  0.4184  0.3075 -0.3772
   15MOL    C10 6758   2.868   4.591   4.756  0.3919  0.2412 -0.5233
   15MOL    C11 6759   2.812   4.582   4.631 -0.5243  0.2198 -0.2400
   15MOL    C12 6760   2.826   4.460   4.558 -0.6875  0.3875  0.1258
   15MOL    C13 6761   2.888   4.346   4.616 -0.0908 -0.3482  0.2770
   15MOL    C14 6762   2.943   4.356   4.748  0.8629 -0.5200  0.6135
   15MOL    C15 6763   2.930   4.484   4.814  0.3109  0.7589  0.3762
   15MOL    O16 6764   2.891   4.228   4.540 -0.0033 -0.7343 -0.2264
   15MOL    H17 6765   3.177   5.112   4.751 -0.1960  1.6151 -0.9638
   15MOL    H18 6766   3.092   4.906   4.892 -1.2336 -0.7688 -0.2244
   15MOL    H19 6767   2.759   4.890   4.609  0.9287 -0.5726 -1.4704
   15MOL    H20 6768   2.845   5.093   4.490 -2.1738 -1.4402  2.3428
   15MOL    H21 6769   2.771   4.671   4.584  0.0023 -1.1145 -3.2754
   15MOL    H22 6770   2.776   4.439   4.465 -1.1824 -1.0886  0.7165
   15MOL    H23 6771   2.994   4.273   4.794 -3.0341 -3.7552 -0.5510
   15MOL    H24 6772   2.970   4.500   4.913  0.0340  0.1007  0.5999
   15MOL    H25 6773   3.062   5.201   4.574  2.5116  0.0842  1.0976
   15MOL    C26 6774   3.109   4.248   4.446 -0.0825  0.2713  0.1442
   15MOL    C27 6775   3.236   4.196   4.412 -0.0938  0.4547  0.2111
   15MOL    C28 6776   3.272   4.071   4.473  0.8194 -0.5701 -0.4314
   15MOL    C29 6777   3.175   3.995   4.535  0.0252  0.0559 -0.1613
   15MOL    C30 6778   3.050   4.049   4.563  0.6109 -1.1185  0.4477
   15MOL    C31 6779   3.017   4.175   4.518  0.1956 -0.6988  0.5920
   15MOL    S32 6780   3.438   4.014   4.447  0.1108 -0.2099  0.1875
   15MOL    O33 6781   3.462   3.881   4.504 -0.3333  0.3688 -0.1966
   15MOL    O34 6782   3.528   4.130   4.485  0.3611 -0.0384  0.7811
   15MOL    C35 6783   3.471   3.980   4.274 -0.2557 -0.2614  0.2352
   15MOL    C36 6784   3.366   3.942   4.187  0.2138  0.0841 -0.3740
   15MOL    C37 6785   3.392   3.896   4.062  0.6644  0.0691  0.3824
   15MOL    C38 6786   3.521   3.873   4.017 -0.4866 -0.3748  0.3476
   15MOL    C39 6787   3.626   3.902   4.104  0.2010 -0.3285 -0.6787
   15MOL    C40 6788   3.605   3.955   4.232 -0.2941 -0.2479  0.1232
   15MOL    O41 6789   3.543   3.798   3.901  0.4212 -0.2007 -0.2247
   15MOL    H42 6790   3.079   4.342   4.403 -1.0018 -0.1342 -0.1128
   15MOL    H43 6791   3.306   4.254   4.355  0.0883  0.9149  0.9033
   15MOL    H44 6792   3.202   3.895   4.565 -0.6089 -0.2041 -0.4581
   15MOL    H45 6793   2.986   3.993   4.630 -1.2291 -1.6665 -1.6947
   15MOL    H46 6794   3.267   3.952   4.230 -0.1855  0.5329 -1.3806
   15MOL    H47 6795   3.314   3.847   4.006  0.7556 -0.9589  1.1379
   15MOL    H48 6796   3.730   3.889   4.075  1.0732  0.2370  2.0353
   15MOL    H49 6797   3.685   3.976   4.301  0.7918 -1.1576 -0.8314
   15MOL    C50 6798   3.714   3.825   3.731  0.3455  0.1971 -0.2805
   15MOL    C51 6799   3.773   3.887   3.619  0.0876 -0.5726 -1.2437
   15MOL    C52 6800   3.722   4.009   3.579 -0.2851 -0.7489  0.3509
   15MOL    C53 6801   3.609   4.062   3.649  0.0489 -0.1789 -0.1927
   15MOL    C54 6802   3.536   3.992   3.751 -0.7569 -0.2926 -0.5873
   15MOL    C55 6803   3.596   3.873   3.796  1.0237 -0.3161  0.4304
   15MOL    S56 6804   3.796   4.099   3.447  0.0383 -0.1893 -0.0272
   15MOL    O57 6805   3.898   4.004   3.392  0.0016 -0.4801  0.1680
   15MOL    O58 6806   3.851   4.222   3.499 -0.1084 -0.0029 -0.0679
   15MOL    C59 6807   3.662   4.145   3.335 -1.0664  0.6513 -0.1706
   15MOL    C60 6808   3.649   4.278   3.284 -0.5015 -0.5717 -0.3438
   15MOL    C61 6809   3.536   4.309   3.202  0.1391  0.3066  0.5346
   15MOL    C62 6810   3.449   4.208   3.160 -0.1601 -0.5359  0.1325
   15MOL    C63 6811   3.468   4.076   3.206  0.0360 -0.6778 -0.0482
   15MOL    C64 6812   3.569   4.042   3.298 -0.0926  0.0976 -0.2470
   15MOL    O65 6813   3.348   4.245   3.070  0.5470  0.2549 -0.0699
   15MOL    H66 6814   3.758   3.740   3.782 -1.6519 -0.0047  1.1316
   15MOL    H67 6815   3.865   3.847   3.579  3.3389  0.4361  4.5810
   15MOL    H68 6816   3.572   4.158   3.616 -5.0095 -1.8514  0.1727
   15MOL    H69 6817   3.453   4.038   3.803  0.6703  0.4680  1.1015
   15MOL    H70 6818   3.723   4.352   3.311 -1.3100  0.0176  0.3051
   15MOL    H71 6819   3.512   4.410   3.172 -1.3633 -0.7465 -2.0101
   15MOL    H72 6820   3.407   3.997   3.166  1.0137 -1.8653  0.7619
   15MOL    H73 6821   3.591   3.938   3.315 -0.2792  0.1422  0.2614
   15MOL    C74 6822   3.128   4.167   3.129  0.4379  0.4674  0.3865
   15MOL    C75 6823   2.991   4.193   3.151  0.1961  0.4393  0.3327
   15MOL    C76 6824   2.949   4.318   3.190 -0.2426  0.2877 -0.2124
   15MOL    C77 6825   3.049   4.415   3.199 -0.2743  0.0139  0.2129
   15MOL    C78 6826   3.184   4.397   3.161 -0.5197 -0.2273  0.2268
   15MOL    C79 6827   3.224   4.267   3.124  0.4248 -0.1468  0.2977
   15MOL    S80 6828   2.780   4.339   3.254  0.0695 -0.1892  0.0089
   15MOL    O81 6829   2.785   4.471   3.317 -0.4956 -0.4536  0.4470
   15MOL    O82 6830   2.733   4.221   3.329 -0.3011 -0.1348 -0.9213
   15MOL    C83 6831   2.679   4.356   3.111 -0.2756 -0.1806 -0.5970
   15MOL    C84 6832   2.705   4.438   2.999  0.1204 -0.5436 -0.4253
   15MOL    C85 6833   2.631   4.426   2.878  0.0323 -0.0429  0.1064
   15MOL    C86 6834   2.536   4.323   2.862 -0.3051  0.2111  0.0946
   15MOL    C87 6835   2.505   4.244   2.974  0.4795  0.8690 -0.2943
   15MOL    C88 6836   2.576   4.261   3.098 -1.6356 -0.0379  0.5286
   15MOL    O89 6837   2.477   4.312   2.736 -0.3243  0.8128 -0.2514
   15MOL    H90 6838   3.157   4.072   3.086 -1.1859  0.7364 -1.3742
   15MOL    H91 6839   2.926   4.107   3.159  2.1900 -1.2008 -0.8741
   15MOL    H92 6840   3.015   4.513   3.229 -1.2194 -0.0484 -0.6249
   15MOL    H93 6841   3.260   4.474   3.164 -0.4440 -0.1098 -2.7731
   15MOL    H94 6842   2.796   4.495   3.012 -0.5394  0.0071  1.9132
   15MOL    H95 6843   2.659   4.477   2.787  0.7275  1.4073  1.1317
   15MOL    H96 6844   2.423   4.173   2.969 -0.4164  1.7113  2.0366
   15MOL    H97 6845   2.554   4.199   3.183  1.3900 -1.7045  0.1345
   15MOL    C98 6846   2.438   4.094   2.632  0.7386  0.1822 -0.0808
   15MOL    C99 6847   2.342   4.000   2.583 -0.2053 -0.2509  0.1507
   15MOL   C100 6848   2.207   4.019   2.611  0.2950  0.1485  0.2959
   15MOL   C101 6849   2.161   4.126   2.690 -0.3461 -0.6309 -0.5655
   15MOL   C102 6850   2.250   4.225   2.731 -0.2936  0.0089  0.3023
   15MOL   C103 6851   2.390   4.205   2.709  0.5690  0.6281 -0.3089
   15MOL   S104 6852   2.089   3.897   2.557  0.1980 -0.0384 -0.2523
   15MOL   O105 6853   1.952   3.954   2.583  0.1434  0.0323  0.3145
   15MOL   O106 6854   2.132   3.774   2.623  0.1727  0.1082 -0.5351
   15MOL   C107 6855   2.102   3.870   2.375 -0.2040 -0.0107 -0.8879
   15MOL   C108 6856   2.095   3.739   2.324 -0.3289 -0.3563  0.3508
   15MOL   C109 6857   2.108   3.711   2.184  0.3033 -0.0388 -0.3600
   15MOL   C110 6858   2.134   3.819   2.097  0.1018 -0.6899 -0.5534
   15MOL   C111 6859   2.120   3.952   2.140 -0.7155 -0.4439  0.8057
   15MOL   C112 6860   2.105   3.980   2.284 -0.4787 -0.1000  0.5171
   15MOL   O113 6861   2.168   3.800   1.974  0.1446  0.1761  0.2089
   15MOL   H114 6862   2.542   4.086   2.606  0.3471 -0.6506 -1.4861
   15MOL   H115 6863   2.364   3.916   2.519  0.5814  0.7024 -0.8436
   15MOL   H116 6864   2.058   4.136   2.721 -0.2141 -1.1320  0.0476
   15MOL   H117 6865   2.215   4.314   2.780 -1.3796  1.0090 -2.2346
   15MOL   H118 6866   2.096   3.658   2.395  0.3893 -1.7352 -1.2010
   15MOL   H119 6867   2.102   3.608   2.151 -0.0436 -0.5570  1.2674
   15MOL   H120 6868   2.132   4.030   2.067 -1.6334 -0.2512  0.8504
   15MOL   H121 6869   2.110   4.083   2.318  2.7466 -0.0525  0.0488
   15MOL   C122 6870   2.083   3.648   1.802  0.0953 -0.3779  0.0774
   15MOL   C123 6871   1.971   3.590   1.735 -0.3624 -0.3184 -0.2864
   15MOL   C124 6872   1.852   3.661   1.737 -0.0466 -0.7023 -0.1377
   15MOL   C125 6873   1.839   3.783   1.802  0.6159  0.2519 -0.1927
   15MOL   C126 6874   1.941   3.826   1.887 -0.5350 -0.2847  0.7294
   15MOL   C127 6875   2.068   3.764   1.883  0.2311 -0.0780 -0.1969
   15MOL   S128 6876   1.707   3.606   1.637 -0.2949 -0.0018 -0.0764
   15MOL   O129 6877   1.724   3.660   1.499 -0.2565  0.7504  0.6511
   15MOL   O130 6878   1.588   3.646   1.715  0.3093  0.7775  0.0763
   15MOL   C131 6879   1.710   3.428   1.631 -0.0581  0.0388  0.3973
   15MOL   C132 6880   1.657   3.358   1.732  0.7104  0.0417  0.0427
   15MOL   C133 6881   1.659   3.221   1.734 -0.6674 -0.2910 -0.5419
   15MOL   C134 6882   1.707   3.147   1.624  0.1085 -0.8238 -0.0059
   15MOL   C135 6883   1.757   3.222   1.511 -0.0747 -0.3832 -0.0216
   15MOL   C136 6884   1.755   3.360   1.514 -0.0975  0.1113 -0.4011
   15MOL   O137 6885   1.696   3.013   1.613  0.0986  0.0445 -0.9401
   15MOL   H138 6886   2.176   3.591   1.801 -0.6286 -1.5721 -0.3198
   15MOL   H139 6887   1.982   3.497   1.682  0.4458  0.8332 -2.2012
   15MOL   H140 6888   1.742   3.829   1.820 -0.7529 -2.1248 -1.2069
   15MOL   H141 6889   1.906   3.899   1.958  1.9762  0.5571  1.1685
   15MOL   H142 6890   1.616   3.416   1.813  1.7269 -0.9975  1.3206
   15MOL   H143 6891   1.629   3.165   1.821 -3.2411 -2.3656 -2.6758
   15MOL   H144 6892   1.798   3.179   1.421  1.6930 -2.5931  1.7674
   15MOL   H145 6893   1.794   3.424   1.436  1.6021  1.6458  1.6704
   15MOL   C146 6894   1.472   2.943   1.670  0.4283 -0.1664 -0.7371
   15MOL   C147 6895   1.340   2.915   1.625 -0.4323  0.5897  0.3994
   15MOL   C148 6896   1.309   2.888   1.493 -0.0063  0.2959  0.1965
   15MOL   C149 6897   1.414   2.889   1.398  0.3101  0.4546 -0.4066
   15MOL   C150 6898   1.546   2.930   1.442  0.4917 -0.8383 -0.0121
   15MOL   C151 6899   1.576   2.959   1.576  0.0114 -0.1647 -0.8322
   15MOL   S152 6900   1.137   2.857   1.435 -0.1586 -0.3426 -0.0390
   15MOL   O153 6901   1.130   2.932   1.312 -0.2367 -0.0730  0.4874
   15MOL   O154 6902   1.043   2.902   1.541  0.0265  0.0244  0.2047
   15MOL   C155 6903   1.099   2.679   1.410 -0.4137 -0.5486  0.1979
   15MOL   C156 6904   1.192   2.576   1.438 -0.5134 -0.5340 -0.5706
   15MOL   C157 6905   1.150   2.448   1.423  0.3424  0.2827  0.3266
   15MOL   C158 6906   1.019   2.424   1.376  0.2084 -0.9022 -0.3366
   15MOL   C159 6907   0.926   2.523   1.348  0.6011  0.0906 -0.5411
   15MOL   C160 6908   0.967   2.653   1.365 -1.0976 -0.6452  0.6188
   15MOL   O161 6909   0.980   2.294   1.379  0.4076 -0.5554  0.2613
   15MOL   H162 6910   1.489   2.961   1.775  0.9635 -2.4037 -0.4076
   15MOL   H163 6911   1.259   2.900   1.695 -0.3853 -1.4511  0.0557
   15MOL   H164 6912   1.386   2.876   1.295  0.0117 -0.8356 -0.1643
   15MOL   H165 6913   1.617   2.939   1.361 -2.4728  0.1762 -2.6139
   15MOL   H166 6914   1.291   2.595   1.477 -0.8852  1.4843 -0.5129
   15MOL   H167 6915   1.214   2.364   1.448  0.0380  0.1883  0.8037
   15MOL   H168 6916   0.821   2.502   1.333  0.3520  0.9045 -0.0073
   15MOL   H169 6917   0.899   2.737   1.355 -1.9066 -1.1934  1.4216
   15MOL   C170 6918   1.135   2.205   1.224  0.5331  0.0475 -0.0291
   15MOL   C171 6919   1.159   2.127   1.108  0.0124  0.7844 -0.0165
   15MOL   C172 6920   1.054   2.060   1.045  0.3273 -0.3228  0.0800
   15MOL   C173 6921   0.919   2.086   1.082 -0.3420  0.7561 -0.1411
   15MOL   C174 6922   0.893   2.178   1.188  0.2128 -0.0850  0.0055
   15MOL   C175 6923   1.001   2.231   1.262 -0.0240 -0.3289 -0.0836
   15MOL   S176 6924   1.089   1.941   0.919  0.3835 -0.0257  0.1810
   15MOL   O177 6925   1.223   1.967   0.866 -0.3261 -0.2773 -0.2720
   15MOL   O178 6926   0.969   1.935   0.834 -0.6173  0.4927 -0.4113
   15MOL   C179 6927   1.093   1.785   1.007  0.1556 -0.1738 -1.6694
   15MOL   C180 6928   1.166   1.673   0.953 -0.4279  0.0815  0.3774
   15MOL   C181 6929   1.167   1.547   1.017  0.1429  0.1411  0.1146
   15MOL   C182 6930   1.110   1.536   1.146 -0.8545  0.3586 -0.5799
   15MOL   C183 6931   1.039   1.646   1.202 -0.0669 -0.3386 -0.2684
   15MOL   C184 6932   1.027   1.768   1.135 -0.4800  0.1616  0.1834
   15MOL   O185 6933   1.133   1.423   1.214 -0.0185  0.2020 -0.2132
   15MOL   H186 6934   1.211   2.239   1.293  1.1963 -0.6476 -0.4167
   15MOL   H187 6935   1.261   2.105   1.079 -0.0291  1.5544 -0.7845
   15MOL   H188 6936   0.838   2.028   1.039  0.5888  0.5115 -1.6002
   15MOL   H189 6937   0.793   2.201   1.222  0.6842 -0.6026  1.7815
   15MOL   H190 6938   1.214   1.673   0.857 -1.5186 -1.2693 -0.1870
   15MOL   H191 6939   1.222   1.459   0.990  0.6507  0.2532  0.7481
   15MOL   H192 6940   1.010   1.624   1.304 -0.9389 -1.0602 -0.6628
   15MOL   H193 6941   0.968   1.845   1.183 -2.3028  0.6176 -2.6858
   15MOL   C194 6942   1.041   1.235   1.335 -0.1567 -0.4115  0.0946
   15MOL   C195 6943   0.939   1.154   1.381 -0.8482  0.0570  0.0094
   15MOL   C196 6944   0.817   1.168   1.316 -0.6985 -0.5256 -0.7829
   15MOL   C197 6945   0.800   1.249   1.204 -0.2041  0.2181  1.0452
   15MOL   C198 6946   0.907   1.335   1.168  0.3227  0.9915 -0.4095
   15MOL   C199 6947   1.027   1.331   1.237 -0.0561 -1.0791  0.1787
   15MOL   S200 6948   0.673   1.079   1.379 -0.5611  0.0622  0.4177
   15MOL   O201 6949   0.606   1.001   1.278  0.3855 -0.1822  0.7928
   15MOL   O202 6950   0.592   1.180   1.445 -0.0787 -1.0953 -0.1070
   15MOL   C203 6951   0.718   0.955   1.505 -0.3518  0.3610 -0.7084
   15MOL   C204 6952   0.833   0.875   1.493 -0.1755  0.0546  0.4059
   15MOL   C205 6953   0.870   0.786   1.596 -0.0520  0.3926  0.1489
   15MOL   C206 6954   0.785   0.783   1.711  0.3640  0.4077 -0.1963
   15MOL   C207 6955   0.673   0.865   1.734  0.2025  0.0666  0.3236
   15MOL   C208 6956   0.644   0.954   1.629  0.5910 -0.5452  0.1089
   15MOL   O209 6957   0.826   0.692   1.805  0.2077  0.0343 -0.3719
   15MOL   H210 6958   1.139   1.216   1.377  0.6310  1.4958 -0.7762
   15MOL   H211 6959   0.961   1.088   1.463  3.3627  0.4486 -0.7219
   15MOL   H212 6960   0.707   1.242   1.149  0.3534 -0.5811  0.1807
   15MOL   H213 6961   0.893   1.401   1.083  2.2727  0.8609 -0.8403
   15MOL   H214 6962   0.888   0.873   1.400  0.3598 -2.4572  0.7209
   15MOL   H215 6963   0.955   0.720   1.588 -0.5539 -0.6146  2.7334
   15MOL   H216 6964   0.613   0.854   1.823 -1.1865  0.0916 -0.5941
   15MOL   H217 6965   0.559   1.020   1.636  0.5688 -0.7065  1.4402
   15MOL   C218 6966   0.877   0.863   1.965 -0.1811 -1.1899 -0.2012
   15MOL   C219 6967   0.912   0.917   2.087 -0.0979  0.1786  0.2293
   15MOL   C220 6968   0.902   0.827   2.195  0.3095  0.8990  0.2227
   15MOL   C221 6969   0.852   0.693   2.175 -1.1134  0.5183  0.0534
   15MOL   C222 6970   0.821   0.647   2.048 -0.4968  0.9443 -0.1963
   15MOL   C223 6971   0.841   0.730   1.938 -0.1959 -0.6836 -0.9208
   15MOL   S224 6972   0.922   0.886   2.363  0.0092 -0.1864 -0.2386
   15MOL   O225 6973   0.855   0.790   2.452 -0.1323 -0.3416 -0.2030
   15MOL   O226 6974   0.887   1.032   2.356 -0.1346  0.8038 -0.2603
   15MOL   C227 6975   1.097   0.873   2.400 -0.8067 -0.2782  0.3106
   15MOL   C228 6976   1.185   0.920   2.304 -0.2335 -0.2752 -0.2035
   15MOL   C229 6977   1.324   0.936   2.334  0.3191  0.2222  0.1029
   15MOL   C230 6978   1.364   0.908   2.467 -0.4660 -0.4150 -0.3681
   15MOL   C231 6979   1.273   0.850   2.560 -0.8839 -0.2294 -0.0097
   15MOL   C232 6980   1.139   0.834   2.529 -0.1292 -0.6012  0.0376
   15MOL   O233 6981   1.499   0.905   2.508  0.2494 -0.3589  0.9868
   15MOL   H234 6982   0.904   0.925   1.881  3.0602 -0.5082  1.2232
   15MOL   H235 6983   0.942   1.021   2.097 -0.2048 -0.0267  3.2551
   15MOL   H236 6984   0.850   0.624   2.259 -3.0185 -1.5113 -1.6291
   15MOL   H237 6985   0.790   0.544   2.039 -1.1689  0.9491  1.8045
   15MOL   H238 6986   1.150   0.962   2.211  0.5360 -0.3232 -0.5253
   15MOL   H239 6987   1.399   0.975   2.267  0.8819 -2.0083 -0.5983
   15MOL   H240 6988   1.315   0.833   2.658  0.9175  1.4839 -0.4672
   15MOL   H241 6989   1.075   0.807   2.612  2.5474 -0.7111  2.1154
   15MOL   C242 6990   1.685   0.966   2.373 -0.2025 -0.0341 -0.4231
   15MOL   C243 6991   1.790   1.053   2.355 -0.0203  0.6231 -0.0194
   15MOL   C244 6992   1.789   1.174   2.423 -0.0538 -0.2397  0.2639
   15MOL   C245 6993   1.687   1.209   2.512 -0.0819  0.3528 -0.5199
   15MOL   C246 6994   1.591   1.119   2.544 -0.2627  0.2302  0.6036
   15MOL   C247 6995   1.590   1.000   2.472 -0.0401  0.4191  0.6477
   15MOL   S248 6996   1.917   1.290   2.396 -0.1436  0.1741  0.1921
   15MOL   O249 6997   2.048   1.219   2.397 -0.3637  0.5756 -0.1805
   15MOL   O250 6998   1.895   1.400   2.491 -0.2235 -0.3612 -0.1033
   15MOL   C251 6999   1.908   1.365   2.232  0.1970 -0.0611 -0.6444
   15MOL   C252 7000   1.834   1.300   2.136 -0.1369  0.3272  0.6235
   15MOL   C253 7001   1.815   1.362   2.010  0.2807 -0.3655  0.3651
   15MOL   C254 7002   1.885   1.483   1.977  0.2557 -0.3285 -0.1548
   15MOL   C255 7003   1.969   1.545   2.073  0.0268  0.4936  0.7696
   15MOL   C256 7004   1.975   1.486   2.203  0.3813  0.2730 -0.7611
   15MOL   O257 7005   1.882   1.544   1.853 -0.4479  0.2292  0.1691
   15MOL   H258 7006   1.686   0.866   2.331  2.1341  0.4168 -1.5249
   15MOL   H259 7007   1.867   1.027   2.284  0.7095 -0.9178  1.3110
   15MOL   H260 7008   1.690   1.305   2.560 -0.4771 -0.6747  1.6286
   15MOL   H261 7009   1.517   1.128   2.622 -0.6112 -0.8862  0.4112
   15MOL   H262 7010   1.787   1.203   2.147  1.0127 -0.1455  1.5031
   15MOL   H263 7011   1.741   1.318   1.944  0.8344  1.1065 -1.3090
   15MOL   H264 7012   2.019   1.639   2.056 -0.4350  0.8759  1.5059
   15MOL   H265 7013   2.026   1.526   2.289 -0.6911  2.8066 -1.2727
   15MOL   C266 7014   1.768   1.475   1.658  0.3920  0.1865  0.2557
   15MOL   C267 7015   1.664   1.488   1.567  0.0578 -1.3842 -0.2436
   15MOL   C268 7016   1.551   1.567   1.603 -0.8037 -0.5838  0.3127
   15MOL   C269 7017   1.547   1.630   1.729 -0.4963 -0.3678  0.9844
   15MOL   C270 7018   1.658   1.614   1.816  0.5512  0.6813  0.4621
   15MOL   C271 7019   1.765   1.539   1.779  0.5998  0.2184  0.2028
   15MOL   S272 7020   1.419   1.590   1.486 -0.0418 -0.3076 -0.5196
   15MOL   O273 7021   1.303   1.647   1.558 -1.2133  0.0994 -0.3192
   15MOL   O274 7022   1.408   1.464   1.412  0.1960 -0.1315 -0.1203
   15MOL   C275 7023   1.481   1.708   1.364  0.3585 -0.4408 -0.1934
   15MOL   C276 7024   1.398   1.729   1.254 -0.3709  0.9002  0.1516
   15MOL   C277 7025   1.433   1.825   1.153 -0.0170 -0.3734  0.0777
   15MOL   C278 7026   1.548   1.902   1.175 -0.0249  0.0205  0.3429
   15MOL   C279 7027   1.637   1.877   1.286  0.5212 -0.0162  0.2574
   15MOL   C280 7028   1.599   1.771   1.381 -0.9100 -0.5770  0.0736
   15MOL   O281 7029   1.598   1.982   1.080  0.3759  0.3587  0.0133
   15MOL   H282 7030   1.857   1.418   1.633 -0.4633 -1.6145  1.2347
   15MOL   H283 7031   1.663   1.443   1.469 -0.3492 -0.4828 -0.6521
   15MOL   H284 7032   1.468   1.693   1.768  0.0890  1.4814 -0.7072
   15MOL   H285 7033   1.652   1.650   1.917 -0.0958 -0.2549  0.7605
   15MOL   H286 7034   1.305   1.674   1.248  0.4624 -0.4372 -0.6371
   15MOL   H287 7035   1.376   1.821   1.061 -0.0370 -0.7748  0.1096
   15MOL   H288 7036   1.735   1.923   1.292  1.0831 -1.1422 -0.2024
   15MOL   H289 7037   1.656   1.754   1.471 -0.8248 -1.2514 -0.1056
   15MOL   C290 7038   1.496   2.132   0.926 -0.6204 -0.1788  0.0812
   15MOL   C291 7039   1.435   2.255   0.892  0.5228  0.2765 -0.5014
   15MOL   C292 7040   1.401   2.344   0.998  0.5210 -0.0529 -0.3220
   15MOL   C293 7041   1.441   2.323   1.131 -0.2096  0.3063  0.5922
   15MOL   C294 7042   1.514   2.198   1.160 -0.0578  0.3761 -0.3163
   15MOL   C295 7043   1.535   2.100   1.056  0.0136 -0.6538 -0.4709
   15MOL   S296 7044   1.316   2.500   0.972 -0.3972 -0.2120  0.2191
   15MOL   O297 7045   1.359   2.559   0.844  0.1264 -0.3582  1.0394
   15MOL   O298 7046   1.325   2.573   1.094 -0.2257 -0.3519 -0.0597
   15MOL   C299 7047   1.147   2.464   0.938  0.1685 -0.1685  0.0040
   15MOL   C300 7048   1.056   2.533   1.012  0.4556  0.3819 -0.4214
   15MOL   C301 7049   0.924   2.519   0.974  0.4928  0.1613  0.4317
   15MOL   C302 7050   0.888   2.452   0.857 -0.6081 -0.5443  0.5536
   15MOL   C303 7051   0.977   2.375   0.785 -0.1616 -0.4920  0.2454
   15MOL   C304 7052   1.110   2.389   0.823  0.2384  0.1313 -0.6826
   15MOL   O305 7053   0.758   2.462   0.817 -0.7288 -0.1626  0.3454
   15MOL   H306 7054   1.513   2.054   0.855 -0.9571  1.8375 -2.2861
   15MOL   H307 7055   1.402   2.269   0.791  0.8429  3.2707 -0.2364
   15MOL   H308 7056   1.412   2.391   1.209 -0.1418  1.9751 -0.8034
   15MOL   H309 7057   1.546   2.179   1.261  0.8629  0.4197 -0.5902
   15MOL   H310 7058   1.086   2.591   1.098  1.2970 -0.6473 -0.0176
   15MOL   H311 7059   0.847   2.567   1.032  0.6949 -0.6829  1.4272
   15MOL   H312 7060   0.957   2.328   0.689 -1.3049 -1.0919  0.7749
   15MOL   H313 7061   1.196   2.350   0.770  0.6138 -0.3208  0.2486
   15MOL   C314 7062   0.752   2.563   0.589  0.5158 -0.0194  0.1164
   15MOL   C315 7063   0.712   2.664   0.504  0.3712  0.0239  0.5337
   15MOL   C316 7064   0.644   2.780   0.551  0.0837 -0.3967  0.1280
   15MOL   C317 7065   0.618   2.787   0.693  0.1300  0.5349  0.3002
   15MOL   C318 7066   0.648   2.676   0.776 -0.3829 -0.7452  0.4113
   15MOL   C319 7067   0.722   2.564   0.732  0.4678 -0.0906  0.1369
   15MOL   S320 7068   0.591   2.910   0.439  0.4541  0.2856  0.2009
   15MOL   O321 7069   0.716   2.965   0.379 -0.0795  0.2466 -0.3015
   15MOL   O322 7070   0.504   3.001   0.513 -0.2614  0.0229 -0.4461
   15MOL   C323 7071   0.505   2.829   0.314  0.4436  0.5510  0.6526
   15MOL   C324 7072   0.506   2.874   0.182 -0.1030  0.0611  0.3367
   15MOL   C325 7073   0.425   2.809   0.084 -0.1144  0.3732  0.0027
   15MOL   C326 7074   0.359   2.684   0.107 -0.7087  0.3340 -0.2262
   15MOL   C327 7075   0.358   2.636   0.243  0.2504  0.1180 -0.0896
   15MOL   C328 7076   0.426   2.711   0.344  0.2852  0.2634 -0.4726
   15MOL   O329 7077   0.307   2.625   8.424 -0.3389 -0.7372  0.0162
   15MOL   H330 7078   0.817   2.483   0.558  2.0009  1.3469 -0.3309
   15MOL   H331 7079   0.742   2.661   0.400  0.3048 -0.2817  0.5239
   15MOL   H332 7080   0.551   2.865   0.726  0.2529  0.6516  0.2745
   15MOL   H333 7081   0.599   2.674   0.872  1.4214  0.7224  1.3950
   15MOL   H334 7082   0.555   2.967   0.158 -2.0952  1.0519 -0.0334
   15MOL   H335 7083   0.406   2.847   8.410 -3.7318 -0.9382  0.1182
   15MOL   H336 7084   0.318   2.540   0.273  0.9464  0.0923  0.8102
   15MOL   H337 7085   0.417   2.676   0.446 -0.6287 -0.1126 -0.6760
   15MOL   C338 7086   0.485   2.540   8.284  0.4120 -0.4172  0.7060
   15MOL   C339 7087   0.538   2.433   8.215 -0.1724  0.6759  0.4439
   15MOL   C340 7088   0.482   2.302   8.231  0.1351 -0.1411 -0.5368
   15MOL   C341 7089   0.372   2.288   8.322 -0.1402  0.4778 -0.5297
   15MOL   C342 7090   0.319   2.394   8.390  0.2573  0.3790  0.2035
   15MOL   C343 7091   0.374   2.522   8.369  0.2639  0.4457  0.2342
   15MOL   S344 7092   0.527   2.156   8.139  0.4011  0.2466  0.0535
   15MOL   O345 7093   0.603   2.206   8.024 -0.2191  0.7638 -0.1579
   15MOL   O346 7094   0.408   2.076   8.119 -0.0727  0.3137 -0.0547
   15MOL   C347 7095   0.643   2.069   8.242  0.5140  0.6233 -0.3085
   15MOL   C348 7096   0.634   2.076   8.384  0.4385  1.1490 -0.1749
   15MOL   C349 7097   0.715   1.996   0.033  0.1578  0.3239  0.6208
   15MOL   C350 7098   0.819   1.924   8.395 -0.0771  0.7858  0.6651
   15MOL   C351 7099   0.835   1.928   8.255 -0.1661  0.6951 -0.4012
   15MOL   C352 7100   0.740   1.995   8.182 -0.8960  0.1737  1.6038
   15MOL   O353 7101   0.878   1.845   0.057 -0.0261 -0.1417  0.7253
   15MOL   H354 7102   0.524   2.639   8.266 -0.7317 -0.1146 -0.2228
   15MOL   H355 7103   0.617   2.448   8.143 -0.4362 -0.2525 -0.0471
   15MOL   H356 7104   0.331   2.191   8.344 -0.8949  0.2720 -2.7103
   15MOL   H357 7105   0.231   2.376   0.024  0.8084  2.8247  1.8419
   15MOL   H358 7106   0.566   2.145   0.006  0.8124  1.1490  0.3699
   15MOL   H359 7107   0.700   1.995   0.140 -0.9692  0.7728  0.4766
   15MOL   H360 7108   0.908   1.867   8.204 -1.1042 -1.2693  0.5210
   15MOL   H361 7109   0.737   1.988   8.074  2.8519 -1.2514  1.5141
   15MOL   C362 7110   1.067   1.710   8.416 -0.4555  0.5191 -0.4878
   15MOL   C363 7111   1.113   1.585   8.361  0.0132  0.0501  0.5118
   15MOL   C364 7112   1.022   1.485   8.316  0.1544  0.0494 -0.1677
   15MOL   C365 7113   0.885   1.502   8.338  0.1744 -0.2187 -0.1970
   15MOL   C366 7114   0.843   1.622   8.391  0.0948  0.4564 -0.0146
   15MOL   C367 7115   0.930   1.724   0.011  0.2676 -0.4785 -0.7121
   15MOL   S368 7116   1.078   1.339   8.234 -0.0915  0.2390 -0.1488
   15MOL   O369 7117   1.208   1.368   8.172  0.7836 -0.3442  0.6560
   15MOL   O370 7118   0.966   1.276   8.161  0.2920  0.2829  0.5932
   15MOL   C371 7119   1.111   1.233   8.375 -0.9733  0.0793  0.5696
   15MOL   C372 7120   1.243   1.203   8.412 -0.1185  0.7758 -0.3759
   15MOL   C373 7121   1.267   1.120   0.101  0.2068  0.2249  0.2874
   15MOL   C374 7122   1.160   1.069   0.178  0.8191 -0.0433  0.8989
   15MOL   C375 7123   1.032   1.098   0.137 -0.6215  0.3989 -0.0639
   15MOL   C376 7124   1.010   1.176   0.023 -0.3257  0.9651 -0.4511
   15MOL   O377 7125   1.176   0.995   0.293 -0.6321  0.0220  0.0542
   15MOL   H378 7126   1.131   1.783   0.038 -0.3212  0.7556 -1.0406
   15MOL   H379 7127   1.217   1.562   8.345  0.0411 -1.3087  2.4941
   15MOL   H380 7128   0.812   1.427   8.310 -1.0987  1.5473 -1.7111
   15MOL   H381 7129   0.739   1.645   8.412  0.3313  0.6833  0.9454
   15MOL   H382 7130   1.324   1.244   8.354  1.1583  1.4970  1.8453
   15MOL   H383 7131   1.368   1.095   0.130  0.6795  1.7653  0.0552
   15MOL   H384 7132   0.950   1.053   0.192 -0.4181  2.0889  1.6816
   15MOL   H385 7133   0.909   1.193   8.412 -0.7292  0.2051  0.2995
   15MOL   C386 7134   1.087   1.173   0.433 -0.2485 -0.2850  0.2563
   15MOL   C387 7135   1.038   1.216   0.553 -1.0051 -0.4346 -0.1085
   15MOL   C388 7136   0.995   1.121   0.652 -0.4619  0.7600 -0.8020
   15MOL   C389 7137   1.020   0.985   0.630 -0.8034  0.6355  0.5142
   15MOL   C390 7138   1.084   0.943   0.513  0.7714 -0.1860 -0.1157
   15MOL   C391 7139   1.114   1.040   0.410 -0.7988  0.3226 -0.3805
   15MOL   S392 7140   0.925   1.176   0.805 -0.0405  0.1347 -0.2129
   15MOL   O393 7141   0.983   1.305   0.836  0.3166 -0.0100 -0.1818
   15MOL   O394 7142   0.951   1.066   0.894  0.4923 -0.3774 -0.5710
   15MOL   C395 7143   0.745   1.206   0.794 -0.6340  0.9557 -0.7097
   15MOL   C396 7144   0.703   1.301   0.704  0.2663 -0.3934 -0.3230
   15MOL   C397 7145   0.562   1.322   0.695  0.3330  0.0781 -0.0812
   15MOL   C398 7146   0.470   1.254   0.778  0.2997 -0.1371 -0.1589
   15MOL   C399 7147   0.516   1.159   0.871 -0.1009 -0.3339 -0.2530
   15MOL   C400 7148   0.658   1.141   0.885  0.7216 -0.1663  0.7262
   15MOL   O401 7149   0.341   1.284   0.760  0.1006  0.5597 -0.0779
   15MOL   H402 7150   1.110   1.245   0.356 -0.0007 -1.6254 -0.9567
   15MOL   H403 7151   1.011   1.321   0.552  2.4793  0.5574  1.5963
   15MOL   H404 7152   0.994   0.913   0.707 -2.5336 -0.0966 -0.7269
   15MOL   H405 7153   1.112   0.840   0.496 -0.0842 -0.5393  0.6004
   15MOL   H406 7154   0.776   1.344   0.637  1.2527  0.4645  1.2511
   15MOL   H407 7155   0.518   1.386   0.620 -1.7670 -1.9868 -0.6394
   15MOL   H408 7156   0.444   1.106   0.931  0.3628  0.4129  1.0042
   15MOL   H409 7157   0.689   1.064   0.954 -0.1861 -1.1798  0.0197
   15MOL   C410 7158   0.328   1.462   0.928 -0.1738  0.1858 -0.3733
   15MOL   C411 7159   0.251   1.550   1.009  0.1358  0.8064  0.0210
   15MOL   C412 7160   0.112   1.523   1.011  0.8155 -0.0065 -0.2503
   15MOL   C413 7161   0.058   1.408   0.957  0.3165 -0.3777 -0.1820
   15MOL   C414 7162   0.134   1.329   0.870  0.0896  0.4382  0.7192
   15MOL   C415 7163   0.270   1.351   0.856  0.5825 -0.1739 -0.1989
   15MOL   S416 7164   0.013   1.646   1.098  0.1001  0.0302 -0.1377
   15MOL   O417 7165   0.105   1.714   1.189  0.7313  0.2223 -0.5318
   15MOL   O418 7166   8.318   1.577   1.150 -0.0468 -0.3895 -0.5593
   15MOL   C419 7167   8.390   1.772   0.977 -0.1009  0.0129  0.3575
   15MOL   C420 7168   8.308   1.719   0.875  0.1183 -0.9431  0.3975
   15MOL   C421 7169   8.271   1.808   0.767 -0.5789 -0.1112  0.5011
   15MOL   C422 7170   8.315   1.943   0.763  0.3164 -0.7808 -0.4407
   15MOL   C423 7171   8.392   1.991   0.868 -0.0034 -0.1301  0.6576
   15MOL   C424 7172   8.424   1.910   0.983  0.7581  0.2203 -0.3497
   15MOL   O425 7173   8.277   2.029   0.664 -0.6621  0.4092 -0.3356
   15MOL   H426 7174   0.432   1.478   0.902  0.1681 -2.4823 -0.7683
   15MOL   H427 7175   0.294   1.640   1.050  1.5151 -0.7095  2.0213
   15MOL   H428 7176   8.381   1.373   0.969  0.6185 -1.5597 -0.9232
   15MOL   H429 7177   0.092   1.246   0.817  2.4009  1.2430 -2.5236
   15MOL   H430 7178   8.269   1.618   0.869 -1.5708 -0.3369  0.6945
   15MOL   H431 7179   8.211   1.769   0.685  0.6497 -0.8859 -0.0572
   15MOL   H432 7180   8.414   2.097   0.873 -1.7049  0.1909  1.8756
   15MOL   H433 7181   0.061   1.947   1.064  1.6931 -0.6356 -0.6634
   15MOL   C434 7182   8.138   1.952   0.488  0.3047  0.4922  0.0204
   15MOL   C435 7183   8.015   1.956   0.416  0.1020  0.0398  0.4324
   15MOL   C436 7184   7.905   2.010   0.482 -0.0605  0.1436 -0.1154
   15MOL   C437 7185   7.924   2.073   0.610  0.3488  0.0591  0.7168
   15MOL   C438 7186   8.046   2.081   0.676  0.5259  0.0228  0.1876
   15MOL   C439 7187   8.153   2.021   0.610 -0.1455 -0.5747  0.0526
   15MOL   S440 7188   7.742   2.014   0.405  0.0081  0.1084  0.0605
   15MOL   O441 7189   7.645   2.013   0.518  0.1424 -0.2834  0.1602
   15MOL   O442 7190   7.736   1.915   0.298  0.2067  0.3989  0.2158
   15MOL   C443 7191   7.737   2.176   0.333  0.3330 -0.5962  0.1889
   15MOL   C444 7192   7.774   2.295   0.397  0.0564 -0.2128 -0.7702
   15MOL   C445 7193   7.737   2.420   0.350  0.3938 -0.4591 -0.3927
   15MOL   C446 7194   7.677   2.433   0.220 -0.1441  0.1833  0.2521
   15MOL   C447 7195   7.666   2.309   0.141 -0.2617  0.1531  0.5017
   15MOL   C448 7196   7.694   2.184   0.201  0.4747  0.0149  0.1552
   15MOL   O449 7197   7.636   2.552   0.159  0.2984  0.6065  0.0879
   15MOL   H450 7198   8.226   1.904   0.448 -0.7112 -1.1992 -0.2087
   15MOL   H451 7199   8.006   1.894   0.329  2.1296 -1.1088  1.0018
   15MOL   H452 7200   7.840   2.120   0.660 -1.4389 -0.1815 -1.9657
   15MOL   H453 7201   8.063   2.145   0.762  0.0390  3.5879 -2.2524
   15MOL   H454 7202   7.808   2.285   0.500 -0.1136 -1.0284 -0.7945
   15MOL   H455 7203   7.767   2.507   0.407  0.1138 -1.6928  1.6699
   15MOL   H456 7204   7.635   2.320   0.038 -1.1108  1.6320  0.9052
   15MOL   H457 7205   7.676   2.093   0.144  0.5679 -0.1714  0.4234
   15MOL   C458 7206   7.745   2.737   0.283 -0.7744 -0.4698 -0.2881
   15MOL   C459 7207   7.731   2.844   0.369 -0.1583 -0.0288  0.0398
   15MOL   C460 7208   7.609   2.874   0.427 -0.1991 -0.1372 -0.0877
   15MOL   C461 7209   7.497   2.805   0.392 -0.2380 -0.9394 -0.1246
   15MOL   C462 7210   7.503   2.696   0.299 -0.2368 -0.1969 -0.2080
   15MOL   C463 7211   7.628   2.662   0.246 -0.7474  0.1136 -0.4046
   15MOL   S464 7212   7.588   3.020   0.532 -0.1582  0.2028  0.1980
   15MOL   O465 7213   7.494   2.983   0.643  0.0491 -0.5444 -0.4017
   15MOL   O466 7214   7.548   3.134   0.445  0.1467  0.5540 -0.0355
   15MOL   C467 7215   7.752   3.038   0.608 -0.2231 -0.6654 -0.5243
   15MOL   C468 7216   7.852   3.121   0.548 -0.1229  0.4844  0.6460
   15MOL   C469 7217   7.971   3.156   0.617  0.0525  0.2836 -0.4089
   15MOL   C470 7218   7.984   3.104   0.744  0.4145  0.0502  0.7980
   15MOL   C471 7219   7.891   3.016   0.802 -0.4475 -0.2757 -0.0908
   15MOL   C472 7220   7.767   2.994   0.739  0.3436 -0.7954  0.0355
   15MOL   O473 7221   8.090   3.139   0.824 -0.5862  0.0387  0.0265
   15MOL   H474 7222   7.841   2.702   0.248 -0.7721 -0.8283  0.0768
   15MOL   H475 7223   7.818   2.904   0.388 -0.4157  0.2621  0.3031
   15MOL   H476 7224   7.401   2.824   0.438 -1.1755 -1.7870 -1.6641
   15MOL   H477 7225   7.421   2.631   0.274  0.5301 -0.1244 -3.1170
   15MOL   H478 7226   7.829   3.165   0.452  0.2175 -1.4961 -0.3622
   15MOL   H479 7227   8.047   3.214   0.568 -0.5731  1.0351 -0.4906
   15MOL   H480 7228   7.899   2.978   0.902 -0.4031 -0.4467 -0.1588
   15MOL   H481 7229   7.691   2.936   0.789  0.4122 -2.2714 -1.5384
   15MOL   H482 7230   8.072   3.196   0.898  1.1902 -0.4983  0.9012
   16MOL     C1 7231   2.471   5.769   7.244  0.6731 -0.2647 -0.0560
   16MOL     C2 7232   2.494   5.700   7.365 -0.2037  0.5694  1.1290
   16MOL     C3 7233   2.409   5.589   7.406 -0.3783 -0.1160 -0.5301
   16MOL     C4 7234   2.301   5.553   7.324 -0.7874 -0.3601 -0.3407
   16MOL     C5 7235   2.281   5.625   7.203 -0.0690 -0.1853  0.5867
   16MOL     C6 7236   2.361   5.736   7.160 -0.3517  0.1345 -0.5362
   16MOL     S7 7237   2.440   5.488   7.549  0.1455 -0.1551  0.3541
   16MOL     O8 7238   2.494   5.365   7.484 -0.0053 -0.5921 -0.5756
   16MOL     O9 7239   2.317   5.487   7.630  0.7278  0.2649  0.4742
   16MOL    C10 7240   2.575   5.566   7.642 -0.0261 -0.3872 -0.4892
   16MOL    C11 7241   2.543   5.675   7.720 -0.4760 -0.2481 -0.3989
   16MOL    C12 7242   2.642   5.726   7.811  0.5985  0.2959 -0.9360
   16MOL    C13 7243   2.765   5.659   7.828 -0.5588  0.1908 -0.2530
   16MOL    C14 7244   2.793   5.552   7.741 -0.2137  0.0423 -0.2152
   16MOL    C15 7245   2.701   5.507   7.647 -0.2171  0.2201  0.5495
   16MOL    O16 7246   2.850   5.694   7.930  0.4889 -0.3091  0.4787
   16MOL    H17 7247   2.540   5.841   7.202 -0.2997  0.7738  0.0900
   16MOL    H18 7248   2.577   5.730   7.428  3.0923 -3.7337 -0.9017
   16MOL    H19 7249   2.228   5.474   7.338 -0.9852 -0.0483  0.3935
   16MOL    H20 7250   2.193   5.594   7.148  1.3246 -0.6327 -1.4644
   16MOL    H21 7251   2.441   5.712   7.720 -0.9325 -1.4685 -1.1965
   16MOL    H22 7252   2.615   5.810   7.872  1.0688 -0.2518  0.0423
   16MOL    H23 7253   2.891   5.509   7.754  0.1008  1.6012  2.8588
   16MOL    H24 7254   2.735   5.423   7.587 -0.2322  0.2668  0.4747
   16MOL    H25 7255   2.342   5.792   7.070  0.6155  2.7309  0.8128
   16MOL    C26 7256   2.914   5.915   7.847  0.5084  0.1775 -0.1034
   16MOL    C27 7257   2.974   6.041   7.879 -0.6030 -0.5653 -0.0683
   16MOL    C28 7258   3.004   6.079   8.014 -0.0585  0.0939  0.4405
   16MOL    C29 7259   2.978   5.986   8.116 -0.5786 -0.0463  0.3444
   16MOL    C30 7260   2.921   5.862   8.088 -0.2538 -0.8840 -0.5171
   16MOL    C31 7261   2.892   5.825   7.953 -0.9784 -0.1110 -0.0168
   16MOL    S32 7262   3.076   6.246   8.041  0.0987 -0.1385 -0.2843
   16MOL    O33 7263   3.116   6.297   7.907 -0.4031  0.0094 -0.2053
   16MOL    O34 7264   3.176   6.238   8.149  0.4830 -0.5936 -0.1512
   16MOL    C35 7265   2.937   6.351   8.087 -0.5536  0.1446 -0.3285
   16MOL    C36 7266   2.875   6.320   8.207  0.0851 -0.0575  0.1597
   16MOL    C37 7267   2.759   6.383   8.249  0.7415  0.4387 -0.4982
   16MOL    C38 7268   2.700   6.479   8.157 -0.4372  0.4093 -0.2827
   16MOL    C39 7269   2.765   6.514   8.040  0.0948  0.4430  0.2131
   16MOL    C40 7270   2.883   6.446   8.004 -1.0410  0.3604  0.6115
   16MOL    O41 7271   2.578   6.540   8.183  0.3584 -0.0581 -0.4917
   16MOL    H42 7272   2.892   5.890   7.744 -0.6714 -1.3356  0.4957
   16MOL    H43 7273   2.994   6.109   7.797  0.5770 -0.1736  0.5261
   16MOL    H44 7274   3.018   6.011   8.213  3.1609 -2.5815 -0.4187
   16MOL    H45 7275   2.888   5.796   8.166  0.3054 -0.2533  0.2649
   16MOL    H46 7276   2.916   6.244   8.272  1.5505  1.0753  0.5993
   16MOL    H47 7277   2.707   6.353   8.339 -0.2228 -0.2589 -1.2722
   16MOL    H48 7278   2.736   6.598   7.978  1.2304  2.0401  1.7923
   16MOL    H49 7279   2.919   6.481   7.908 -1.5758 -0.3090  0.1611
   16MOL    C50 7280   2.627   6.722   8.330 -0.8111  0.1959 -0.2856
   16MOL    C51 7281   2.625   6.861   8.359  0.2601 -0.0821  0.6673
   16MOL    C52 7282   2.565   6.951   8.271  0.8035  0.4593 -0.6354
   16MOL    C53 7283   2.524   6.910   8.140 -0.2631  0.6490  0.4676
   16MOL    C54 7284   2.535   6.767   8.109 -0.8900  0.0211  0.7064
   16MOL    C55 7285   2.578   6.677   8.206 -0.0061 -0.2535 -1.3621
   16MOL    S56 7286   2.544   7.121   8.321  0.3283  0.2459  0.0020
   16MOL    O57 7287   2.531   7.126   0.039  0.4661 -1.2184  0.2186
   16MOL    O58 7288   2.442   7.189   8.246 -0.1206 -0.0264  0.2949
   16MOL    C59 7289   2.701   7.199   8.267  0.0753 -0.1282 -0.1648
   16MOL    C60 7290   2.721   7.228   8.133  0.1690  0.1928  0.1530
   16MOL    C61 7291   2.829   7.303   8.086  0.9250  0.1721  0.4865
   16MOL    C62 7292   2.924   7.346   8.178  0.5155  0.4737  0.7213
   16MOL    C63 7293   2.908   7.309   8.313 -0.7843  0.0862  0.6354
   16MOL    C64 7294   2.796   7.239   8.362 -0.3547  0.2564 -0.1000
   16MOL    O65 7295   3.033   7.422   8.140  0.1518  0.4923  0.6530
   16MOL    H66 7296   2.658   6.648   8.403 -1.1564  0.4166  0.0889
   16MOL    H67 7297   2.650   6.889   0.035  0.0402 -0.9567  0.9688
   16MOL    H68 7298   2.479   6.977   8.069 -1.0650  0.9824  1.2874
   16MOL    H69 7299   2.498   6.724   8.017 -2.6603  0.6765  1.0809
   16MOL    H70 7300   2.639   7.196   8.069 -0.2736  0.9730  0.3212
   16MOL    H71 7301   2.847   7.329   7.983  0.7055 -1.7774 -0.0753
   16MOL    H72 7302   2.989   7.338   8.378  0.1048 -1.2509  0.1550
   16MOL    H73 7303   2.789   7.222   0.043  0.1171 -1.1864 -0.2980
   16MOL    C74 7304   3.213   7.421   7.973 -0.1695  0.7167  0.5027
   16MOL    C75 7305   3.336   7.370   7.930  0.3515  0.3491 -0.3639
   16MOL    C76 7306   3.406   7.279   8.011 -0.4267 -0.8678  0.4055
   16MOL    C77 7307   3.342   7.215   8.118 -0.1033  0.1060 -0.0013
   16MOL    C78 7308   3.208   7.261   8.152 -0.1992 -0.4488  0.1121
   16MOL    C79 7309   3.147   7.366   8.083  0.1313  0.8530 -0.1369
   16MOL    S80 7310   3.569   7.228   7.961  0.0406 -0.3262 -0.3527
   16MOL    O81 7311   3.620   7.152   8.072  0.3154  0.3731 -0.7584
   16MOL    O82 7312   3.646   7.343   7.908  0.4327 -0.0280 -0.1407
   16MOL    C83 7313   3.552   7.103   7.837  0.4971  0.1026  0.0694
   16MOL    C84 7314   3.563   6.966   7.876  0.7002  0.0554 -0.0228
   16MOL    C85 7315   3.556   6.871   7.770 -0.0372 -0.4694  0.1795
   16MOL    C86 7316   3.523   6.904   7.636 -0.2627 -0.9440 -0.1229
   16MOL    C87 7317   3.511   7.040   7.606  0.8372 -0.3403 -0.2258
   16MOL    C88 7318   3.526   7.144   7.705 -0.4450 -0.5542  0.4140
   16MOL    O89 7319   3.507   6.808   7.539  0.3258 -0.1105  0.0147
   16MOL    H90 7320   3.160   7.500   7.921  1.3486  0.5987 -1.2912
   16MOL    H91 7321   3.378   7.418   7.843 -1.3434  2.2838 -0.1542
   16MOL    H92 7322   3.388   7.137   8.177  1.0658  1.3224  0.7277
   16MOL    H93 7323   3.159   7.215   8.237  2.1204 -1.4250  0.9436
   16MOL    H94 7324   3.580   6.940   7.980  0.5926  0.6005  0.1354
   16MOL    H95 7325   3.588   6.770   7.795  1.1734 -0.5639 -1.6392
   16MOL    H96 7326   3.488   7.073   7.505 -1.7204  0.4333  0.5565
   16MOL    H97 7327   3.524   7.249   7.679  1.0575 -0.5778  0.1478
   16MOL    C98 7328   3.372   6.614   7.488 -0.1716 -0.0374 -0.6188
   16MOL    C99 7329   3.251   6.548   7.475  0.0891  0.4045  0.3928
   16MOL   C100 7330   3.137   6.616   7.512  0.4879  0.1963 -0.0555
   16MOL   C101 7331   3.140   6.747   7.564 -0.2288 -0.6370 -0.3874
   16MOL   C102 7332   3.262   6.816   7.572 -0.3402  0.3942  0.8396
   16MOL   C103 7333   3.383   6.746   7.533 -0.1604 -0.3332 -0.1821
   16MOL   S104 7334   2.969   6.553   7.493 -0.4207 -0.2220  0.0775
   16MOL   O105 7335   2.905   6.636   7.391  0.2890  0.1234  0.7287
   16MOL   O106 7336   2.912   6.533   7.625  0.3233  0.2659  0.0151
   16MOL   C107 7337   2.984   6.387   7.436 -0.0286  0.6339  0.9081
   16MOL   C108 7338   2.934   6.346   7.309  0.2960 -0.0628  0.3504
   16MOL   C109 7339   2.946   6.216   7.261  0.8644  0.3796 -0.7673
   16MOL   C110 7340   3.021   6.128   7.337 -0.0548  0.1763 -0.1511
   16MOL   C111 7341   3.082   6.166   7.458  0.4796 -0.4940 -0.2327
   16MOL   C112 7342   3.056   6.296   7.509 -0.0319 -0.5618  0.0410
   16MOL   O113 7343   3.041   5.998   7.299  0.6808 -0.2685 -0.1932
   16MOL   H114 7344   3.466   6.567   7.462  0.4003  1.0808 -0.5819
   16MOL   H115 7345   3.257   6.448   7.434 -3.1654  0.6186 -0.7863
   16MOL   H116 7346   3.048   6.795   7.595  0.4034  0.7035 -0.5423
   16MOL   H117 7347   3.267   6.918   7.609 -0.6114  0.4590  0.7017
   16MOL   H118 7348   2.884   6.418   7.246 -1.0876  0.3652  1.8964
   16MOL   H119 7349   2.903   6.200   7.163 -1.6006  0.5387  0.2721
   16MOL   H120 7350   3.136   6.099   7.522 -1.3669 -1.0633  0.7471
   16MOL   H121 7351   3.091   6.329   7.606  1.4311 -0.4984 -0.4988
   16MOL   C122 7352   3.110   5.875   7.107 -0.2694 -0.4291  0.2618
   16MOL   C123 7353   3.200   5.850   6.996  0.2670  0.2565 -0.0536
   16MOL   C124 7354   3.325   5.915   6.989  1.0812  0.2226  0.1005
   16MOL   C125 7355   3.366   5.999   7.093  0.2270 -0.9053 -0.1267
   16MOL   C126 7356   3.263   6.035   7.184  0.1737  0.0784 -0.3956
   16MOL   C127 7357   3.135   5.976   7.199 -0.1314 -0.1735 -0.4675
   16MOL   S128 7358   3.453   5.857   6.879  0.3315  0.2020 -0.4278
   16MOL   O129 7359   3.577   5.897   6.941  0.3788 -0.4513 -0.3263
   16MOL   O130 7360   3.415   5.906   6.742 -0.4996 -0.0081  0.4818
   16MOL   C131 7361   3.432   5.681   6.877  0.4346  0.1046  0.7911
   16MOL   C132 7362   3.460   5.604   6.992 -0.5094  0.1149 -0.7292
   16MOL   C133 7363   3.449   5.464   6.993  0.3904  0.1301 -0.1589
   16MOL   C134 7364   3.400   5.400   6.871  0.2172  0.8935 -1.3106
   16MOL   C135 7365   3.360   5.475   6.761  0.5745  0.0722  0.1214
   16MOL   C136 7366   3.376   5.617   6.757 -0.3125 -0.2810 -0.1746
   16MOL   O137 7367   3.387   5.260   6.870 -0.0980  0.2756 -0.4535
   16MOL   H138 7368   3.025   5.814   7.133 -0.5603 -0.4460 -0.7009
   16MOL   H139 7369   3.189   5.767   6.928 -0.2436 -0.2676  0.6672
   16MOL   H140 7370   3.464   6.044   7.097  0.7988 -2.1645  0.4009
   16MOL   H141 7371   3.289   6.112   7.254  0.7888 -0.8759  0.4373
   16MOL   H142 7372   3.514   5.653   7.072 -1.6922  1.4660 -0.7155
   16MOL   H143 7373   3.473   5.410   7.083 -0.2715 -2.0036 -1.2002
   16MOL   H144 7374   3.331   5.410   6.680  0.1701  0.0954  0.2489
   16MOL   H145 7375   3.348   5.681   6.675  2.8078  0.1233 -0.9896
   16MOL   C146 7376   3.188   5.135   6.829 -0.1355  0.1497 -0.4114
   16MOL   C147 7377   3.074   5.060   6.868 -0.1759 -1.1352 -0.4598
   16MOL   C148 7378   3.038   5.069   7.007  0.1629  0.1353  1.3048
   16MOL   C149 7379   3.123   5.131   7.103  0.3035 -0.4730 -0.4028
   16MOL   C150 7380   3.242   5.199   7.056  0.6290  0.1333 -0.4963
   16MOL   C151 7381   3.270   5.205   6.918 -0.2734 -0.3571  0.5080
   16MOL   S152 7382   2.907   4.957   7.055 -0.5251 -0.6032 -0.1771
   16MOL   O153 7383   2.818   4.914   6.944 -0.6326  0.1789  0.0685
   16MOL   O154 7384   2.835   5.012   7.176 -0.0312  0.0763 -0.1811
   16MOL   C155 7385   3.001   4.819   7.107  0.1202  0.0923 -0.1361
   16MOL   C156 7386   2.962   4.761   7.229 -0.1513  0.3990 -0.2626
   16MOL   C157 7387   3.037   4.652   7.278  0.2185  0.0099  0.1815
   16MOL   C158 7388   3.152   4.616   7.211  0.2517  0.4676 -0.0366
   16MOL   C159 7389   3.185   4.665   7.083 -0.8091 -0.5356 -0.4852
   16MOL   C160 7390   3.100   4.765   7.027 -0.7960 -0.4915 -0.3837
   16MOL   O161 7391   3.229   4.519   7.268 -0.3641  0.2207 -0.3144
   16MOL   H162 7392   3.222   5.131   6.727  0.1360 -2.6958 -0.2430
   16MOL   H163 7393   3.028   5.001   6.791  0.2978 -1.3335 -0.5936
   16MOL   H164 7394   3.104   5.121   7.209 -0.6508  3.7837 -0.0940
   16MOL   H165 7395   3.302   5.256   7.125  0.5375  2.0027 -1.9163
   16MOL   H166 7396   2.882   4.796   7.294  0.7665  0.8004  0.6780
   16MOL   H167 7397   3.002   4.609   7.371 -2.2082 -0.2830 -0.8318
   16MOL   H168 7398   3.267   4.620   7.028  1.1225  1.6320  0.5503
   16MOL   H169 7399   3.110   4.802   6.926 -2.9134 -1.2542 -0.8971
   16MOL   C170 7400   3.394   4.640   7.409  0.0482  0.2475 -0.1690
   16MOL   C171 7401   3.438   4.677   7.538 -0.6800  0.1976  0.3202
   16MOL   C172 7402   3.369   4.622   7.649 -0.3395  0.1744  0.6260
   16MOL   C173 7403   3.267   4.524   7.639  0.6843  0.0930 -0.0303
   16MOL   C174 7404   3.229   4.491   7.507 -0.6003  0.4387  0.2016
   16MOL   C175 7405   3.287   4.549   7.391 -0.8265  0.0101 -0.9467
   16MOL   S176 7406   3.406   4.679   7.817 -0.2470  0.5450 -0.3777
   16MOL   O177 7407   3.521   4.769   7.806  0.5495  0.6108 -0.0022
   16MOL   O178 7408   3.409   4.557   7.897 -0.0081  0.2466  0.0327
   16MOL   C179 7409   3.273   4.783   7.864 -0.0955 -0.2843  0.2240
   16MOL   C180 7410   3.198   4.760   7.981  0.5048 -0.0888 -0.1223
   16MOL   C181 7411   3.100   4.851   8.022  0.1252  0.2715  0.2171
   16MOL   C182 7412   3.077   4.962   7.940 -0.1887 -0.3062 -0.0476
   16MOL   C183 7413   3.152   4.993   7.824 -0.0295 -0.3225 -0.3053
   16MOL   C184 7414   3.247   4.899   7.786 -0.3246  0.0996  0.4647
   16MOL   O185 7415   2.972   5.051   7.963 -0.1484 -0.4551 -0.3166
   16MOL   H186 7416   3.431   4.681   7.317  0.8447 -0.9011 -0.3656
   16MOL   H187 7417   3.518   4.747   7.558  1.2881 -1.8755 -0.0341
   16MOL   H188 7418   3.223   4.474   7.724  2.6407 -1.1121  0.2923
   16MOL   H189 7419   3.146   4.423   7.500  0.7883 -1.3247  0.5176
   16MOL   H190 7420   3.223   4.673   8.040  0.6967  0.7036  0.9836
   16MOL   H191 7421   3.043   4.821   8.109  0.1403 -0.5362 -0.0519
   16MOL   H192 7422   3.131   5.082   7.767  1.4297 -0.9311 -1.8304
   16MOL   H193 7423   3.303   4.915   7.695 -3.8034  0.8327 -1.6296
   16MOL   C194 7424   3.051   5.171   8.162 -0.5173  0.3791  0.0500
   16MOL   C195 7425   3.032   5.284   8.243  0.0171 -0.5800  0.2175
   16MOL   C196 7426   2.951   5.389   8.192 -0.2512  0.1069 -0.6966
   16MOL   C197 7427   2.909   5.390   8.059 -0.1480  0.1876  0.3816
   16MOL   C198 7428   2.928   5.275   7.978  0.6922 -0.7788 -0.1229
   16MOL   C199 7429   2.993   5.166   8.029  0.5812 -0.2958 -0.3220
   16MOL   S200 7430   2.914   5.536   8.295  0.0422  0.4003 -0.1603
   16MOL   O201 7431   2.789   5.595   8.246  0.4255 -0.1299  0.3831
   16MOL   O202 7432   3.034   5.618   8.307  0.3046 -0.9521 -0.1892
   16MOL   C203 7433   2.863   5.468   0.031 -0.5245  0.3077 -0.0660
   16MOL   C204 7434   2.941   5.492   0.147 -0.0509  0.4053  0.2278
   16MOL   C205 7435   2.904   5.441   0.273  0.6498 -0.4431 -0.2171
   16MOL   C206 7436   2.804   5.347   0.277 -0.1239  0.2237 -0.3548
   16MOL   C207 7437   2.725   5.317   0.159  0.1181 -0.8267 -0.4483
   16MOL   C208 7438   2.751   5.384   0.038  0.1209  0.0149  0.0137
   16MOL   O209 7439   2.792   5.276   0.390  0.2265  0.2144  0.0702
   16MOL   H210 7440   3.105   5.092   8.213 -0.6026  0.1420 -0.2277
   16MOL   H211 7441   3.056   5.284   8.349  2.3577 -0.2132 -0.2839
   16MOL   H212 7442   2.858   5.477   8.020 -0.5610  0.1839  0.9098
   16MOL   H213 7443   2.895   5.261   7.876  0.6050 -0.6168 -0.1168
   16MOL   H214 7444   3.014   5.571   0.149 -0.0245  0.3580  1.1042
   16MOL   H215 7445   2.967   5.466   0.357 -0.2061  1.1973 -0.0491
   16MOL   H216 7446   2.647   5.243   0.168 -0.7874  0.5232  3.9715
   16MOL   H217 7447   2.689   5.354   8.381 -0.0375  1.7474 -0.5093
   16MOL   C218 7448   2.985   5.149   0.467  1.2455  0.0876 -0.3627
   16MOL   C219 7449   3.049   5.022   0.469 -0.7048  0.1844 -0.3345
   16MOL   C220 7450   2.995   4.910   0.398 -0.6091 -0.2500  0.1007
   16MOL   C221 7451   2.873   4.923   0.326 -0.1993 -0.5806  0.1352
   16MOL   C222 7452   2.811   5.045   0.326 -0.0817  0.4152  0.2672
   16MOL   C223 7453   2.861   5.154   0.397 -0.4563  0.0821 -0.1806
   16MOL   S224 7454   3.079   4.755   0.408  0.2362  0.1009 -0.2030
   16MOL   O225 7455   2.979   4.651   0.396  0.1245 -0.0559  0.7803
   16MOL   O226 7456   3.168   4.753   0.526 -0.0512 -0.0893  0.1352
   16MOL   C227 7457   3.183   4.746   0.262 -0.1188 -0.3712 -0.2145
   16MOL   C228 7458   3.318   4.780   0.262  0.1434  0.9124  0.0678
   16MOL   C229 7459   3.393   4.776   0.144 -0.8244 -0.5806 -0.4783
   16MOL   C230 7460   3.327   4.749   0.026 -0.0538  0.2041 -0.0846
   16MOL   C231 7461   3.186   4.722   0.021 -1.0017 -0.2216 -0.1823
   16MOL   C232 7462   3.117   4.713   0.148  0.3933 -0.6324 -0.3831
   16MOL   O233 7463   3.401   4.768   8.334 -0.1918 -0.7479  0.1575
   16MOL   H234 7464   3.010   5.241   0.516 -2.7912  1.5088 -0.7647
   16MOL   H235 7465   3.133   5.006   0.536 -0.3920 -0.8576 -0.9598
   16MOL   H236 7466   2.840   4.831   0.278  1.2539 -0.8005 -0.4586
   16MOL   H237 7467   2.711   5.056   0.287 -0.0658  0.1441  0.1447
   16MOL   H238 7468   3.372   4.805   0.352  2.8076  0.9201 -1.4983
   16MOL   H239 7469   3.492   4.818   0.134 -2.2852  3.1772 -0.0157
   16MOL   H240 7470   3.131   4.715   8.354 -1.1081 -1.5168 -0.0312
   16MOL   H241 7471   3.012   4.689   0.158  0.1587  1.0065  1.3783
   16MOL   C242 7472   3.445   4.534   8.272 -0.0318  0.1008 -0.4143
   16MOL   C243 7473   3.527   4.440   8.210 -0.0023 -0.0682 -0.0030
   16MOL   C244 7474   3.640   4.478   8.138 -0.0468 -0.5736  0.1049
   16MOL   C245 7475   3.678   4.611   8.142  0.7815 -0.0444 -0.3567
   16MOL   C246 7476   3.599   4.707   8.208  0.7593  0.1664  0.3792
   16MOL   C247 7477   3.484   4.668   8.278  0.3411 -0.7581  0.4534
   16MOL   S248 7478   3.747   4.347   8.068  0.1469 -0.0221 -0.1318
   16MOL   O249 7479   3.674   4.219   8.080  0.0727  0.0645 -0.4791
   16MOL   O250 7480   3.882   4.359   8.114 -0.4600 -0.3298 -0.7370
   16MOL   C251 7481   3.752   4.376   7.889 -0.2242 -0.0383 -0.0581
   16MOL   C252 7482   3.764   4.263   7.806  0.0022 -0.0324  0.1502
   16MOL   C253 7483   3.770   4.285   7.668  0.2241 -0.1775  0.6571
   16MOL   C254 7484   3.746   4.409   7.606  0.3634 -0.4285 -0.4006
   16MOL   C255 7485   3.740   4.522   7.695  0.6321  0.0073 -0.3633
   16MOL   C256 7486   3.733   4.504   7.836 -1.0070 -0.2414  0.3272
   16MOL   O257 7487   3.757   4.428   7.469 -0.3365 -0.1575 -0.5356
   16MOL   H258 7488   3.354   4.500   8.321  0.2509  1.3782  1.0137
   16MOL   H259 7489   3.495   4.337   8.220  0.6376 -0.2440  0.3027
   16MOL   H260 7490   3.766   4.641   8.087 -0.2899 -0.6736 -2.4947
   16MOL   H261 7491   3.633   4.809   8.207  1.3930 -0.0269  1.2386
   16MOL   H262 7492   3.778   4.168   7.855  0.4353 -0.0536 -0.0050
   16MOL   H263 7493   3.785   4.198   7.607  1.8526  0.8179 -0.4053
   16MOL   H264 7494   3.714   4.619   7.656 -0.6700 -0.5317 -0.8651
   16MOL   H265 7495   3.720   4.590   7.901 -0.3087 -0.7609  1.1660
   16MOL   C266 7496   3.551   4.317   7.414 -0.1096 -0.1920  0.1529
   16MOL   C267 7497   3.483   4.208   7.367 -0.2455 -0.7774 -0.2249
   16MOL   C268 7498   3.555   4.105   7.290 -0.4338 -0.0713  0.2283
   16MOL   C269 7499   3.692   4.127   7.260  0.3891  0.0026  0.2143
   16MOL   C270 7500   3.761   4.244   7.311  0.4751  0.9481  0.1982
   16MOL   C271 7501   3.694   4.330   7.397 -0.1578 -0.7056 -0.5289
   16MOL   S272 7502   3.478   3.957   7.247 -0.2213  0.3609 -0.2256
   16MOL   O273 7503   3.338   3.967   7.293 -0.2360 -0.4193 -0.1292
   16MOL   O274 7504   3.572   3.854   7.296  0.4143  0.1365  0.2344
   16MOL   C275 7505   3.472   3.937   7.071  0.0836 -0.0402  0.0105
   16MOL   C276 7506   3.484   4.046   6.979 -0.2261  0.3121 -0.3271
   16MOL   C277 7507   3.475   4.036   6.840  0.4755  0.4336 -0.4748
   16MOL   C278 7508   3.450   3.909   6.786  0.7217 -0.2033  0.1552
   16MOL   C279 7509   3.441   3.795   6.874 -0.1834  0.3278  0.0190
   16MOL   C280 7510   3.447   3.805   7.016 -0.0747 -0.3134 -0.5412
   16MOL   O281 7511   3.459   3.890   6.649 -0.1304  0.2281  0.3121
   16MOL   H282 7512   3.497   4.395   7.465  1.3045  1.0278 -0.1757
   16MOL   H283 7513   3.375   4.198   7.365 -0.3888  0.4896  0.6221
   16MOL   H284 7514   3.739   4.052   7.198  0.7420 -1.0165  1.7031
   16MOL   H285 7515   3.869   4.248   7.304  0.6033 -0.5309  1.1909
   16MOL   H286 7516   3.485   4.146   7.020  1.5361  0.3365 -0.3696
   16MOL   H287 7517   3.510   4.122   6.785  1.4155  0.0237 -0.5285
   16MOL   H288 7518   3.421   3.697   6.834 -1.7036  0.0211  1.4596
   16MOL   H289 7519   3.431   3.712   7.068 -0.7383 -0.4726 -1.0258
   16MOL   C290 7520   3.220   3.908   6.601  0.0137 -0.6922  0.0287
   16MOL   C291 7521   3.121   3.969   6.523 -0.7867 -0.6670 -0.3357
   16MOL   C292 7522   3.150   4.062   6.422  0.1744 -0.9846 -0.2077
   16MOL   C293 7523   3.278   4.114   6.412 -0.2879  0.1048 -0.7227
   16MOL   C294 7524   3.378   4.059   6.498  0.1170  0.2718 -0.5647
   16MOL   C295 7525   3.355   3.955   6.586 -0.3865 -0.2507 -0.2040
   16MOL   S296 7526   3.016   4.108   6.319  0.4224 -0.3106 -0.1076
   16MOL   O297 7527   2.885   4.071   6.377  0.1487 -0.3167  0.0398
   16MOL   O298 7528   3.041   4.054   6.183  0.1836 -0.1282 -0.2843
   16MOL   C299 7529   3.020   4.292   6.293  0.1531 -0.1351 -1.0708
   16MOL   C300 7530   3.099   4.345   6.192  0.2194 -0.1477  0.9771
   16MOL   C301 7531   3.110   4.485   6.166 -0.6014  0.2691 -0.1540
   16MOL   C302 7532   3.015   4.567   6.225 -0.7582  0.0044 -0.0049
   16MOL   C303 7533   2.931   4.516   6.328 -0.0974 -0.9986  0.3638
   16MOL   C304 7534   2.924   4.383   6.358 -0.0544  0.2097  0.0765
   16MOL   O305 7535   3.020   4.700   6.185 -0.4208 -0.0737  0.0468
   16MOL   H306 7536   3.198   3.841   6.683  0.0690  1.2899  1.7066
   16MOL   H307 7537   3.019   3.939   6.541 -0.6176 -0.0499  1.6850
   16MOL   H308 7538   3.316   4.187   6.342  1.1964 -0.9244 -1.0141
   16MOL   H309 7539   3.477   4.100   6.488  0.9312 -1.0557  1.7211
   16MOL   H310 7540   3.154   4.275   6.131 -1.1109  1.0436 -1.6857
   16MOL   H311 7541   3.175   4.522   6.089  1.0466  2.3307  2.1579
   16MOL   H312 7542   2.859   4.579   6.379 -0.3507  0.4918 -1.7990
   16MOL   H313 7543   2.865   4.334   6.434 -0.4178  2.7365  1.4636
   16MOL   C314 7544   3.028   4.819   6.399  0.5875  0.2712  0.2977
   16MOL   C315 7545   2.981   4.933   6.472  0.4357 -0.1247 -0.7988
   16MOL   C316 7546   2.878   5.011   6.417 -0.7651  0.3494  0.2871
   16MOL   C317 7547   2.833   4.991   6.278 -0.3509 -0.3277 -0.0159
   16MOL   C318 7548   2.879   4.877   6.211 -0.0980  0.3603 -0.9135
   16MOL   C319 7549   2.976   4.798   6.268 -0.2188  0.1580  0.1444
   16MOL   S320 7550   2.822   5.162   6.495 -0.2052 -0.0581  0.1061
   16MOL   O321 7551   2.858   5.168   6.637  0.2894 -0.1035  0.2735
   16MOL   O322 7552   2.679   5.175   6.460  0.4844 -0.0875  0.2517
   16MOL   C323 7553   2.922   5.289   6.412  0.2001 -0.0985  0.4601
   16MOL   C324 7554   2.876   5.353   6.299  0.3488  0.2245 -0.5966
   16MOL   C325 7555   2.962   5.438   6.230  0.6834  0.1702 -0.2602
   16MOL   C326 7556   3.097   5.460   6.272  0.4556 -0.1010 -0.9250
   16MOL   C327 7557   3.145   5.374   6.372  0.8608 -0.4125 -0.2755
   16MOL   C328 7558   3.052   5.305   6.459 -0.7314 -0.6200  0.0341
   16MOL   O329 7559   3.187   5.553   6.224 -0.5755  0.3429 -0.0599
   16MOL   H330 7560   3.104   4.759   6.446 -0.5724 -0.4339  1.3130
   16MOL   H331 7561   3.011   4.943   6.575 -0.4558 -0.7549 -0.4798
   16MOL   H332 7562   2.761   5.055   6.230  0.3788 -0.6445 -1.5692
   16MOL   H333 7563   2.848   4.846   6.112 -2.4357 -2.9301  0.7240
   16MOL   H334 7564   2.772   5.336   6.275  0.0551  0.1107  0.7064
   16MOL   H335 7565   2.921   5.497   6.150 -1.8477  1.2575  1.7791
   16MOL   H336 7566   3.250   5.385   6.397  0.6857  1.4042 -0.2741
   16MOL   H337 7567   3.081   5.258   6.552  3.7383  1.0705 -0.3888
   16MOL   C338 7568   3.243   5.500   5.997 -0.2808 -0.2532 -0.0679
   16MOL   C339 7569   3.229   5.526   5.862 -0.3645  0.4233  0.1524
   16MOL   C340 7570   3.145   5.624   5.811 -1.3954  0.1385 -0.0836
   16MOL   C341 7571   3.076   5.708   5.903  0.0468  0.0816  0.1669
   16MOL   C342 7572   3.102   5.694   6.047  0.1734  0.1056  0.1424
   16MOL   C343 7573   3.179   5.584   6.093 -0.1025  0.4501  0.8244
   16MOL   S344 7574   3.122   5.656   5.632  0.0439  0.0992  0.4230
   16MOL   O345 7575   3.002   5.744   5.626  0.4812  0.1915  0.0595
   16MOL   O346 7576   3.141   5.526   5.571 -0.0758  0.2515  0.1210
   16MOL   C347 7577   3.266   5.755   5.596 -0.1744 -0.2112 -0.0079
   16MOL   C348 7578   3.279   5.876   5.659 -0.4724 -0.5683  0.3892
   16MOL   C349 7579   3.388   5.960   5.631  0.2226  0.8804 -0.0187
   16MOL   C350 7580   3.501   5.909   5.562 -0.0742  0.0080 -0.3969
   16MOL   C351 7581   3.491   5.783   5.502 -0.2435 -0.1090 -0.0155
   16MOL   C352 7582   3.366   5.709   5.508 -0.9906 -0.3931 -0.2011
   16MOL   O353 7583   3.610   5.984   5.554  0.3298 -0.2278 -0.2065
   16MOL   H354 7584   3.311   5.419   6.022 -0.2054 -0.4173 -0.7885
   16MOL   H355 7585   3.280   5.451   5.804  2.0317 -1.1293  4.0502
   16MOL   H356 7586   3.015   5.788   5.864 -0.5797 -0.6126 -0.2968
   16MOL   H357 7587   3.052   5.757   6.119 -1.6793 -2.0439  0.8004
   16MOL   H358 7588   3.193   5.910   5.715 -1.1328  0.3506 -1.1564
   16MOL   H359 7589   3.398   6.053   5.686 -2.3424  0.8573  0.5638
   16MOL   H360 7590   3.572   5.752   5.437 -0.0804  1.5177 -0.6188
   16MOL   H361 7591   3.353   5.614   5.458  2.0545 -2.0290  1.9493
   16MOL   C362 7592   3.761   6.106   5.689  0.3786  0.8619  0.4589
   16MOL   C363 7593   3.850   6.111   5.792 -0.0471  0.5293 -0.2836
   16MOL   C364 7594   3.863   5.998   5.879  0.3385 -0.1838 -0.1434
   16MOL   C365 7595   3.786   5.885   5.858  0.2310  0.7809  0.6870
   16MOL   C366 7596   3.698   5.879   5.747 -0.2288  0.1852  0.0799
   16MOL   C367 7597   3.684   5.988   5.665 -0.3126 -0.2467  0.3651
   16MOL   S368 7598   3.966   6.004   6.016 -0.5307  0.4898 -0.3605
   16MOL   O369 7599   4.009   5.866   6.043  0.3349  0.2515 -0.0564
   16MOL   O370 7600   3.883   6.077   6.113 -0.4295 -0.7285 -0.2840
   16MOL   C371 7601   4.118   6.093   5.989 -0.0039  0.0617 -0.3781
   16MOL   C372 7602   4.178   6.184   6.082 -0.4317  0.1702  0.3433
   16MOL   C373 7603   4.298   6.246   6.043  0.2735 -0.4632  0.3452
   16MOL   C374 7604   4.369   6.208   5.929 -0.0895  0.5481  0.0682
   16MOL   C375 7605   4.299   6.128   5.828  0.0914  0.7170 -0.0428
   16MOL   C376 7606   4.176   6.073   5.864 -0.7770  0.4508 -0.7566
   16MOL   O377 7607   4.488   6.264   5.905 -0.8993 -0.1062  0.7952
   16MOL   H378 7608   3.754   6.186   5.617  1.4717  0.8510  0.3190
   16MOL   H379 7609   3.910   6.200   5.806  0.3827  0.0635  0.8596
   16MOL   H380 7610   3.784   5.809   5.934  0.4711  0.9245  0.8367
   16MOL   H381 7611   3.654   5.783   5.726  1.0655  0.2941 -3.5277
   16MOL   H382 7612   4.130   6.197   6.178 -0.3748  2.0464  0.1263
   16MOL   H383 7613   4.347   6.311   6.114 -0.2489  1.5746 -1.1172
   16MOL   H384 7614   4.341   6.105   5.731 -0.8981  1.1342 -0.5771
   16MOL   H385 7615   4.128   6.015   5.786  2.0375 -1.8917 -0.8401
   16MOL   C386 7616   4.612   6.067   5.829  0.3685  0.1027 -0.6751
   16MOL   C387 7617   4.710   6.002   5.745  0.3810 -0.3616  0.6793
   16MOL   C388 7618   4.752   6.072   5.627 -0.0158  0.3489 -0.4582
   16MOL   C389 7619   4.711   6.204   5.604 -0.4745  0.6871 -0.8976
   16MOL   C390 7620   4.639   6.274   5.704  0.0407 -0.2749 -0.2378
   16MOL   C391 7621   4.573   6.208   5.812 -0.8462  0.0725 -0.2711
   16MOL   S392 7622   4.869   5.993   5.518 -0.0094 -0.2814 -0.1163
   16MOL   O393 7623   4.960   5.906   5.596 -0.4982 -0.4751  0.1237
   16MOL   O394 7624   4.920   6.087   5.421 -0.6065 -0.5272 -0.1478
   16MOL   C395 7625   4.759   5.887   5.422 -0.5630  0.4088  0.0314
   16MOL   C396 7626   4.649   5.948   5.361 -0.5749 -0.2842 -0.1659
   16MOL   C397 7627   4.552   5.868   5.297 -0.3519 -0.5452  0.2544
   16MOL   C398 7628   4.575   5.730   5.282  0.7348  0.1946  0.9488
   16MOL   C399 7629   4.687   5.669   5.342 -0.5933  0.3193 -0.1194
   16MOL   C400 7630   4.773   5.746   5.418  0.5351  0.4753  0.2524
   16MOL   O401 7631   4.488   5.651   5.215  0.3429  0.4262 -0.2087
   16MOL   H402 7632   4.565   6.015   5.911  1.8328 -0.6826 -0.3258
   16MOL   H403 7633   4.750   5.909   5.781  0.4503  0.0354  1.6442
   16MOL   H404 7634   4.752   6.261   5.521  1.6142 -0.9390 -1.0285
   16MOL   H405 7635   4.614   6.379   5.704 -0.3316 -0.3610 -0.5803
   16MOL   H406 7636   4.627   6.053   5.369 -0.5072 -0.1084 -2.0200
   16MOL   H407 7637   4.468   5.922   5.255 -0.0798  0.3076  0.7801
   16MOL   H408 7638   4.691   5.561   5.345 -0.8466  0.3127  0.1104
   16MOL   H409 7639   4.860   5.699   5.462 -0.2077 -1.2729 -0.1116
   16MOL   C410 7640   4.545   5.746   4.989 -0.0184  0.7671 -0.6983
   16MOL   C411 7641   4.514   5.771   4.858  0.2253  0.1978 -0.2476
   16MOL   C412 7642   4.385   5.736   4.817 -0.0034 -0.4426 -0.5866
   16MOL   C413 7643   4.292   5.683   4.909 -0.0389  0.1093  0.6332
   16MOL   C414 7644   4.328   5.659   5.043  0.6207 -0.6414 -0.0862
   16MOL   C415 7645   4.456   5.687   5.084 -0.3487  0.6935  0.5221
   16MOL   S416 7646   4.322   5.771   4.659 -0.0865 -0.2703 -0.5080
   16MOL   O417 7647   4.275   5.908   4.654  0.1836 -0.6699 -0.2565
   16MOL   O418 7648   4.223   5.668   4.624  0.2335 -0.7243  0.2857
   16MOL   C419 7649   4.453   5.757   4.529  0.0475  1.1130 -0.3916
   16MOL   C420 7650   4.556   5.848   4.529  0.0463  1.1893 -0.7740
   16MOL   C421 7651   4.659   5.846   4.430 -0.3737 -0.3885  0.3004
   16MOL   C422 7652   4.656   5.741   4.337  0.3295  0.3280 -0.0643
   16MOL   C423 7653   4.544   5.654   4.332 -0.0947 -0.0381  0.3275
   16MOL   C424 7654   4.444   5.657   4.432  0.0810  0.3250 -0.3251
   16MOL   O425 7655   4.758   5.737   4.246  0.4249  0.0339 -0.0386
   16MOL   H426 7656   4.645   5.772   5.024 -0.3644 -0.1276  1.0421
   16MOL   H427 7657   4.594   5.803   4.792  0.9126 -0.1326  0.4276
   16MOL   H428 7658   4.195   5.655   4.869  1.0165 -1.5112 -0.8464
   16MOL   H429 7659   4.264   5.596   5.104 -1.9651  1.0931 -0.9377
   16MOL   H430 7660   4.555   5.919   4.611 -2.0380 -1.4446  1.6023
   16MOL   H431 7661   4.741   5.915   4.441 -2.0259  1.6898  0.0461
   16MOL   H432 7662   4.519   5.580   4.257 -0.1544  0.9119 -0.5903
   16MOL   H433 7663   4.366   5.583   4.434  1.7892 -1.4990  1.4552
   16MOL   C434 7664   4.751   5.652   4.018  0.4374  0.6651 -0.0875
   16MOL   C435 7665   4.768   5.540   3.931 -0.3644 -0.0553  0.6202
   16MOL   C436 7666   4.796   5.412   3.983  0.6709  0.8500 -0.0745
   16MOL   C437 7667   4.804   5.390   4.125 -0.2116  0.2114  1.2904
   16MOL   C438 7668   4.792   5.502   4.210 -0.3594 -0.2583 -1.3905
   16MOL   C439 7669   4.766   5.631   4.160 -0.0224 -0.4647 -0.4804
   16MOL   S440 7670   4.823   5.280   3.868  0.0886  0.0503  0.0912
   16MOL   O441 7671   4.906   5.181   3.937 -0.1333 -0.3004  0.1517
   16MOL   O442 7672   4.863   5.332   3.739  0.0948 -0.1436 -0.0939
   16MOL   C443 7673   4.668   5.193   3.846  0.9360 -1.3726 -0.7025
   16MOL   C444 7674   4.557   5.217   3.927 -0.2216  0.7832 -0.2797
   16MOL   C445 7675   4.446   5.130   3.917 -0.3564 -0.3695  0.3410
   16MOL   C446 7676   4.452   5.017   3.829  0.5636  0.3708  0.7629
   16MOL   C447 7677   4.566   5.002   3.744  0.5857  0.1802 -0.4171
   16MOL   C448 7678   4.670   5.092   3.754  0.2151  0.7951  0.1033
   16MOL   O449 7679   4.345   4.935   3.816  0.2217  0.1382  0.1519
   16MOL   H450 7680   4.743   5.755   3.987  0.5958  1.2838  1.8604
   16MOL   H451 7681   4.757   5.558   3.825  0.8078 -0.9361  0.3331
   16MOL   H452 7682   4.815   5.288   4.158 -2.6805  0.0878  1.8157
   16MOL   H453 7683   4.789   5.493   4.318 -0.5085 -0.6721 -1.4260
   16MOL   H454 7684   4.541   5.290   4.004 -2.9732 -0.2558  0.1691
   16MOL   H455 7685   4.356   5.123   3.975 -0.8354  0.0130 -0.3570
   16MOL   H456 7686   4.563   4.909   3.688  2.3372  0.1105 -0.4142
   16MOL   H457 7687   4.757   5.072   3.692  1.1021 -0.0117  1.5902
   16MOL   C458 7688   4.235   4.873   3.612  0.1177 -0.0363 -0.2335
   16MOL   C459 7689   4.154   4.915   3.508 -0.1702 -0.1020 -1.1632
   16MOL   C460 7690   4.071   5.026   3.526 -0.0006 -0.2123 -0.1412
   16MOL   C461 7691   4.080   5.107   3.641  0.0150  1.0908  0.4370
   16MOL   C462 7692   4.173   5.080   3.737 -0.4346  0.1635  0.5594
   16MOL   C463 7693   4.250   4.964   3.721 -0.4896  0.1112 -0.3750
   16MOL   S464 7694   3.957   5.076   3.399  0.4493 -0.1392 -0.2545
   16MOL   O465 7695   3.911   4.956   3.334 -0.3228  0.0288  0.0633
   16MOL   O466 7696   4.024   5.182   3.320  0.4412 -0.3137 -0.0354
   16MOL   C467 7697   3.808   5.157   3.475  0.0945  0.5809 -0.5152
   16MOL   C468 7698   3.752   5.253   3.388 -0.0394 -0.0476 -0.0412
   16MOL   C469 7699   3.633   5.326   3.429  0.0986  0.1566 -0.1845
   16MOL   C470 7700   3.575   5.302   3.557 -0.2787 -0.4765 -0.1820
   16MOL   C471 7701   3.629   5.201   3.643  0.2594  0.2343 -0.7183
   16MOL   C472 7702   3.755   5.138   3.608 -0.5513 -0.3179 -0.7180
   16MOL   O473 7703   3.469   5.374   3.598 -0.1322 -0.0154  0.2092
   16MOL   H474 7704   4.294   4.784   3.596 -1.2520 -0.9996 -0.0026
   16MOL   H475 7705   4.161   4.865   3.412  0.9754 -0.6982 -0.7746
   16MOL   H476 7706   4.028   5.201   3.658 -0.6975  0.7855 -0.0113
   16MOL   H477 7707   4.192   5.151   3.816 -0.0326  1.0867 -0.3600
   16MOL   H478 7708   3.787   5.281   3.290 -0.7695  0.3080 -0.2083
   16MOL   H479 7709   3.595   5.406   3.367 -0.1792  0.9561  0.9824
   16MOL   H480 7710   3.582   5.172   3.736  0.3253  0.0368 -0.7466
   16MOL   H481 7711   3.800   5.066   3.674 -0.7427 -0.3944 -0.6707
   16MOL   H482 7712   3.417   5.405   3.526 -0.3547  0.4134  0.5496
   17MOL     C1 7713   5.608   5.309   1.927 -0.8239 -0.1485  0.2725
   17MOL     C2 7714   5.670   5.269   2.045 -0.2282  0.2722  0.3685
   17MOL     C3 7715   5.605   5.308   2.168 -0.0825  0.4312  0.4290
   17MOL     C4 7716   5.471   5.367   2.167 -0.1841 -0.0020  0.1837
   17MOL     C5 7717   5.412   5.407   2.041 -0.1353  0.7546 -0.2268
   17MOL     C6 7718   5.485   5.375   1.922  0.4377  0.3702 -0.0157
   17MOL     S7 7719   5.689   5.260   2.330 -0.0552 -0.0424  0.0068
   17MOL     O8 7720   5.828   5.300   2.316 -0.3790 -0.4888 -0.0949
   17MOL     O9 7721   5.658   5.117   2.363  0.8350  0.3220 -0.1908
   17MOL    C10 7722   5.610   5.353   2.453  0.2593 -0.7033 -0.0326
   17MOL    C11 7723   5.651   5.481   2.470 -0.1598 -0.1520  0.1674
   17MOL    C12 7724   5.598   5.553   2.577 -0.0463  0.2924 -0.0112
   17MOL    C13 7725   5.499   5.499   2.662  0.1456  0.6751 -0.1409
   17MOL    C14 7726   5.454   5.366   2.643 -0.1289  0.3261 -0.5031
   17MOL    C15 7727   5.514   5.293   2.537 -0.5587 -0.0729  0.3461
   17MOL    O16 7728   5.452   5.571   2.763 -0.0007 -0.2943  0.3000
   17MOL    H17 7729   5.663   5.278   1.840 -0.4077  1.6758 -0.1188
   17MOL    H18 7730   5.767   5.223   2.033 -0.8962 -1.0001 -0.2679
   17MOL    H19 7731   5.426   5.391   2.262 -0.8632  2.0097 -0.6088
   17MOL    H20 7732   5.318   5.460   2.037  0.0699  1.0456 -1.3060
   17MOL    H21 7733   5.733   5.522   2.413  0.5266  1.4885  2.2657
   17MOL    H22 7734   5.636   5.654   2.586 -3.6438  1.6056  1.2455
   17MOL    H23 7735   5.382   5.325   2.712  1.3622  0.2846  1.0641
   17MOL    H24 7736   5.492   5.188   2.524 -3.1508  0.4244  0.4005
   17MOL    H25 7737   5.437   5.383   1.825  1.3039 -0.9632 -0.5648
   17MOL    C26 7738   5.626   5.684   2.881  0.5473  0.2792 -0.4428
   17MOL    C27 7739   5.691   5.692   3.006 -0.5384 -0.6669 -0.1929
   17MOL    C28 7740   5.672   5.599   3.115 -0.7204  0.0112  0.2979
   17MOL    C29 7741   5.584   5.496   3.107  0.0415  0.2228  0.2515
   17MOL    C30 7742   5.517   5.483   2.981  0.1458  0.1663 -0.7005
   17MOL    C31 7743   5.533   5.576   2.872  0.2142 -0.0563  0.3661
   17MOL    S32 7744   5.755   5.615   3.277 -0.0749  0.3647 -0.0100
   17MOL    O33 7745   5.896   5.577   3.259 -0.3545 -0.1481  0.4667
   17MOL    O34 7746   5.672   5.563   3.379  0.0591 -0.3548  0.6485
   17MOL    C35 7747   5.764   5.794   3.299 -0.4329 -0.1826  0.7841
   17MOL    C36 7748   5.665   5.880   3.248 -0.1437 -0.3253 -0.6923
   17MOL    C37 7749   5.670   6.019   3.276  0.0823  0.3095  0.2659
   17MOL    C38 7750   5.790   6.081   3.318 -0.3514  0.3720 -0.4344
   17MOL    C39 7751   5.902   5.997   3.361  0.0498 -0.1291 -0.1174
   17MOL    C40 7752   5.886   5.852   3.343 -0.0611  0.0838 -0.6361
   17MOL    O41 7753   5.793   6.220   3.321 -0.2754 -0.6534 -0.0985
   17MOL    H42 7754   5.645   5.748   2.796  2.2837 -0.4974 -0.6648
   17MOL    H43 7755   5.764   5.771   3.012  0.3958 -1.5568  0.4290
   17MOL    H44 7756   5.569   5.431   3.192 -3.0838 -1.0590 -1.2177
   17MOL    H45 7757   5.456   5.394   2.971 -0.6021  0.6192 -0.2421
   17MOL    H46 7758   5.572   5.831   3.222  0.4693 -0.9702 -1.7070
   17MOL    H47 7759   5.587   6.084   3.253  0.3140  0.6770  0.4712
   17MOL    H48 7760   5.996   6.043   3.385 -0.0938  1.4972 -2.4565
   17MOL    H49 7761   5.972   5.790   3.368  0.2219  0.5478 -0.4517
   17MOL    C50 7762   5.961   6.386   3.292 -0.4045 -0.4390  0.8097
   17MOL    C51 7763   6.072   6.424   3.211 -0.4269  0.1608  0.1106
   17MOL    C52 7764   6.094   6.371   3.084  0.1341  0.9672 -0.4562
   17MOL    C53 7765   6.008   6.281   3.032 -0.7035 -0.3339  0.4151
   17MOL    C54 7766   5.908   6.229   3.112 -0.7126  0.4618  0.4532
   17MOL    C55 7767   5.885   6.279   3.240 -0.6780 -0.3451 -0.2797
   17MOL    S56 7768   6.233   6.430   2.978 -0.0836 -0.3823 -0.6804
   17MOL    O57 7769   6.174   6.541   2.892  0.0133 -0.3343  0.3126
   17MOL    O58 7770   6.277   6.311   2.911 -0.3724 -0.2651 -0.1573
   17MOL    C59 7771   6.370   6.491   3.079 -0.2447 -0.0396 -0.6889
   17MOL    C60 7772   6.495   6.418   3.080 -0.1277  0.4085 -0.2686
   17MOL    C61 7773   6.608   6.474   3.144 -1.2532 -0.2873  0.0077
   17MOL    C62 7774   6.602   6.592   3.219  0.5978 -0.0340 -0.4826
   17MOL    C63 7775   6.475   6.657   3.233  0.3007  0.3555  0.1047
   17MOL    C64 7776   6.361   6.611   3.158  0.2866  1.0559 -0.3038
   17MOL    O65 7777   6.710   6.657   3.273  0.0308 -0.2347  0.4794
   17MOL    H66 7778   5.938   6.431   3.388 -0.8723  1.3614 -0.1193
   17MOL    H67 7779   6.143   6.500   3.241 -2.3259  0.8885  2.8814
   17MOL    H68 7780   6.021   6.257   2.928  0.1433 -0.8595  0.6373
   17MOL    H69 7781   5.849   6.150   3.068  2.8200 -0.7500 -2.3436
   17MOL    H70 7782   6.500   6.319   3.036 -0.2957 -0.3326  1.3526
   17MOL    H71 7783   6.707   6.435   3.123 -0.2484  2.8781 -1.5837
   17MOL    H72 7784   6.481   6.744   3.297  1.4404  1.0982 -0.9919
   17MOL    H73 7785   6.278   6.681   3.160  1.3412  2.3220 -0.1022
   17MOL    C74 7786   6.729   6.833   3.109 -0.5137  0.0317 -0.0133
   17MOL    C75 7787   6.724   6.975   3.089  0.3192  0.3542  0.1903
   17MOL    C76 7788   6.710   7.061   3.198  0.0129 -0.1795 -0.2965
   17MOL    C77 7789   6.709   7.020   3.327  0.0138  0.0264  0.1241
   17MOL    C78 7790   6.717   6.881   3.349  0.0792  0.4139 -0.4881
   17MOL    C79 7791   6.727   6.791   3.242  0.1271  0.5954  0.1396
   17MOL    S80 7792   6.683   7.236   3.162 -0.4769 -0.0121 -0.1495
   17MOL    O81 7793   6.686   7.256   3.017  1.0488 -0.4167  0.1560
   17MOL    O82 7794   6.782   7.316   3.240  0.2869  0.3163 -0.3134
   17MOL    C83 7795   6.518   7.277   3.214 -0.4043 -0.1279  0.4198
   17MOL    C84 7796   6.412   7.177   3.218  0.2395 -0.1418  0.2311
   17MOL    C85 7797   6.287   7.204   3.271 -0.2309  0.2109  0.5230
   17MOL    C86 7798   6.266   7.334   3.332 -0.3267 -0.6786 -0.1385
   17MOL    C87 7799   6.367   7.430   3.330 -0.0945 -0.5964  0.3291
   17MOL    C88 7800   6.493   7.404   3.268  0.1370 -0.9075 -0.4351
   17MOL    O89 7801   6.144   7.354   3.383  0.2085 -0.4556 -0.2768
   17MOL    H90 7802   6.738   6.765   3.027  0.8576 -0.3525  0.4384
   17MOL    H91 7803   6.742   7.021   2.993  0.4002 -0.3612 -0.1426
   17MOL    H92 7804   6.690   7.089   3.408  0.5930  1.0996 -0.6530
   17MOL    H93 7805   6.706   6.836   3.447 -0.3168  2.6800  0.5394
   17MOL    H94 7806   6.424   7.082   3.169 -0.1039 -0.3271  0.5046
   17MOL    H95 7807   6.210   7.128   3.270  0.9405 -0.9935  0.1740
   17MOL    H96 7808   6.358   7.530   3.370 -0.2325 -0.7793  0.7553
   17MOL    H97 7809   6.569   7.480   3.267  0.2339 -0.9922  0.3262
   17MOL    C98 7810   6.031   7.398   3.170  0.2985 -0.3031  0.0747
   17MOL    C99 7811   5.912   7.442   3.099 -0.8429 -0.7477  0.9545
   17MOL   C100 7812   5.809   7.499   3.175 -0.2715  0.1661 -1.0881
   17MOL   C101 7813   5.822   7.520   3.315  0.0679  0.2484  0.9104
   17MOL   C102 7814   5.936   7.464   3.380 -0.3734  0.9368  0.1689
   17MOL   C103 7815   6.042   7.405   3.309  1.1699 -0.4803  0.5342
   17MOL   S104 7816   5.666   7.567   3.087 -0.2117 -0.2067  0.3345
   17MOL   O105 7817   5.709   7.690   3.018  0.0449 -0.2560  0.3223
   17MOL   O106 7818   5.553   7.579   3.179  0.4930 -0.8615 -0.0389
   17MOL   C107 7819   5.618   7.455   2.959 -0.7732  0.2177  0.0648
   17MOL   C108 7820   5.548   7.507   2.853  0.0658  0.0036 -0.0196
   17MOL   C109 7821   5.503   7.424   2.750  0.0154 -0.2735 -0.1152
   17MOL   C110 7822   5.530   7.284   2.751 -0.1276 -0.4804  0.2949
   17MOL   C111 7823   5.596   7.237   2.868  0.0011 -0.5287 -0.0713
   17MOL   C112 7824   5.644   7.323   2.969  0.0634  0.4930  0.3645
   17MOL   O113 7825   5.511   7.204   2.649 -0.6885  0.3701 -0.1821
   17MOL   H114 7826   6.112   7.355   3.112 -1.1411  0.9947 -3.0542
   17MOL   H115 7827   5.898   7.438   2.992 -2.3142 -0.5052  1.1224
   17MOL   H116 7828   5.742   7.561   3.376  0.5752 -0.3903  2.0144
   17MOL   H117 7829   5.937   7.476   3.487  0.4425  1.3497  0.1163
   17MOL   H118 7830   5.530   7.613   2.849  1.1212  0.2456  1.2201
   17MOL   H119 7831   5.453   7.464   2.663 -0.1218  1.3226  0.6728
   17MOL   H120 7832   5.619   7.132   2.876 -1.9645 -1.2111 -2.6561
   17MOL   H121 7833   5.702   7.287   3.053 -0.6025 -0.7182  0.3216
   17MOL   C122 7834   5.537   7.207   2.414  0.6620 -0.6485 -0.7629
   17MOL   C123 7835   5.618   7.229   2.301 -0.3328  0.2270  0.3153
   17MOL   C124 7836   5.755   7.265   2.312  0.3104  0.5439 -0.2589
   17MOL   C125 7837   5.818   7.274   2.437 -0.2717  0.4933 -0.1253
   17MOL   C126 7838   5.733   7.251   2.552 -0.5714 -0.4814  0.4684
   17MOL   C127 7839   5.595   7.218   2.539 -0.2204  0.4561  0.1283
   17MOL   S128 7840   5.838   7.312   2.170 -0.0953 -0.1781  0.3036
   17MOL   O129 7841   5.875   7.456   2.186 -0.2858 -0.1403  0.1693
   17MOL   O130 7842   5.759   7.274   2.051  0.2746  0.4522 -0.0665
   17MOL   C131 7843   5.990   7.221   2.167 -0.3223 -0.2525  0.2612
   17MOL   C132 7844   6.112   7.292   2.178  0.1110 -0.3525  0.3765
   17MOL   C133 7845   6.234   7.215   2.171 -0.8572 -0.5315  0.3286
   17MOL   C134 7846   6.227   7.078   2.153  0.1478  0.2764  0.4805
   17MOL   C135 7847   6.099   7.011   2.151  0.0665  0.1185  0.3281
   17MOL   C136 7848   5.978   7.080   2.159 -0.1528  0.3498  0.1722
   17MOL   O137 7849   6.347   7.013   2.134 -0.4631 -0.3967  0.6055
   17MOL   H138 7850   5.433   7.194   2.386  0.7583  0.6455 -1.7970
   17MOL   H139 7851   5.571   7.236   2.204  0.1961  0.4705  0.0768
   17MOL   H140 7852   5.922   7.295   2.461 -0.7791  3.3369 -0.2965
   17MOL   H141 7853   5.777   7.250   2.650 -0.3045 -0.2641  0.3505
   17MOL   H142 7854   6.119   7.399   2.196  1.6640 -0.1651 -1.1514
   17MOL   H143 7855   6.336   7.253   2.169 -1.3988  1.0717  2.1109
   17MOL   H144 7856   6.105   6.904   2.141 -0.3694  0.0429  0.8587
   17MOL   H145 7857   5.886   7.024   2.154 -0.6094  0.7801  2.7717
   17MOL   C146 7858   6.397   6.837   1.986  0.2460  0.6795  0.1720
   17MOL   C147 7859   6.401   6.778   1.855  0.5170  0.1016 -0.3126
   17MOL   C148 7860   6.386   6.861   1.742  0.3992  0.6464 -0.1066
   17MOL   C149 7861   6.351   6.999   1.760 -0.3836  0.4816 -0.0757
   17MOL   C150 7862   6.345   7.053   1.895 -0.6388 -0.9301  0.0318
   17MOL   C151 7863   6.368   6.968   2.008  0.2389 -0.7900 -0.2627
   17MOL   S152 7864   6.392   6.783   1.583  0.2241 -0.2710  0.1248
   17MOL   O153 7865   6.530   6.734   1.554  0.2957  0.4358 -0.1026
   17MOL   O154 7866   6.325   6.867   1.486 -0.4108 -0.4931 -0.4748
   17MOL   C155 7867   6.301   6.636   1.606 -0.3690  0.5107  0.1948
   17MOL   C156 7868   6.349   6.519   1.549  0.3031  0.7567  0.5400
   17MOL   C157 7869   6.268   6.401   1.552 -0.1367  0.4678  0.2099
   17MOL   C158 7870   6.150   6.397   1.628 -0.7297  0.2047 -0.0808
   17MOL   C159 7871   6.103   6.515   1.685  0.5555  0.2979  0.2930
   17MOL   C160 7872   6.180   6.632   1.679  0.9756 -1.2029  0.3155
   17MOL   O161 7873   6.078   6.280   1.641 -0.3320 -0.1175  0.2766
   17MOL   H162 7874   6.418   6.771   2.069  0.5785 -1.5915 -1.6568
   17MOL   H163 7875   6.413   6.671   1.845 -0.1643 -0.0004 -0.1001
   17MOL   H164 7876   6.329   7.067   1.679 -0.7304  0.1104 -0.2994
   17MOL   H165 7877   6.318   7.156   1.912  2.3244 -0.1316  0.0937
   17MOL   H166 7878   6.439   6.518   1.490  0.6537 -0.0318  1.0832
   17MOL   H167 7879   6.312   6.315   1.505  0.4855  1.0382 -0.2644
   17MOL   H168 7880   6.009   6.508   1.737 -0.8908 -0.7713 -2.3384
   17MOL   H169 7881   6.142   6.723   1.724  1.1204 -0.5691 -0.8207
   17MOL   C170 7882   6.203   6.074   1.621  0.0463 -0.0360  0.1906
   17MOL   C171 7883   6.276   5.963   1.674 -0.4736  0.1963 -0.2673
   17MOL   C172 7884   6.284   5.947   1.814  0.5154 -0.2432 -0.4726
   17MOL   C173 7885   6.220   6.051   1.899  0.1198  0.4753  0.7315
   17MOL   C174 7886   6.147   6.160   1.841 -0.1839 -0.1372  0.7076
   17MOL   C175 7887   6.136   6.169   1.699  0.3244 -0.5488 -0.0979
   17MOL   S176 7888   6.368   5.814   1.890 -0.0277  0.2045  0.0614
   17MOL   O177 7889   6.327   5.807   2.029  0.0653  0.2006  0.1996
   17MOL   O178 7890   6.510   5.827   1.855 -0.1853 -1.5736 -0.2450
   17MOL   C179 7891   6.315   5.668   1.809  0.5381  0.0345 -0.2356
   17MOL   C180 7892   6.181   5.659   1.764  0.6423  0.0846  0.8780
   17MOL   C181 7893   6.144   5.548   1.684 -0.7359  0.4294  0.2084
   17MOL   C182 7894   6.240   5.444   1.664  0.5734  0.0877 -0.3430
   17MOL   C183 7895   6.370   5.447   1.722  0.6052 -0.0583 -0.0931
   17MOL   C184 7896   6.408   5.562   1.796 -0.5268  0.0042 -0.4085
   17MOL   O185 7897   6.195   5.340   1.590  0.6538  0.5222  0.1396
   17MOL   H186 7898   6.202   6.078   1.514  0.9406  0.6070  0.2019
   17MOL   H187 7899   6.310   5.896   1.597  2.7180  3.2485 -1.6560
   17MOL   H188 7900   6.204   6.045   2.006 -0.9909 -2.4972  0.4385
   17MOL   H189 7901   6.104   6.235   1.906 -0.0630 -0.1570  0.8113
   17MOL   H190 7902   6.110   5.739   1.779 -0.8735 -0.6598 -1.9944
   17MOL   H191 7903   6.054   5.556   1.626 -1.5284 -1.8826  1.0962
   17MOL   H192 7904   6.442   5.372   1.697  1.0529  1.0906 -2.3459
   17MOL   H193 7905   6.508   5.575   1.835  0.5096 -2.5427 -2.0548
   17MOL   C194 7906   6.074   5.294   1.381  0.7854 -0.0864  0.3583
   17MOL   C195 7907   6.038   5.322   1.246 -0.6222 -0.1961 -0.1491
   17MOL   C196 7908   6.125   5.417   1.179  0.5796  0.6656  0.1143
   17MOL   C197 7909   6.219   5.492   1.250  0.2757 -0.9665  0.2372
   17MOL   C198 7910   6.241   5.473   1.387  0.6008 -0.8376 -0.0761
   17MOL   C199 7911   6.169   5.370   1.458 -0.2504 -0.4506 -0.6787
   17MOL   S200 7912   6.109   5.452   1.005  0.2533 -0.2036 -0.3546
   17MOL   O201 7913   6.128   5.326   0.930  0.5181  0.2319  0.3783
   17MOL   O202 7914   6.204   5.562   0.976 -0.0169  0.2724  0.0345
   17MOL   C203 7915   5.945   5.523   0.987 -0.8985  0.8374 -0.6743
   17MOL   C204 7916   5.827   5.442   0.989  1.2968 -0.5664  0.3271
   17MOL   C205 7917   5.699   5.494   0.960  0.1699 -0.3392 -0.4909
   17MOL   C206 7918   5.691   5.634   0.923 -0.0686  0.6914  0.6267
   17MOL   C207 7919   5.809   5.716   0.924  0.6247 -0.2678 -0.3280
   17MOL   C208 7920   5.934   5.659   0.955 -0.0615  0.3330 -0.2435
   17MOL   O209 7921   5.572   5.691   0.894  0.9936 -0.3798 -0.2738
   17MOL   H210 7922   6.019   5.213   1.427  0.9068  1.8407  4.1286
   17MOL   H211 7923   5.969   5.256   1.196 -2.2575  1.6856 -0.4308
   17MOL   H212 7924   6.276   5.568   1.199 -2.5576  0.7596 -0.4585
   17MOL   H213 7925   6.319   5.530   1.435  0.7344 -1.7387  0.8054
   17MOL   H214 7926   5.835   5.338   1.017 -2.4328 -0.5539  1.6611
   17MOL   H215 7927   5.617   5.426   0.940 -1.0493  1.1321 -0.5532
   17MOL   H216 7928   5.810   5.818   0.888 -0.8542 -1.1079 -2.8765
   17MOL   H217 7929   6.023   5.719   0.949  0.7601 -0.8871 -0.5031
   17MOL   C218 7930   5.367   5.704   0.786  0.3239 -0.6367  0.2200
   17MOL   C219 7931   5.276   5.650   0.697  0.6741 -0.1267  0.6546
   17MOL   C220 7932   5.311   5.540   0.619 -0.5516 -0.1561 -0.5538
   17MOL   C221 7933   5.443   5.481   0.628  0.8225 -0.5934 -0.2544
   17MOL   C222 7934   5.537   5.538   0.717 -0.1240 -0.1578  0.5013
   17MOL   C223 7935   5.491   5.639   0.798  0.6855  0.5678 -0.7339
   17MOL   S224 7936   5.185   5.455   0.522 -0.2816  0.1751 -0.3968
   17MOL   O225 7937   5.053   5.499   0.566  0.2275 -0.4709 -0.5449
   17MOL   O226 7938   5.212   5.309   0.528  0.3010  0.2898  0.4933
   17MOL   C227 7939   5.208   5.505   0.354 -0.2229  0.3102  0.3743
   17MOL   C228 7940   5.122   5.601   0.301  0.2405 -0.3483  0.2956
   17MOL   C229 7941   5.133   5.632   0.160 -0.2747 -0.0898 -0.3265
   17MOL   C230 7942   5.236   5.577   0.082  0.1319  1.4074 -1.2204
   17MOL   C231 7943   5.326   5.488   0.141 -0.4495  0.2509 -0.4745
   17MOL   C232 7944   5.312   5.453   0.275 -0.4406  0.1849  1.1874
   17MOL   O233 7945   5.257   5.626   8.376  0.1765 -0.2205  0.7076
   17MOL   H234 7946   5.338   5.789   0.846  0.3079 -1.4993  1.4453
   17MOL   H235 7947   5.177   5.690   0.688  1.0857  0.5366 -1.1641
   17MOL   H236 7948   5.460   5.403   0.556 -0.1413 -1.2098  0.1753
   17MOL   H237 7949   5.630   5.484   0.708  0.7783  1.0767  2.2328
   17MOL   H238 7950   5.040   5.645   0.355 -0.7576  0.0344 -1.4897
   17MOL   H239 7951   5.064   5.693   0.104 -1.3005  0.4621  1.5022
   17MOL   H240 7952   5.399   5.439   0.079 -1.0766 -1.5058  0.1371
   17MOL   H241 7953   5.388   5.384   0.310 -0.5445 -0.5209  0.0338
   17MOL   C242 7954   5.143   5.500   8.202 -0.2906 -0.4127  0.1650
   17MOL   C243 7955   5.149   5.415   8.091 -0.3976  0.0485  1.2353
   17MOL   C244 7956   5.272   5.354   8.052  0.2101 -0.3082 -0.4927
   17MOL   C245 7957   5.383   5.388   8.119 -0.2569  0.3942 -0.3808
   17MOL   C246 7958   5.377   5.470   8.231 -0.5287 -0.0485 -0.1692
   17MOL   C247 7959   5.259   5.534   8.270  0.1390 -0.0337  0.2578
   17MOL   S248 7960   5.282   5.244   7.909 -0.1509  0.1177 -0.3042
   17MOL   O249 7961   5.388   5.300   7.829  0.0513  0.2549  0.3159
   17MOL   O250 7962   5.152   5.224   7.847  0.2497  0.0266  0.5757
   17MOL   C251 7963   5.347   5.096   7.979 -0.2110  0.2415  0.0165
   17MOL   C252 7964   5.277   5.036   8.090  0.1324  0.2152 -0.3940
   17MOL   C253 7965   5.335   4.927   8.162  0.4500  0.6763  0.0874
   17MOL   C254 7966   5.455   4.870   8.108  0.0800 -0.6919 -0.6355
   17MOL   C255 7967   5.519   4.931   7.999 -0.5916 -0.4753  0.6526
   17MOL   C256 7968   5.469   5.039   7.937 -0.0437  0.2090  0.4940
   17MOL   O257 7969   5.518   4.766   8.172  0.2566  0.2228 -0.4088
   17MOL   H258 7970   5.047   5.538   8.234  0.5692  0.2822  1.9906
   17MOL   H259 7971   5.059   5.390   8.037  1.3031 -1.7156 -0.9420
   17MOL   H260 7972   5.482   5.357   8.088 -0.3138 -2.4972  2.1249
   17MOL   H261 7973   5.468   5.498   8.282  0.4571 -2.7832 -0.3828
   17MOL   H262 7974   5.178   5.069   8.118 -1.1228 -1.4720 -2.7133
   17MOL   H263 7975   5.280   4.884   8.244  0.8003  0.8138  0.3953
   17MOL   H264 7976   5.608   4.889   7.953 -0.6079 -0.9715  1.0682
   17MOL   H265 7977   5.535   5.066   7.855  1.3987 -2.8444  0.5873
   17MOL   C266 7978   5.421   4.693   8.380 -0.1566  0.6243 -0.3003
   17MOL   C267 7979   5.435   4.674   0.096 -0.4386 -0.8015 -0.2212
   17MOL   C268 7980   5.544   4.730   0.165  0.1298  0.1491 -0.5087
   17MOL   C269 7981   5.643   4.801   0.096 -0.2707  0.0944  0.4809
   17MOL   C270 7982   5.632   4.825   8.382  0.5877  0.4757  0.1562
   17MOL   C271 7983   5.523   4.767   8.310  0.7179 -0.3606 -0.1306
   17MOL   S272 7984   5.564   4.696   0.337 -0.1914 -0.0708  0.0909
   17MOL   O273 7985   5.656   4.800   0.383 -0.6293  0.5008  0.8463
   17MOL   O274 7986   5.596   4.557   0.362  0.4508  0.0130  0.2029
   17MOL   C275 7987   5.405   4.724   0.399 -0.1098  0.5169  0.2874
   17MOL   C276 7988   5.359   4.856   0.431 -0.0142  0.4848  0.7780
   17MOL   C277 7989   5.234   4.875   0.489 -0.3066  0.3687 -0.0029
   17MOL   C278 7990   5.146   4.763   0.510 -0.4065 -0.2243 -0.8205
   17MOL   C279 7991   5.191   4.635   0.469 -0.7828  0.4128 -0.1625
   17MOL   C280 7992   5.322   4.619   0.421  0.1903 -0.1443  0.6468
   17MOL   O281 7993   5.016   4.775   0.561 -0.0663 -0.3797 -0.1667
   17MOL   H282 7994   5.354   4.632   8.321  1.6674  0.1243 -1.9009
   17MOL   H283 7995   5.374   4.602   0.150  0.0127 -1.1224 -0.1341
   17MOL   H284 7996   5.722   4.856   0.145 -1.8836  1.7509  1.3038
   17MOL   H285 7997   5.704   4.886   8.329  0.7771  1.7829  1.8784
   17MOL   H286 7998   5.417   4.947   0.421  0.5943 -0.1284 -1.5339
   17MOL   H287 7999   5.207   4.972   0.528 -0.0061  1.3210 -2.0648
   17MOL   H288 8000   5.119   4.555   0.462 -0.2422 -0.1744  0.9656
   17MOL   H289 8001   5.349   4.519   0.390  2.3806  0.3765  0.8055
   17MOL   C290 8002   4.993   4.588   0.719  0.6131  0.7630  0.3958
   17MOL   C291 8003   4.978   4.545   0.854 -0.2758 -0.3381  0.6581
   17MOL   C292 8004   4.963   4.643   0.954  0.2637 -0.1343 -0.2722
   17MOL   C293 8005   4.969   4.783   0.927  0.5961 -0.0081  0.7325
   17MOL   C294 8006   4.992   4.828   0.793  0.4647  0.0818  0.0459
   17MOL   C295 8007   5.002   4.726   0.691 -0.3773  0.3163 -0.6016
   17MOL   S296 8008   4.932   4.597   1.123 -0.2663 -0.1857  0.4595
   17MOL   O297 8009   4.928   4.450   1.130 -0.5062  0.2513  0.0988
   17MOL   O298 8010   4.818   4.671   1.178  0.3831  0.2445  0.4439
   17MOL   C299 8011   5.080   4.652   1.203 -0.5540 -0.7953  1.1335
   17MOL   C300 8012   5.197   4.574   1.186 -0.5015  0.2025 -0.5853
   17MOL   C301 8013   5.310   4.615   1.264  0.1443  0.1145 -0.2343
   17MOL   C302 8014   5.314   4.726   1.355 -0.6932 -0.3321  0.3990
   17MOL   C303 8015   5.196   4.805   1.364  0.4844  0.0979  0.4870
   17MOL   C304 8016   5.080   4.765   1.287  0.6437  0.4819  0.3365
   17MOL   O305 8017   5.423   4.753   1.435  0.5621 -0.0291 -0.1522
   17MOL   H306 8018   4.996   4.504   0.652 -1.5905  0.9203  0.0656
   17MOL   H307 8019   4.978   4.443   0.890  0.6512 -0.1565  1.2035
   17MOL   H308 8020   4.959   4.854   1.008 -1.2412  2.9745 -1.9838
   17MOL   H309 8021   5.006   4.932   0.766 -3.0755  1.5081  3.2314
   17MOL   H310 8022   5.200   4.492   1.116 -1.9063  0.4624 -0.9638
   17MOL   H311 8023   5.404   4.567   1.241 -0.2008 -1.2552  1.1295
   17MOL   H312 8024   5.200   4.892   1.427 -3.0044  1.2313 -0.7640
   17MOL   H313 8025   4.986   4.816   1.304 -0.1916 -0.3470 -1.6683
   17MOL   C314 8026   5.463   4.903   1.619  0.2071 -0.0486 -0.4525
   17MOL   C315 8027   5.444   4.940   1.755  0.4748  0.2582 -0.6392
   17MOL   C316 8028   5.361   4.864   1.839 -0.3084  0.8572  0.1606
   17MOL   C317 8029   5.294   4.751   1.790 -0.1070  0.2939 -0.5153
   17MOL   C318 8030   5.312   4.711   1.656 -0.8972 -0.2094 -0.1677
   17MOL   C319 8031   5.398   4.784   1.568 -0.1713  0.3579  0.5892
   17MOL   S320 8032   5.352   4.906   2.019  0.0732 -0.1714  0.0618
   17MOL   O321 8033   5.226   4.849   2.068 -0.1238 -0.8567  0.2118
   17MOL   O322 8034   5.363   5.053   2.035  0.8013 -0.3388 -0.5474
   17MOL   C323 8035   5.487   4.821   2.106  0.0441  0.3144 -0.9961
   17MOL   C324 8036   5.573   4.736   2.037 -0.6424 -0.2930  0.3405
   17MOL   C325 8037   5.680   4.677   2.112  0.0947  0.6661  0.4709
   17MOL   C326 8038   5.706   4.724   2.242  0.5780  0.1534  0.0459
   17MOL   C327 8039   5.609   4.800   2.311 -0.4269 -0.4791 -0.3621
   17MOL   C328 8040   5.502   4.852   2.244  0.8722 -0.0189 -0.0907
   17MOL   O329 8041   5.829   4.707   2.302 -0.4742 -0.1189 -0.4772
   17MOL   H330 8042   5.525   4.963   1.554  2.2709 -2.2768 -0.6151
   17MOL   H331 8043   5.504   5.024   1.787  0.1262  0.0838  0.4895
   17MOL   H332 8044   5.226   4.689   1.847 -0.8461  2.6040  1.1560
   17MOL   H333 8045   5.255   4.625   1.622  0.6598 -1.3391 -0.0048
   17MOL   H334 8046   5.585   4.714   1.932 -0.0030  0.6966  0.1900
   17MOL   H335 8047   5.754   4.616   2.063 -0.7288 -0.7530  0.9686
   17MOL   H336 8048   5.637   4.841   2.407 -0.2327  1.4862 -1.2102
   17MOL   H337 8049   5.438   4.916   2.303 -1.5312 -2.8262  0.4620
   17MOL   C338 8050   5.890   4.942   2.244  0.6648 -0.1130  0.2549
   17MOL   C339 8051   5.985   5.049   2.245  0.1840 -0.2328 -0.6745
   17MOL   C340 8052   6.104   5.025   2.315 -0.1915  0.7250 -0.8466
   17MOL   C341 8053   6.134   4.898   2.373  0.8443  0.4164  0.2607
   17MOL   C342 8054   6.039   4.795   2.369  0.8182 -0.1880 -0.3834
   17MOL   C343 8055   5.915   4.815   2.302  0.1616  0.4807  0.6464
   17MOL   S344 8056   6.220   5.152   2.357 -0.3570 -0.0304 -0.3280
   17MOL   O345 8057   6.351   5.101   2.318  0.0908  0.1327  0.2716
   17MOL   O346 8058   6.212   5.197   2.496 -0.4032  0.5053  0.0503
   17MOL   C347 8059   6.182   5.293   2.257  0.8419 -0.0981 -0.3417
   17MOL   C348 8060   6.149   5.416   2.320 -0.5008  0.5933 -0.2975
   17MOL   C349 8061   6.106   5.526   2.244 -0.4137 -0.6405 -0.0560
   17MOL   C350 8062   6.094   5.517   2.103  0.1605  0.3700  0.4457
   17MOL   C351 8063   6.131   5.396   2.038  0.9251 -0.2868 -0.2495
   17MOL   C352 8064   6.176   5.283   2.114  0.2367  0.5360  0.1385
   17MOL   O353 8065   6.053   5.623   2.029 -0.9141  0.0926 -0.1872
   17MOL   H354 8066   5.799   4.962   2.189  2.4128  2.8953 -1.6357
   17MOL   H355 8067   5.976   5.150   2.209  1.7282 -0.2783 -1.2313
   17MOL   H356 8068   6.223   4.885   2.433 -0.2701 -2.4357  1.3646
   17MOL   H357 8069   6.053   4.694   2.403 -3.3207 -1.4411 -2.0618
   17MOL   H358 8070   6.166   5.425   2.426  2.0589  2.0887 -0.8138
   17MOL   H359 8071   6.077   5.615   2.298 -0.0535 -0.3532 -0.3314
   17MOL   H360 8072   6.121   5.386   1.931  2.2229 -0.2612 -0.3804
   17MOL   H361 8073   6.192   5.187   2.067  1.6942  0.3789  0.9213
   17MOL   C362 8074   5.924   5.817   2.067 -0.3322 -0.5756  0.9028
   17MOL   C363 8075   5.805   5.882   2.100  0.2989 -0.0669  0.1399
   17MOL   C364 8076   5.685   5.808   2.104 -0.0469  0.0379  0.2810
   17MOL   C365 8077   5.687   5.671   2.087  0.3390  0.4840  1.3605
   17MOL   C366 8078   5.813   5.602   2.054  0.4100 -0.2691 -0.0020
   17MOL   C367 8079   5.930   5.678   2.049  0.2810  0.6588  0.0765
   17MOL   S368 8080   5.524   5.887   2.111 -0.0810 -0.1186 -0.0438
   17MOL   O369 8081   5.455   5.849   1.991  0.3110  0.1361  0.0621
   17MOL   O370 8082   5.554   6.029   2.129 -0.8288  0.1531 -0.3382
   17MOL   C371 8083   5.434   5.832   2.254  0.0744 -0.2220  0.0451
   17MOL   C372 8084   5.489   5.843   2.384  0.4729  0.3369 -0.0809
   17MOL   C373 8085   5.412   5.807   2.496 -0.7275 -0.6127  0.1337
   17MOL   C374 8086   5.281   5.762   2.475 -0.6101 -0.1978 -0.4717
   17MOL   C375 8087   5.222   5.755   2.350  0.2621 -0.2803  0.1207
   17MOL   C376 8088   5.300   5.788   2.242  0.4898  0.2508 -0.7624
   17MOL   O377 8089   5.211   5.723   2.582 -0.0359  0.0647  0.2509
   17MOL   H378 8090   6.017   5.870   2.055 -0.4628 -0.6889 -0.8223
   17MOL   H379 8091   5.797   5.989   2.092 -0.0116 -0.3062 -3.7568
   17MOL   H380 8092   5.602   5.605   2.099  1.3578 -1.4472 -1.6416
   17MOL   H381 8093   5.812   5.496   2.036 -1.6482  0.0035 -1.7749
   17MOL   H382 8094   5.593   5.871   2.387  0.7569 -0.6723 -0.2737
   17MOL   H383 8095   5.457   5.839   2.589 -0.4870 -0.1614 -0.1290
   17MOL   H384 8096   5.119   5.722   2.339 -0.4976  2.1800 -0.6161
   17MOL   H385 8097   5.255   5.790   2.144  0.7030  0.1259 -0.8641
   17MOL   C386 8098   5.085   5.926   2.637  0.4919 -0.1281  0.3581
   17MOL   C387 8099   4.960   5.987   2.663  0.3481 -0.1586  0.3468
   17MOL   C388 8100   4.846   5.905   2.670 -0.3824  0.1615  0.4052
   17MOL   C389 8101   4.855   5.770   2.635 -0.7492  0.3991 -0.1220
   17MOL   C390 8102   4.974   5.713   2.594  0.1554  0.1959  0.2681
   17MOL   C391 8103   5.091   5.786   2.603 -0.0513 -0.1907  0.6102
   17MOL   S392 8104   4.692   5.983   2.704  0.0237 -0.0137  0.0417
   17MOL   O393 8105   4.710   6.132   2.727 -0.3025 -0.5741  0.5543
   17MOL   O394 8106   4.625   5.903   2.808  0.3038  0.8154 -0.2719
   17MOL   C395 8107   4.602   5.958   2.552  0.1796  0.5674 -0.8900
   17MOL   C396 8108   4.469   5.907   2.557  0.7513  0.7090  0.2794
   17MOL   C397 8109   4.405   5.881   2.429 -0.3941  0.5197  0.8542
   17MOL   C398 8110   4.474   5.892   2.309 -1.2028 -0.6945  0.3832
   17MOL   C399 8111   4.601   5.948   2.310 -0.0446  0.7364  0.7049
   17MOL   C400 8112   4.663   5.989   2.430  0.2587  0.5206 -0.3777
   17MOL   O401 8113   4.412   5.869   2.190  0.5208 -0.1789 -0.7141
   17MOL   H402 8114   5.168   5.994   2.631 -0.8983  1.5265 -0.6753
   17MOL   H403 8115   4.945   6.091   2.688  3.1411  0.4070 -0.1600
   17MOL   H404 8116   4.761   5.718   2.634  1.0944 -3.1579  1.6622
   17MOL   H405 8117   4.966   5.608   2.573  0.7857 -0.0815  1.3781
   17MOL   H406 8118   4.418   5.888   2.650 -1.4379  1.6192 -0.7100
   17MOL   H407 8119   4.306   5.838   2.428 -0.9848  1.8612 -1.5478
   17MOL   H408 8120   4.656   5.968   2.219  0.5928 -0.9819  0.6907
   17MOL   H409 8121   4.761   6.034   2.434  1.1887 -1.4758 -0.5187
   17MOL   C410 8122   4.341   6.098   2.158  0.2341 -0.3260 -0.2742
   17MOL   C411 8123   4.319   6.212   2.077 -0.4725 -0.4669 -0.9105
   17MOL   C412 8124   4.345   6.205   1.936  0.1813 -0.1052 -0.6941
   17MOL   C413 8125   4.401   6.085   1.876 -0.0799  0.3608 -0.3271
   17MOL   C414 8126   4.416   5.973   1.967  0.8244  0.7586 -0.2154
   17MOL   C415 8127   4.385   5.974   2.108 -0.2032  0.1519 -0.4233
   17MOL   S416 8128   4.293   6.345   1.841 -0.0451 -0.2562  0.0600
   17MOL   O417 8129   4.248   6.450   1.934 -0.2511  0.1384 -0.3541
   17MOL   O418 8130   4.194   6.299   1.740 -0.1510  0.3048 -0.3306
   17MOL   C419 8131   4.441   6.400   1.755 -0.4085 -0.0096 -0.6204
   17MOL   C420 8132   4.502   6.326   1.655 -0.3260 -0.0998  0.7636
   17MOL   C421 8133   4.614   6.380   1.585  0.1280  0.8736 -0.6899
   17MOL   C422 8134   4.679   6.495   1.629 -0.0365  1.1727 -0.0419
   17MOL   C423 8135   4.633   6.556   1.744  0.9610  0.3343 -0.8286
   17MOL   C424 8136   4.509   6.519   1.795 -0.7946 -0.2947 -0.1843
   17MOL   O425 8137   4.798   6.543   1.577  0.1743  0.1227  0.7733
   17MOL   H426 8138   4.327   6.108   2.264 -1.0865 -1.4437 -0.3206
   17MOL   H427 8139   4.277   6.302   2.121 -0.4283 -1.4422  1.2070
   17MOL   H428 8140   4.431   6.078   1.773 -2.6721  0.2199 -1.1173
   17MOL   H429 8141   4.444   5.881   1.919  0.1989  1.2368 -1.5124
   17MOL   H430 8142   4.456   6.235   1.618 -0.6189 -0.0149  0.9199
   17MOL   H431 8143   4.647   6.325   1.498 -0.3525 -0.6619  0.0862
   17MOL   H432 8144   4.695   6.632   1.789 -0.4008  0.6907  0.4600
   17MOL   H433 8145   4.463   6.568   1.880  0.4538  0.1280  0.2541
   17MOL   C434 8146   4.852   6.774   1.567 -1.0422 -0.2917 -0.0254
   17MOL   C435 8147   4.850   6.897   1.499  0.1296 -0.6696  0.7755
   17MOL   C436 8148   4.818   6.898   1.363 -0.1451  0.3084 -0.1302
   17MOL   C437 8149   4.771   6.778   1.304 -0.1842 -0.2807 -0.1259
   17MOL   C438 8150   4.771   6.654   1.368  0.4197  0.1070 -0.5165
   17MOL   C439 8151   4.807   6.657   1.506 -0.5175  0.5918 -0.2582
   17MOL   S440 8152   4.816   7.036   1.248  0.0066 -0.0953  0.0064
   17MOL   O441 8153   4.684   7.033   1.180  0.4831 -0.4349 -0.3154
   17MOL   O442 8154   4.939   7.035   1.182 -0.0309  0.1270  0.6628
   17MOL   C443 8155   4.821   7.183   1.357 -0.1987 -0.2123 -0.0438
   17MOL   C444 8156   4.704   7.222   1.429  0.3216 -0.5148  0.0616
   17MOL   C445 8157   4.698   7.345   1.488 -0.0016 -0.1412 -0.2810
   17MOL   C446 8158   4.812   7.431   1.492  0.3161  0.0941  0.0607
   17MOL   C447 8159   4.934   7.395   1.418  0.1202  0.6049  0.3030
   17MOL   C448 8160   4.936   7.266   1.352 -0.2873 -0.2540 -0.0955
   17MOL   O449 8161   4.816   7.554   1.551 -0.2819  0.3324 -0.0107
   17MOL   H450 8162   4.870   6.780   1.673 -2.3246  2.5561  0.0738
   17MOL   H451 8163   4.870   6.988   1.554  1.9785 -0.6957  0.1814
   17MOL   H452 8164   4.748   6.783   1.199 -1.3192  1.7670  0.1884
   17MOL   H453 8165   4.735   6.568   1.315  0.6044 -2.2858  3.0486
   17MOL   H454 8166   4.613   7.165   1.424  1.1417 -1.8931  0.4977
   17MOL   H455 8167   4.603   7.371   1.533  0.4075  2.7303 -1.0032
   17MOL   H456 8168   5.020   7.459   1.408  0.1379  0.5894  0.3552
   17MOL   H457 8169   5.009   7.237   1.277 -0.3451  1.6734 -0.9421
   17MOL   C458 8170   4.695   7.664   1.723  0.2180  0.3593  0.3383
   17MOL   C459 8171   4.583   7.731   1.763 -0.1910  0.0986  0.5517
   17MOL   C460 8172   4.467   7.750   1.679  0.0903  0.4585  0.1041
   17MOL   C461 8173   4.480   7.718   1.543  0.5296 -0.8962  0.0770
   17MOL   C462 8174   4.592   7.646   1.498  0.1673 -0.0886 -0.1212
   17MOL   C463 8175   4.697   7.617   1.588  0.5661  0.1660  0.0398
   17MOL   S464 8176   4.329   7.847   1.743  0.3067  0.0403  0.0887
   17MOL   O465 8177   4.254   7.908   1.634 -0.0267 -0.0078  0.3362
   17MOL   O466 8178   4.390   7.941   1.841  0.0888  0.2368  0.5510
   17MOL   C467 8179   4.218   7.740   1.837 -0.2296 -0.8350  0.3663
   17MOL   C468 8180   4.085   7.778   1.856 -0.1242  0.2540  0.6959
   17MOL   C469 8181   3.999   7.686   1.916 -0.4005 -0.0173  0.5385
   17MOL   C470 8182   4.039   7.559   1.957 -0.4462  0.2253  0.0473
   17MOL   C471 8183   4.179   7.525   1.944  0.5949 -0.8063  0.2974
   17MOL   C472 8184   4.266   7.615   1.889  0.4562 -0.5938 -0.6619
   17MOL   O473 8185   3.945   7.462   1.999  0.0872 -0.5418 -0.0068
   17MOL   H474 8186   4.773   7.635   1.793 -0.6769 -0.0556  1.1722
   17MOL   H475 8187   4.585   7.757   1.868 -2.3049  1.1234  0.3795
   17MOL   H476 8188   4.407   7.752   1.472  0.2214  1.7582  1.6009
   17MOL   H477 8189   4.604   7.616   1.395 -1.6263 -0.7748 -0.1458
   17MOL   H478 8190   4.046   7.871   1.818 -3.4558 -0.3802  2.3765
   17MOL   H479 8191   3.896   7.710   1.936 -0.9440 -1.9144  0.1389
   17MOL   H480 8192   4.214   7.426   1.968 -0.9685 -1.6121 -0.7055
   17MOL   H481 8193   4.371   7.589   1.888  0.1550 -2.1077  1.9718
   17MOL   H482 8194   3.978   7.373   2.000  0.6444 -0.3392 -0.0765
   18MOL     C1 8195   2.024   6.099   4.769 -0.2676  0.7251 -0.2922
   18MOL     C2 8196   1.990   6.204   4.679 -0.1174 -0.1875  0.3619
   18MOL     C3 8197   1.949   6.335   4.730  0.5623  0.2872 -0.2590
   18MOL     C4 8198   1.940   6.351   4.868  0.1354 -0.0416  0.1502
   18MOL     C5 8199   1.966   6.246   4.959  0.4342 -0.0028 -0.3871
   18MOL     C6 8200   2.009   6.120   4.912 -0.0376 -1.1246  0.2412
   18MOL     S7 8201   1.914   6.479   4.623  0.2767 -0.1242 -0.2287
   18MOL     O8 8202   1.777   6.526   4.644 -0.0609  0.0007 -0.1895
   18MOL     O9 8203   1.961   6.437   4.493 -0.1303  1.0036 -0.3651
   18MOL    C10 8204   2.017   6.610   4.675 -0.0625 -0.0105 -0.2509
   18MOL    C11 8205   2.156   6.596   4.657  0.0575 -0.2637 -0.3559
   18MOL    C12 8206   2.243   6.686   4.721  0.1133  0.4896 -0.3395
   18MOL    C13 8207   2.193   6.808   4.773  0.0717  0.9744 -0.0917
   18MOL    C14 8208   2.048   6.828   4.781 -0.0271  0.2631  0.4649
   18MOL    C15 8209   1.965   6.726   4.739 -0.1197 -0.1737 -0.9575
   18MOL    O16 8210   2.270   6.910   4.818  0.4828  0.2619  0.0326
   18MOL    H17 8211   2.068   6.006   4.737  2.4858  1.6383  0.6707
   18MOL    H18 8212   2.005   6.190   4.573 -0.5007  2.0070 -0.0122
   18MOL    H19 8213   1.891   6.443   4.897  0.0342 -0.3486  0.9675
   18MOL    H20 8214   1.954   6.264   5.064 -1.4834  0.2040 -0.6357
   18MOL    H21 8215   2.198   6.510   4.606 -0.7435 -1.5330  1.0932
   18MOL    H22 8216   2.350   6.670   4.720  0.1451  0.5472  1.2321
   18MOL    H23 8217   2.006   6.920   4.819 -0.0635  0.7531 -0.7316
   18MOL    H24 8218   1.860   6.742   4.757  0.0930  0.5713 -0.3306
   18MOL    H25 8219   2.026   6.041   4.983  1.5423 -0.4196  0.6713
   18MOL    C26 8220   2.464   6.860   4.945  0.4570  0.0987  0.8048
   18MOL    C27 8221   2.529   6.819   5.063 -0.6108  0.1941 -0.0277
   18MOL    C28 8222   2.451   6.807   5.182  0.1735 -0.8252  0.5413
   18MOL    C29 8223   2.317   6.846   5.182  0.5592  0.2203  0.8071
   18MOL    C30 8224   2.252   6.887   5.057 -0.5078 -0.2308  0.0520
   18MOL    C31 8225   2.326   6.893   4.938 -0.1136  0.5746 -0.3633
   18MOL    S32 8226   2.525   6.739   5.327 -0.2730 -0.0936  0.5812
   18MOL    O33 8227   2.649   6.675   5.282 -0.2223 -0.4491  0.3397
   18MOL    O34 8228   2.420   6.654   5.391  0.2231 -0.0224 -0.2761
   18MOL    C35 8229   2.561   6.883   5.428 -0.0627 -0.3031 -0.3383
   18MOL    C36 8230   2.686   6.925   5.464  0.0037  0.1293  0.2803
   18MOL    C37 8231   2.699   7.023   5.567  0.0676  0.0027  1.2808
   18MOL    C38 8232   2.592   7.099   5.613 -0.2584 -0.1641  0.1837
   18MOL    C39 8233   2.467   7.074   5.562  0.0281 -0.4655  0.7476
   18MOL    C40 8234   2.448   6.954   5.475  0.1514 -0.2888  0.0612
   18MOL    O41 8235   2.608   7.190   5.714 -0.5633 -0.3242 -0.3079
   18MOL    H42 8236   2.530   6.875   4.860 -0.1502  1.5266  0.5665
   18MOL    H43 8237   2.636   6.804   5.051 -0.9144 -2.6766  0.4777
   18MOL    H44 8238   2.251   6.837   5.267  1.5809  1.7869  1.7913
   18MOL    H45 8239   2.150   6.910   5.031 -0.0116  0.2618 -1.5155
   18MOL    H46 8240   2.766   6.860   5.431  0.0381 -0.2664  1.1262
   18MOL    H47 8241   2.798   7.046   5.601  0.0309  0.2407  1.2250
   18MOL    H48 8242   2.383   7.125   5.606 -0.1699  1.0014 -1.2176
   18MOL    H49 8243   2.349   6.931   5.437 -0.9418 -0.3205  2.7999
   18MOL    C50 8244   2.525   7.403   5.651 -0.2226 -0.2955  0.1659
   18MOL    C51 8245   2.530   7.540   5.651 -0.7142  0.3066  0.6515
   18MOL    C52 8246   2.661   7.600   5.663 -0.4115  0.0388 -0.0658
   18MOL    C53 8247   2.777   7.520   5.672 -0.4367 -0.4517 -0.2403
   18MOL    C54 8248   2.767   7.382   5.693 -0.5157 -0.5157  0.1956
   18MOL    C55 8249   2.639   7.320   5.679 -0.1052  0.5668 -0.0576
   18MOL    S56 8250   2.666   7.777   5.667 -0.0737  0.6007  0.0954
   18MOL    O57 8251   2.555   7.837   5.594  0.5212  0.3156 -0.8531
   18MOL    O58 8252   2.810   7.808   5.654 -0.8451  0.1206  0.8790
   18MOL    C59 8253   2.634   7.807   5.842  0.5176 -1.1659  0.3920
   18MOL    C60 8254   2.505   7.844   5.888  0.4085 -0.1777 -0.8095
   18MOL    C61 8255   2.480   7.866   6.026  0.4993 -0.7464 -0.8695
   18MOL    C62 8256   2.577   7.832   6.121  0.5491 -0.5191  0.1561
   18MOL    C63 8257   2.703   7.800   6.075  0.0018  0.1004 -0.2406
   18MOL    C64 8258   2.729   7.782   5.938  0.6681 -0.3629  0.5895
   18MOL    O65 8259   2.539   7.832   6.253 -0.2205  0.1584  0.2651
   18MOL    H66 8260   2.429   7.357   5.633 -0.3997 -0.9438  2.6075
   18MOL    H67 8261   2.439   7.594   5.629 -1.2617 -1.0121 -0.3744
   18MOL    H68 8262   2.872   7.572   5.677  0.5256 -2.0806 -1.2386
   18MOL    H69 8263   2.857   7.328   5.720  0.6790  0.5411 -1.5681
   18MOL    H70 8264   2.428   7.857   5.813 -0.1289 -1.2339 -0.4458
   18MOL    H71 8265   2.378   7.888   6.053  0.4508 -1.5539 -0.3729
   18MOL    H72 8266   2.782   7.788   6.148 -0.1589 -1.2688 -0.2795
   18MOL    H73 8267   2.825   7.745   5.905 -0.1508 -2.6954  0.7472
   18MOL    C74 8268   2.694   7.967   6.383  0.3418  0.2309  0.4979
   18MOL    C75 8269   2.729   8.088   6.456 -0.8415  0.5704  0.8326
   18MOL    C76 8270   2.624   8.183   6.464 -0.1656 -0.6119  0.1312
   18MOL    C77 8271   2.504   8.172   6.390 -0.4610  0.5728  0.3860
   18MOL    C78 8272   2.474   8.051   6.317 -0.0253 -0.0182 -0.1638
   18MOL    C79 8273   2.569   7.952   6.318 -0.5790  0.4164 -0.4802
   18MOL    S80 8274   2.638   8.314   6.580  0.5434  0.0302  0.3379
   18MOL    O81 8275   2.621   0.014   6.507 -0.7404 -0.2434 -0.5935
   18MOL    O82 8276   2.755   8.292   6.666 -0.0412  0.0157  0.4558
   18MOL    C83 8277   2.495   8.288   6.685 -0.4844 -0.5220 -0.6470
   18MOL    C84 8278   2.460   8.162   6.726 -0.4003 -0.2727  0.0964
   18MOL    C85 8279   2.342   8.133   6.799 -0.5092 -0.8011  0.9354
   18MOL    C86 8280   2.240   8.237   6.799 -0.0006  0.7952  0.2096
   18MOL    C87 8281   2.280   8.370   6.766  0.3861  0.1575  0.0785
   18MOL    C88 8282   2.411   8.393   6.715  0.3701  0.6861  0.1713
   18MOL    O89 8283   2.115   8.207   6.837 -0.0103  0.0534 -0.2533
   18MOL    H90 8284   2.769   7.892   6.366 -0.9985 -0.6300 -1.8157
   18MOL    H91 8285   2.821   8.093   6.512 -1.3320 -0.4474  1.7513
   18MOL    H92 8286   2.427   8.248   6.389  1.2675  2.4163 -3.1074
   18MOL    H93 8287   2.382   8.039   6.262 -0.8462 -0.9800  1.3825
   18MOL    H94 8288   2.527   8.083   6.697 -0.9177 -0.6984  0.0697
   18MOL    H95 8289   2.314   8.030   6.816 -0.2349 -1.3209 -1.5472
   18MOL    H96 8290   2.219   0.033   6.778 -1.5248 -1.4606  2.7484
   18MOL    H97 8291   2.446   0.068   6.696  2.4541 -0.0148  0.2049
   18MOL    C98 8292   2.036   8.128   6.627  0.5537 -0.2588 -0.2837
   18MOL    C99 8293   1.937   8.118   6.533  0.2168 -0.6180  0.0880
   18MOL   C100 8294   1.809   8.167   6.558  0.3851  0.6561  0.0445
   18MOL   C101 8295   1.781   8.224   6.687  0.0263  0.1093 -0.9317
   18MOL   C102 8296   1.887   8.235   6.783  0.4715  0.6421  0.1846
   18MOL   C103 8297   2.015   8.194   6.750  0.3287  0.1742 -0.0678
   18MOL   S104 8298   1.685   8.167   6.437  0.0904  0.0102  0.3616
   18MOL   O105 8299   1.753   8.196   6.310  0.4576 -0.2299  0.8482
   18MOL   O106 8300   1.576   8.253   6.486 -0.1161  0.6427 -0.1182
   18MOL   C107 8301   1.626   8.000   6.416  1.0673  0.2195  0.9942
   18MOL   C108 8302   1.497   7.970   6.473  0.6279  0.0725 -0.0051
   18MOL   C109 8303   1.445   7.842   6.463  0.1434 -0.1894  0.2443
   18MOL   C110 8304   1.517   7.745   6.394  0.2997  0.3203  0.7554
   18MOL   C111 8305   1.642   7.772   6.336 -0.4748  0.1633 -0.6675
   18MOL   C112 8306   1.701   7.898   6.350 -0.2432  0.4129  0.4533
   18MOL   O113 8307   1.463   7.620   6.371 -0.2536  0.0929  0.4402
   18MOL   H114 8308   2.125   8.075   6.595  0.9329  0.9085 -1.1780
   18MOL   H115 8309   1.961   8.064   6.443 -0.1300  0.7647 -0.8456
   18MOL   H116 8310   1.683   8.250   6.725  1.1553  1.8537  0.8666
   18MOL   H117 8311   1.869   8.268   6.884  0.1397 -0.4898  0.5008
   18MOL   H118 8312   1.449   8.045   6.534  0.4795  1.5227 -1.8762
   18MOL   H119 8313   1.350   7.826   6.512  0.9529  0.4891  2.0810
   18MOL   H120 8314   1.700   7.698   6.283 -1.6803  0.2269 -2.0974
   18MOL   H121 8315   1.797   7.916   6.304 -1.0601 -0.0115 -1.4565
   18MOL   C122 8316   1.630   7.453   6.412 -0.1673 -0.0862  0.8519
   18MOL   C123 8317   1.680   7.352   6.493  0.0453 -0.3709  0.5671
   18MOL   C124 8318   1.611   7.311   6.612  0.3540 -0.4422 -0.1123
   18MOL   C125 8319   1.493   7.389   6.653 -1.0441 -1.0384  0.5398
   18MOL   C126 8320   1.446   7.490   6.564 -0.3625  0.2817 -0.1176
   18MOL   C127 8321   1.514   7.518   6.451  0.0885  0.2883 -0.0635
   18MOL   S128 8322   1.679   7.180   6.703  0.3662 -0.1676 -0.2126
   18MOL   O129 8323   1.694   7.071   6.609 -0.7497 -0.4392  0.0657
   18MOL   O130 8324   1.596   7.152   6.823 -0.1698 -0.1022  0.5481
   18MOL   C131 8325   1.841   7.236   6.754 -0.1395 -0.4748 -0.4017
   18MOL   C132 8326   1.845   7.308   6.874 -0.1827 -0.2854 -0.4958
   18MOL   C133 8327   1.970   7.362   6.914  0.7655 -0.1527 -0.9905
   18MOL   C134 8328   2.089   7.333   6.843 -0.1042 -0.4088 -0.0467
   18MOL   C135 8329   2.086   7.263   6.726 -0.3715  0.5622 -1.1545
   18MOL   C136 8330   1.960   7.218   6.680  0.2289 -0.7482 -0.1581
   18MOL   O137 8331   2.209   7.379   6.893 -0.5135 -0.0035  0.4731
   18MOL   H138 8332   1.689   7.482   6.326 -1.3250 -1.6864 -0.5071
   18MOL   H139 8333   1.770   7.297   6.474  0.3020 -0.3745  1.7779
   18MOL   H140 8334   1.441   7.370   6.746  0.7861  0.6222  1.9564
   18MOL   H141 8335   1.359   7.551   6.583  0.0659  0.5263  1.1217
   18MOL   H142 8336   1.757   7.330   6.932  0.3182  0.6724 -0.0997
   18MOL   H143 8337   1.973   7.424   7.003  0.2613  0.2282 -1.2317
   18MOL   H144 8338   2.173   7.238   6.667  0.0202 -2.0680  0.4428
   18MOL   H145 8339   1.939   7.172   6.585  0.3777 -0.7990 -0.1659
   18MOL   C146 8340   2.307   7.176   6.980 -0.1628 -0.0132 -0.1237
   18MOL   C147 8341   2.334   7.105   7.100 -0.2457 -0.1008  0.3870
   18MOL   C148 8342   2.325   7.166   7.231  0.2300 -0.3416  0.1600
   18MOL   C149 8343   2.299   7.303   7.251 -0.4748  0.4411 -0.2964
   18MOL   C150 8344   2.261   7.368   7.130 -0.0872  0.0411  0.0766
   18MOL   C151 8345   2.261   7.310   7.000 -0.1864  0.2038  0.3085
   18MOL   S152 8346   2.360   7.074   7.381 -0.3747  0.1617  0.2449
   18MOL   O153 8347   2.240   7.076   7.466 -0.1666 -0.1499  0.5054
   18MOL   O154 8348   2.480   7.144   7.427 -0.0287  0.4324 -0.2050
   18MOL   C155 8349   2.402   6.899   7.338 -0.4340 -0.1444  0.5267
   18MOL   C156 8350   2.531   6.873   7.288 -0.8255  0.4546  0.0153
   18MOL   C157 8351   2.563   6.743   7.256 -0.4072  0.1379  0.1986
   18MOL   C158 8352   2.467   6.637   7.266  0.0774 -0.6733 -0.2466
   18MOL   C159 8353   2.340   6.666   7.319 -0.4951 -0.0166 -0.2947
   18MOL   C160 8354   2.306   6.800   7.353  0.1366  0.2331 -0.6503
   18MOL   O161 8355   2.501   6.516   7.213  0.7986 -0.1363  0.2735
   18MOL   H162 8356   2.306   7.120   6.887  1.7590  0.3390 -0.3668
   18MOL   H163 8357   2.367   7.005   7.078  0.4367  0.8586 -3.1441
   18MOL   H164 8358   2.305   7.345   7.350  2.4869  1.2769 -0.7719
   18MOL   H165 8359   2.221   7.468   7.136  0.2149  0.1007  1.2205
   18MOL   H166 8360   2.606   6.951   7.281  1.3637 -1.7570 -2.2620
   18MOL   H167 8361   2.657   6.725   7.205 -0.8111  1.7775 -1.1999
   18MOL   H168 8362   2.270   6.583   7.321 -0.9420  0.3455 -0.7357
   18MOL   H169 8363   2.208   6.827   7.390 -0.5748 -0.3854 -2.0418
   18MOL   C170 8364   2.583   6.448   7.436  0.4422 -0.4300  0.2423
   18MOL   C171 8365   2.620   6.341   7.518  0.8829 -0.3010  0.1179
   18MOL   C172 8366   2.590   6.206   7.479 -0.2503 -1.2999  0.6109
   18MOL   C173 8367   2.502   6.181   7.372  0.9244  1.0567  0.2634
   18MOL   C174 8368   2.474   6.290   7.288  0.4759 -0.9200 -1.0858
   18MOL   C175 8369   2.521   6.418   7.311  0.1580 -0.0151 -0.5107
   18MOL   S176 8370   2.648   6.081   7.583 -0.2457 -0.0852 -0.0077
   18MOL   O177 8371   2.789   6.105   7.617  0.0527 -0.0288  0.3772
   18MOL   O178 8372   2.622   5.947   7.530 -0.3570  0.3945 -0.1718
   18MOL   C179 8373   2.556   6.105   7.742 -0.3701 -0.2054  0.3554
   18MOL   C180 8374   2.628   6.169   7.848 -0.5893  0.0536 -0.3776
   18MOL   C181 8375   2.559   6.186   7.971  0.4758 -0.1030 -0.3314
   18MOL   C182 8376   2.433   6.125   7.995 -0.1947 -0.2875  0.1001
   18MOL   C183 8377   2.365   6.066   7.885 -0.2121  0.8331  0.3594
   18MOL   C184 8378   2.425   6.053   7.760  0.2888 -0.2781  0.3981
   18MOL   O185 8379   2.373   6.125   8.115 -0.3871  0.4857  0.5978
   18MOL   H186 8380   2.602   6.549   7.469 -1.0342  0.0542 -0.3614
   18MOL   H187 8381   2.688   6.341   7.602  2.6220 -0.1027 -1.2461
   18MOL   H188 8382   2.477   6.083   7.335  2.9426  0.5422  0.2469
   18MOL   H189 8383   2.423   6.275   7.194 -0.0305  0.2494 -1.0086
   18MOL   H190 8384   2.727   6.211   7.841 -0.2251 -0.9396 -1.4234
   18MOL   H191 8385   2.618   6.238   8.045  1.0846  1.1138 -1.6580
   18MOL   H192 8386   2.274   6.009   7.899  0.0366  0.1476 -0.7773
   18MOL   H193 8387   2.371   5.996   7.685 -0.0961  0.1260  0.3685
   18MOL   C194 8388   2.454   6.143   8.343 -0.7120 -0.3582  0.4698
   18MOL   C195 8389   2.547   6.108   0.019  0.3223 -0.1839  0.2845
   18MOL   C196 8390   2.657   6.025   8.421  0.0063 -0.7483  0.9731
   18MOL   C197 8391   2.655   5.950   8.304  0.2703 -0.2273  0.0820
   18MOL   C198 8392   2.556   5.975   8.202  0.8269  0.2707 -0.6073
   18MOL   C199 8393   2.454   6.079   8.219  0.0982 -0.0007  0.2723
   18MOL   S200 8394   2.796   6.005   0.109 -0.1412  0.0985  0.4269
   18MOL   O201 8395   2.895   6.109   0.071 -0.3849  0.1297 -0.1343
   18MOL   O202 8396   2.847   5.866   0.097  0.3477 -0.0950  0.4663
   18MOL   C203 8397   2.741   6.055   0.275  0.3568  0.6062  0.2504
   18MOL   C204 8398   2.731   6.190   0.309  0.2024 -0.8478 -0.2450
   18MOL   C205 8399   2.670   6.234   0.428 -0.1129  0.4337  0.0877
   18MOL   C206 8400   2.640   6.131   0.522 -0.4682  0.4748 -0.3230
   18MOL   C207 8401   2.652   5.994   0.496 -0.0981  0.1556 -0.0948
   18MOL   C208 8402   2.688   5.957   0.363  0.1302 -0.2082 -0.0531
   18MOL   O209 8403   2.599   6.182   0.637 -0.4377 -0.3626  0.5223
   18MOL   H210 8404   2.373   6.212   8.359  1.2480  1.9961  0.4541
   18MOL   H211 8405   2.539   6.158   0.115  1.2672  0.6511 -0.0672
   18MOL   H212 8406   2.739   5.884   8.287  1.1529  1.1345 -0.9833
   18MOL   H213 8407   2.562   5.914   8.113  0.4608 -0.7177  0.0367
   18MOL   H214 8408   2.770   6.268   0.245 -2.0099  1.5124  1.1646
   18MOL   H215 8409   2.659   6.337   0.460 -2.1153 -0.7644  3.5062
   18MOL   H216 8410   2.622   5.925   0.574  0.9170  0.0123  0.1726
   18MOL   H217 8411   2.699   5.854   0.333  0.2423 -0.1364 -0.2540
   18MOL   C218 8412   2.809   6.219   0.748  0.4757  0.4701  0.1508
   18MOL   C219 8413   2.893   6.202   0.858  0.3161  0.5362  0.2670
   18MOL   C220 8414   2.843   6.135   0.974 -0.5875  0.5784  0.2172
   18MOL   C221 8415   2.709   6.080   0.969 -1.1632  0.3288  0.4951
   18MOL   C222 8416   2.629   6.098   0.854 -0.1442 -0.1591 -0.1025
   18MOL   C223 8417   2.680   6.168   0.744  0.1385 -1.1354  0.3968
   18MOL   S224 8418   2.951   6.099   1.111  0.3926  0.3139  0.1333
   18MOL   O225 8419   3.033   5.987   1.071 -0.2984  0.5583 -0.1704
   18MOL   O226 8420   2.856   6.107   1.225 -0.5526  0.5353 -0.1595
   18MOL   C227 8421   3.061   6.238   1.124 -0.1652 -0.5574 -0.1850
   18MOL   C228 8422   3.198   6.216   1.141 -0.4399 -0.2909 -0.5516
   18MOL   C229 8423   3.292   6.327   1.163  0.6167 -0.0607 -0.1049
   18MOL   C230 8424   3.236   6.456   1.169 -0.3892 -0.3955 -0.2959
   18MOL   C231 8425   3.099   6.482   1.138 -0.2779 -0.6154  0.5683
   18MOL   C232 8426   3.012   6.370   1.118 -0.2424  0.1600  0.0383
   18MOL   O233 8427   3.321   6.565   1.169  0.5063 -0.3762 -0.3882
   18MOL   H234 8428   2.852   6.266   0.660  2.2917  1.2538  1.4329
   18MOL   H235 8429   2.997   6.229   0.849  0.6711 -1.2686 -1.4672
   18MOL   H236 8430   2.660   6.033   1.053  1.7677  0.9760  2.6328
   18MOL   H237 8431   2.532   6.050   0.854 -1.0255  1.5608 -0.6873
   18MOL   H238 8432   3.236   6.115   1.147  0.1251  0.0603  2.7687
   18MOL   H239 8433   3.396   6.300   1.173  0.7408  0.9811  1.5883
   18MOL   H240 8434   3.058   6.581   1.123 -0.0718 -0.5792  0.2415
   18MOL   H241 8435   2.906   6.384   1.103 -0.5915 -1.1778  1.0834
   18MOL   C242 8436   3.425   6.562   0.944  0.0740  0.1817 -1.0590
   18MOL   C243 8437   3.457   6.633   0.826 -0.1056  0.1434 -0.7155
   18MOL   C244 8438   3.419   6.773   0.821  0.4846  0.1500 -0.2230
   18MOL   C245 8439   3.351   6.833   0.928  0.1409  0.0727 -0.3230
   18MOL   C246 8440   3.325   6.766   1.045  0.4704 -0.2812 -0.4216
   18MOL   C247 8441   3.354   6.627   1.054  0.8573  0.2159  0.2882
   18MOL   S248 8442   3.445   6.874   0.682  0.4153  0.0742 -0.0191
   18MOL   O249 8443   3.552   6.971   0.716 -0.4021  0.7884 -0.5902
   18MOL   O250 8444   3.316   6.929   0.636 -0.5882 -0.7298  0.5178
   18MOL   C251 8445   3.504   6.762   0.562 -0.0947  0.2069 -0.8277
   18MOL   C252 8446   3.411   6.705   0.478  0.6037  0.1384  0.5766
   18MOL   C253 8447   3.462   6.637   0.362 -0.1932 -0.4093 -0.4259
   18MOL   C254 8448   3.597   6.606   0.357 -0.4769 -0.2776  0.3148
   18MOL   C255 8449   3.684   6.653   0.456 -0.1380  0.2390  0.5907
   18MOL   C256 8450   3.640   6.737   0.556 -0.1650 -0.9354 -0.0540
   18MOL   O257 8451   3.646   6.522   0.261  0.1157  0.0154 -0.1698
   18MOL   H258 8452   3.429   6.455   0.945 -1.3077  0.1091  1.8667
   18MOL   H259 8453   3.501   6.580   0.743  1.6366  1.8072 -0.8817
   18MOL   H260 8454   3.326   6.938   0.917  1.1637  0.7912  3.5936
   18MOL   H261 8455   3.274   6.809   1.130  0.3418  0.2237 -0.7539
   18MOL   H262 8456   3.307   6.734   0.479  0.4001 -0.6151  1.8037
   18MOL   H263 8457   3.395   6.595   0.289  0.9926  0.9222 -2.3388
   18MOL   H264 8458   3.790   6.634   0.459  0.4898  3.4433  0.6540
   18MOL   H265 8459   3.705   6.777   0.633 -1.0932  0.4926  0.0105
   18MOL   C266 8460   3.743   6.322   0.359  0.3740 -0.2095 -0.0194
   18MOL   C267 8461   3.751   6.184   0.380  0.5342  0.1699 -0.0784
   18MOL   C268 8462   3.647   6.099   0.335  0.3889  0.1875  0.6497
   18MOL   C269 8463   3.538   6.163   0.265 -0.0055 -0.0984 -0.7176
   18MOL   C270 8464   3.532   6.300   0.238 -0.8002 -0.0923  0.1672
   18MOL   C271 8465   3.642   6.384   0.284 -0.0463  0.9222  0.0956
   18MOL   S272 8466   3.662   5.920   0.334 -0.0106 -0.0572 -0.0674
   18MOL   O273 8467   3.525   5.865   0.337 -0.4774  0.3918  0.3135
   18MOL   O274 8468   3.766   5.886   0.432 -0.1862  0.4165  0.0563
   18MOL   C275 8469   3.735   5.871   0.177 -0.2006  0.0924 -0.3664
   18MOL   C276 8470   3.767   5.959   0.075 -0.0023  0.0420  0.3567
   18MOL   C277 8471   3.803   5.904   8.379 -1.0121 -0.0819 -0.2144
   18MOL   C278 8472   3.820   5.761   8.359  0.0984  0.4961 -0.2748
   18MOL   C279 8473   3.798   5.674   0.037 -0.1881 -0.0649 -0.2864
   18MOL   C280 8474   3.756   5.729   0.166 -0.1383 -0.2098  0.0289
   18MOL   O281 8475   3.872   5.717   8.236  0.0252  0.1641 -0.2218
   18MOL   H282 8476   3.806   6.395   0.409  0.8590  0.3925 -1.4865
   18MOL   H283 8477   3.846   6.140   0.407  2.1681  1.4347 -3.5143
   18MOL   H284 8478   3.456   6.103   0.230  0.1242 -1.7940  1.7611
   18MOL   H285 8479   3.455   6.343   0.175 -1.1336  1.1659  1.3904
   18MOL   H286 8480   3.750   6.065   0.085 -1.5200 -0.2586  1.2305
   18MOL   H287 8481   3.824   5.973   8.298 -0.2991  1.3522  1.1684
   18MOL   H288 8482   3.813   5.568   0.027  0.1046 -0.5353  4.1896
   18MOL   H289 8483   3.717   5.658   0.237 -0.9843  0.6356  0.4279
   18MOL   C290 8484   3.892   5.842   8.032 -0.6560  0.4057 -0.8203
   18MOL   C291 8485   3.824   5.885   7.912  0.0221  0.0256 -0.5797
   18MOL   C292 8486   3.689   5.861   7.899 -0.0586 -0.3967  0.2928
   18MOL   C293 8487   3.611   5.785   7.994  0.5261 -0.2734  0.7442
   18MOL   C294 8488   3.682   5.745   8.106  0.5525 -0.1404  0.2918
   18MOL   C295 8489   3.817   5.764   8.124 -0.2194 -0.3411  0.2432
   18MOL   S296 8490   3.615   5.933   7.752 -0.4354  0.0513 -0.3775
   18MOL   O297 8491   3.485   5.872   7.725 -0.0886  0.0741  0.1776
   18MOL   O298 8492   3.722   5.932   7.653  0.1374 -0.1522 -0.7491
   18MOL   C299 8493   3.587   6.104   7.798 -0.3191  0.1423  0.2020
   18MOL   C300 8494   3.663   6.203   7.734 -0.0026 -0.0158  0.5412
   18MOL   C301 8495   3.635   6.341   7.754 -0.2267 -0.5322 -0.0496
   18MOL   C302 8496   3.526   6.381   7.835  0.7773 -0.1311 -0.0228
   18MOL   C303 8497   3.439   6.282   7.894  0.1865 -0.1373  0.6256
   18MOL   C304 8498   3.480   6.150   7.880  0.1067 -0.1762  0.5681
   18MOL   O305 8499   3.508   6.516   7.843 -0.1015 -0.5194 -0.0303
   18MOL   H306 8500   3.998   5.858   8.050 -0.6757 -0.3549  0.0076
   18MOL   H307 8501   3.877   5.942   7.838 -1.3025  1.1596 -0.6582
   18MOL   H308 8502   3.507   5.760   7.976  0.3644  0.6764  0.3218
   18MOL   H309 8503   3.634   5.681   8.179  0.1562  0.0808  0.2307
   18MOL   H310 8504   3.746   6.178   7.669  1.1106  1.7600  1.2304
   18MOL   H311 8505   3.704   6.417   7.721 -0.3382 -0.4714 -0.1385
   18MOL   H312 8506   3.353   6.309   7.954 -0.0506 -1.6972  1.0164
   18MOL   H313 8507   3.414   6.074   7.919  0.0353 -0.8475 -0.8422
   18MOL   C314 8508   3.277   6.578   7.873  0.5827 -0.3523  0.0468
   18MOL   C315 8509   3.172   6.630   7.946 -0.0693  0.2830 -0.1537
   18MOL   C316 8510   3.196   6.693   8.071 -0.6019  0.2438  0.2438
   18MOL   C317 8511   3.327   6.695   8.115  0.0814  0.4318  0.2212
   18MOL   C318 8512   3.437   6.645   8.039 -0.1942  0.3162  0.1252
   18MOL   C319 8513   3.408   6.576   7.920 -0.2720  0.0674 -0.3209
   18MOL   S320 8514   3.064   6.767   8.168  0.2155 -0.2674  0.4718
   18MOL   O321 8515   2.936   6.769   8.094 -0.5366 -0.1788  0.4056
   18MOL   O322 8516   3.121   6.896   8.216  0.4483  0.1812 -0.0226
   18MOL   C323 8517   3.048   6.660   8.312  0.7779  0.1552  0.4166
   18MOL   C324 8518   3.113   6.537   8.326  0.1370  0.0902 -0.3796
   18MOL   C325 8519   3.075   6.463   0.015 -0.1291  0.0740 -0.6360
   18MOL   C326 8520   2.980   6.507   0.107  0.1385 -0.2909  0.4928
   18MOL   C327 8521   2.922   6.631   0.095  0.7178 -0.8005 -0.1640
   18MOL   C328 8522   2.953   6.705   8.406 -0.0810 -0.3696  0.0154
   18MOL   O329 8523   2.945   6.421   0.210 -0.0199 -0.2079 -0.7838
   18MOL   H330 8524   3.256   6.556   7.769  2.0745  2.5377 -0.9264
   18MOL   H331 8525   3.071   6.635   7.908  0.7418 -2.1431 -2.7861
   18MOL   H332 8526   3.350   6.750   8.206  0.1178 -0.3576  0.6898
   18MOL   H333 8527   3.536   6.650   8.082 -0.5713 -1.5308  1.2287
   18MOL   H334 8528   3.193   6.498   8.264  0.1092 -1.7298  0.7019
   18MOL   H335 8529   3.115   6.365   0.039  0.3689  0.6826  1.0469
   18MOL   H336 8530   2.844   6.664   0.162  1.4457  1.4942 -0.3885
   18MOL   H337 8531   2.904   6.799   8.385  2.3196  1.3271  1.7655
   18MOL   C338 8532   2.840   6.513   0.407 -0.4389 -0.0493 -0.6325
   18MOL   C339 8533   2.841   6.560   0.541  0.0635  0.0094 -0.1642
   18MOL   C340 8534   2.962   6.575   0.613 -0.6834  0.1394  0.4534
   18MOL   C341 8535   3.081   6.532   0.542 -0.4226  0.3776  0.7395
   18MOL   C342 8536   3.079   6.470   0.412 -0.0419 -0.3375 -0.6901
   18MOL   C343 8537   2.954   6.471   0.342 -1.3487 -0.0447  0.3262
   18MOL   S344 8538   2.960   6.644   0.780  0.0872 -0.7876  0.1601
   18MOL   O345 8539   3.099   6.665   0.820 -0.0622  0.5739 -0.0890
   18MOL   O346 8540   2.876   6.552   0.854 -0.1576 -0.5683  0.3311
   18MOL   C347 8541   2.874   6.805   0.772  0.1717 -0.1482 -0.3100
   18MOL   C348 8542   2.735   6.813   0.800 -0.1417 -0.4537  0.8460
   18MOL   C349 8543   2.665   6.937   0.793  0.3968  0.4696  0.7711
   18MOL   C350 8544   2.732   7.056   0.758  0.1748 -0.3472 -0.0197
   18MOL   C351 8545   2.866   7.040   0.718  0.3229  0.1804  0.1153
   18MOL   C352 8546   2.940   6.922   0.732 -0.1233 -0.3242 -0.5050
   18MOL   O353 8547   2.679   7.178   0.759 -0.3825  0.3997 -0.1918
   18MOL   H354 8548   2.748   6.496   0.353 -0.0812  2.3972 -2.0750
   18MOL   H355 8549   2.746   6.573   0.590  0.1896  1.5516 -0.2796
   18MOL   H356 8550   3.179   6.540   0.587 -0.9707 -2.6240  2.5947
   18MOL   H357 8551   3.169   6.441   0.362  0.6850 -0.3305  0.5839
   18MOL   H358 8552   2.677   6.724   0.817 -0.9435 -0.2401 -0.7035
   18MOL   H359 8553   2.559   6.936   0.815  0.5193 -1.9612  1.3890
   18MOL   H360 8554   2.915   7.128   0.679  2.8952 -0.8536  0.9538
   18MOL   H361 8555   3.046   6.913   0.709  0.0611 -1.7960  0.7821
   18MOL   C362 8556   2.554   7.354   0.674 -1.3788 -0.6255 -0.3425
   18MOL   C363 8557   2.456   7.403   0.585  0.1623  0.2564 -0.3048
   18MOL   C364 8558   2.396   7.316   0.490  0.1168  0.0417 -0.2258
   18MOL   C365 8559   2.444   7.184   0.481  0.5678  0.4121  1.0457
   18MOL   C366 8560   2.537   7.133   0.568  0.0956 -0.7371  0.5174
   18MOL   C367 8561   2.595   7.217   0.665  0.0183 -0.0278  0.0474
   18MOL   S368 8562   2.273   7.384   0.392  0.5500  0.2891 -0.1681
   18MOL   O369 8563   2.201   7.483   0.472 -0.0763  0.1750  0.3127
   18MOL   O370 8564   2.196   7.277   0.332 -0.2788  1.1032 -0.4476
   18MOL   C371 8565   2.351   7.466   0.253 -0.0296  0.4327 -0.1940
   18MOL   C372 8566   2.388   7.604   0.265 -0.2572  0.5421  0.2036
   18MOL   C373 8567   2.433   7.670   0.146  0.2204 -0.6801 -0.0779
   18MOL   C374 8568   2.452   7.603   0.028 -0.2037  0.5552  0.4562
   18MOL   C375 8569   2.430   7.468   0.021 -0.1814  0.2069 -0.6697
   18MOL   C376 8570   2.375   7.399   0.131  0.2343  0.1245 -0.6716
   18MOL   O377 8571   2.501   7.663   8.344 -0.4483  0.7413 -0.2019
   18MOL   H378 8572   2.601   7.420   0.746 -1.6504 -0.2255 -0.5288
   18MOL   H379 8573   2.418   7.504   0.587  1.0135  0.5785 -0.0559
   18MOL   H380 8574   2.391   7.127   0.406  1.7309  0.0036  0.5245
   18MOL   H381 8575   2.557   7.027   0.560  1.4153 -0.3715 -1.4570
   18MOL   H382 8576   2.366   7.663   0.353 -1.5703  1.2873 -0.5883
   18MOL   H383 8577   2.442   7.776   0.131 -2.6548 -0.1803  1.5144
   18MOL   H384 8578   2.436   7.429   8.345  2.6321  0.7800 -0.7597
   18MOL   H385 8579   2.339   7.298   0.115  1.1702 -0.4212  0.5474
   18MOL   C386 8580   2.649   7.855   8.342  0.2091  0.3869 -0.1644
   18MOL   C387 8581   2.778   7.912   8.345  0.5361  0.3446 -0.1537
   18MOL   C388 8582   2.887   7.830   8.375  0.6734 -0.9617  0.4615
   18MOL   C389 8583   2.868   7.691   8.393  0.3317 -0.3802  0.6001
   18MOL   C390 8584   2.739   7.640   8.388 -0.1847  0.0864  0.5963
   18MOL   C391 8585   2.627   7.718   8.357 -0.5037 -0.3528 -0.4704
   18MOL   S392 8586   3.046   7.914   8.399  0.3091 -0.1003 -0.0295
   18MOL   O393 8587   3.052   7.971   0.108  0.3992  0.6730 -0.1857
   18MOL   O394 8588   3.074   7.998   8.281  0.7057  0.2682  0.4312
   18MOL   C395 8589   3.178   7.790   8.392  0.3923 -0.7865  1.2129
   18MOL   C396 8590   3.191   7.712   8.272 -0.3088  0.3664 -0.3367
   18MOL   C397 8591   3.299   7.619   8.266  0.3469 -0.3026  0.0609
   18MOL   C398 8592   3.391   7.609   8.373  0.0532 -0.1953  0.0522
   18MOL   C399 8593   3.370   7.680   0.068 -0.0080  0.4880 -0.4875
   18MOL   C400 8594   3.264   7.771   0.076  0.0323  0.2084 -0.2805
   18MOL   O401 8595   3.494   7.520   8.361  0.3946  0.2296  0.2050
   18MOL   H402 8596   2.563   7.918   8.325 -0.5103 -0.5018  0.1224
   18MOL   H403 8597   2.798   8.018   8.333  1.8612  0.1177  0.0387
   18MOL   H404 8598   2.954   7.629   8.414  2.1157  1.6519 -0.5833
   18MOL   H405 8599   2.726   7.534   8.406  0.0636  0.1548  1.1832
   18MOL   H406 8600   3.116   7.724   8.196  0.5225  1.2502 -1.0423
   18MOL   H407 8601   3.306   7.547   8.185 -0.9785 -0.8411  0.4070
   18MOL   H408 8602   3.435   7.662   0.152 -0.4748  0.7647 -0.0610
   18MOL   H409 8603   3.251   7.825   0.169  0.5763 -0.4018  0.1540
   18MOL   C410 8604   3.555   7.284   8.395 -0.2398 -0.1863 -0.8465
   18MOL   C411 8605   3.522   7.150   0.007  0.0617 -0.0340  0.0208
   18MOL   C412 8606   3.397   7.124   0.064 -0.3625 -0.3032 -0.1641
   18MOL   C413 8607   3.300   7.226   0.066 -0.2908  0.3186  0.4720
   18MOL   C414 8608   3.332   7.356   0.019 -0.3855  0.1484  0.5139
   18MOL   C415 8609   3.462   7.393   8.408  0.2924  0.1998 -0.8623
   18MOL   S416 8610   3.352   6.953   0.113  0.0388  0.4974  0.0286
   18MOL   O417 8611   3.455   6.906   0.202 -0.0103 -0.0924 -0.0565
   18MOL   O418 8612   3.322   6.872   8.420  0.3986 -0.0049  0.0322
   18MOL   C419 8613   3.197   6.979   0.208  0.2706  0.2593 -0.3884
   18MOL   C420 8614   3.075   6.962   0.147 -0.6516 -0.3055 -0.8405
   18MOL   C421 8615   2.953   6.991   0.205 -0.5133  0.1513  0.0755
   18MOL   C422 8616   2.954   7.035   0.341  0.3633  0.3150  0.0426
   18MOL   C423 8617   3.081   7.047   0.407  0.6744  0.1106  0.0819
   18MOL   C424 8618   3.201   7.015   0.338 -0.4000  0.6570  0.4072
   18MOL   O425 8619   2.842   7.090   0.390  0.6543  0.4663 -0.0498
   18MOL   H426 8620   3.658   7.300   8.366  0.7224 -1.0047  1.8791
   18MOL   H427 8621   3.600   7.076   0.014  0.9567  1.0424  1.7642
   18MOL   H428 8622   3.197   7.215   0.096 -0.8894  2.9106 -0.5032
   18MOL   H429 8623   3.247   7.423   0.011 -1.1625 -0.6913  1.4533
   18MOL   H430 8624   3.069   6.943   0.041 -1.6551 -0.8278 -0.6906
   18MOL   H431 8625   2.859   6.991   0.152  0.2786 -2.1807 -1.4167
   18MOL   H432 8626   3.078   7.096   0.503  2.5985  0.2894  0.0570
   18MOL   H433 8627   3.298   7.009   0.385 -0.3797 -1.2859  0.1667
   18MOL   C434 8628   2.739   7.286   0.295 -0.2638 -0.1604  0.3348
   18MOL   C435 8629   2.726   7.427   0.293  0.4690  0.7191 -0.2457
   18MOL   C436 8630   2.802   7.505   0.385  0.5606  0.0481  0.2148
   18MOL   C437 8631   2.897   7.445   0.470  0.2322  0.0166 -0.7773
   18MOL   C438 8632   2.908   7.305   0.465 -1.1012 -0.2956 -0.1827
   18MOL   C439 8633   2.826   7.228   0.387 -0.4665  0.0762  0.1681
   18MOL   S440 8634   2.784   7.686   0.381  0.2032  0.0887  0.5648
   18MOL   O441 8635   2.705   7.717   0.256  0.0461 -0.0939 -0.3234
   18MOL   O442 8636   2.915   7.740   0.404  0.3702  0.4803  0.1864
   18MOL   C443 8637   2.692   7.738   0.524 -0.2792 -0.0736  0.7590
   18MOL   C444 8638   2.632   7.864   0.510 -0.0109  0.0825  0.6376
   18MOL   C445 8639   2.561   7.921   0.619 -0.0017  0.5544 -0.4164
   18MOL   C446 8640   2.554   7.855   0.744  0.2119  0.0640 -0.9228
   18MOL   C447 8641   2.625   7.733   0.760  0.3980 -0.2557 -0.7225
   18MOL   C448 8642   2.695   7.673   0.652 -0.4173  0.4561  0.1022
   18MOL   O449 8643   2.484   7.902   0.857 -0.3132  0.2592 -0.0302
   18MOL   H450 8644   2.670   7.227   0.236 -0.8755 -2.3660  3.1185
   18MOL   H451 8645   2.674   7.472   0.210 -1.3987  0.0243  0.5312
   18MOL   H452 8646   2.967   7.495   0.535 -0.7829  1.0716 -0.4779
   18MOL   H453 8647   2.976   7.257   0.534  0.4259  0.5235 -1.0924
   18MOL   H454 8648   2.642   7.914   0.415 -0.7970  0.3557  0.6980
   18MOL   H455 8649   2.509   8.015   0.607 -2.2434 -0.9914 -3.6643
   18MOL   H456 8650   2.629   7.694   0.861 -1.4399  4.1895  1.2414
   18MOL   H457 8651   2.746   7.580   0.673 -1.0139 -0.2164 -1.3576
   18MOL   C458 8652   2.248   7.944   0.807 -0.8497  0.2293 -0.4598
   18MOL   C459 8653   2.151   8.046   0.804  0.3148  0.7151 -0.1627
   18MOL   C460 8654   2.174   8.182   0.806 -0.1567  0.4578 -0.0964
   18MOL   C461 8655   2.301   8.226   0.824 -0.2422  0.0073 -0.0933
   18MOL   C462 8656   2.408   8.133   0.850  0.6962  0.1765  0.1905
   18MOL   C463 8657   2.379   7.992   0.841 -0.1106  0.2366 -0.0223
   18MOL   S464 8658   2.037   8.292   0.779 -0.1538  0.0557 -0.0494
   18MOL   O465 8659   2.091   0.005   0.777 -0.0454 -0.1708  0.2718
   18MOL   O466 8660   1.931   8.250   0.869  0.2770 -0.0779  0.0008
   18MOL   C467 8661   1.971   8.254   0.608  0.1270  0.2152  0.1391
   18MOL   C468 8662   1.846   8.192   0.601  0.0257 -0.2272 -0.2516
   18MOL   C469 8663   1.788   8.167   0.471 -0.5273  0.4252 -0.0416
   18MOL   C470 8664   1.847   8.220   0.351 -0.7195  0.0431 -0.6346
   18MOL   C471 8665   1.972   8.284   0.365 -0.2423 -0.1781 -0.1324
   18MOL   C472 8666   2.039   8.302   0.491 -0.2732  0.1052 -0.0376
   18MOL   O473 8667   1.792   8.187   0.230 -0.4483 -0.6751 -0.4843
   18MOL   H474 8668   2.236   7.837   0.794  0.5066 -0.3635  2.8174
   18MOL   H475 8669   2.049   8.013   0.787  0.0265 -0.1335  2.8344
   18MOL   H476 8670   2.321   8.332   0.824  1.7194 -0.3351  0.1730
   18MOL   H477 8671   2.504   8.174   0.881  0.5371  0.2424  0.6025
   18MOL   H478 8672   1.807   8.141   0.688 -0.7232 -2.0445 -1.6014
   18MOL   H479 8673   1.696   8.111   0.466  0.5823 -1.5006  0.7546
   18MOL   H480 8674   2.025   8.304   0.273 -0.8891  0.5020 -0.3614
   18MOL   H481 8675   2.129   8.360   0.508 -0.0027  0.2257 -1.8429
   18MOL   H482 8676   1.833   8.232   0.157  2.4038 -0.5460  1.1069
   19MOL     C1 8677   2.652   5.126   1.449  0.4970  0.0614 -0.3009
   19MOL     C2 8678   2.717   5.144   1.574 -0.5449 -0.1435 -0.2140
   19MOL     C3 8679   2.650   5.112   1.694 -0.5155 -0.4275 -0.0814
   19MOL     C4 8680   2.518   5.056   1.680  0.2963  0.0906  0.6795
   19MOL     C5 8681   2.451   5.037   1.557  0.1725 -0.2281  0.4132
   19MOL     C6 8682   2.518   5.079   1.440 -0.7049  0.0645 -0.0582
   19MOL     S7 8683   2.737   5.123   1.851  0.2910 -0.2440 -0.2473
   19MOL     O8 8684   2.852   5.214   1.831  0.0518 -0.2800 -0.2748
   19MOL     O9 8685   2.761   4.994   1.911  0.1452 -0.2654  0.4580
   19MOL    C10 8686   2.609   5.212   1.950 -0.4956 -0.1915 -0.3548
   19MOL    C11 8687   2.620   5.354   1.976 -0.5918  0.4815  0.7971
   19MOL    C12 8688   2.531   5.422   2.057 -0.3140  0.7394 -0.8387
   19MOL    C13 8689   2.425   5.350   2.122  0.6181  0.2155  0.9063
   19MOL    C14 8690   2.419   5.211   2.100  0.2728 -0.4054 -0.0294
   19MOL    C15 8691   2.510   5.140   2.017 -0.1072 -0.5996  0.3853
   19MOL    O16 8692   2.334   5.420   2.204 -0.0979 -0.1780 -0.1074
   19MOL    H17 8693   2.708   5.146   1.359  0.4350 -0.6834 -0.5082
   19MOL    H18 8694   2.820   5.174   1.569 -0.6684  0.0524 -1.8032
   19MOL    H19 8695   2.472   5.022   1.771  0.4308 -1.3562  0.2178
   19MOL    H20 8696   2.351   4.996   1.558  0.1966 -0.2701  1.1750
   19MOL    H21 8697   2.698   5.415   1.933  2.2731 -2.1021  2.1850
   19MOL    H22 8698   2.544   5.528   2.069 -1.9258  0.9348 -0.7057
   19MOL    H23 8699   2.329   5.164   2.137  0.0405  0.4858  0.5334
   19MOL    H24 8700   2.497   5.033   2.006 -1.5592 -0.0278 -4.7213
   19MOL    H25 8701   2.467   5.087   1.344 -2.2859  2.2432  0.8981
   19MOL    C26 8702   2.461   5.425   2.402  0.6453  0.3109 -0.2795
   19MOL    C27 8703   2.536   5.498   2.496 -0.1246 -0.0117 -0.6902
   19MOL    C28 8704   2.538   5.635   2.496  0.3636  0.5209  0.3550
   19MOL    C29 8705   2.470   5.707   2.397  0.2405 -0.5827  0.4169
   19MOL    C30 8706   2.398   5.636   2.297 -0.0303 -0.5134 -0.3108
   19MOL    C31 8707   2.392   5.494   2.303 -0.1079  0.4538 -0.8928
   19MOL    S32 8708   2.631   5.719   2.629  0.0580  0.5664  0.2369
   19MOL    O33 8709   2.581   5.673   2.759 -0.2970 -0.2947 -0.2190
   19MOL    O34 8710   2.625   5.862   2.595 -0.5681 -0.5065  0.1975
   19MOL    C35 8711   2.800   5.668   2.607 -1.4757  0.5499  1.2362
   19MOL    C36 8712   2.848   5.557   2.677  0.4802 -0.2700 -0.0701
   19MOL    C37 8713   2.975   5.506   2.643  0.2878 -0.1462 -0.8896
   19MOL    C38 8714   3.062   5.569   2.555 -0.3296 -0.2430 -0.3836
   19MOL    C39 8715   3.007   5.684   2.490 -1.0728 -0.2194 -0.2601
   19MOL    C40 8716   2.884   5.734   2.515  0.2229 -0.2140 -0.3962
   19MOL    O41 8717   3.191   5.529   2.532 -0.0151 -0.1708 -1.1308
   19MOL    H42 8718   2.457   5.318   2.414  1.4273  0.3360  0.2564
   19MOL    H43 8719   2.588   5.456   2.581 -1.6148  0.4879  0.4929
   19MOL    H44 8720   2.468   5.815   2.392  1.6752 -0.5369  0.8194
   19MOL    H45 8721   2.348   5.693   2.219 -0.2469 -1.1123 -0.6174
   19MOL    H46 8722   2.785   5.502   2.745 -0.5124 -0.1259 -0.8500
   19MOL    H47 8723   3.004   5.412   2.689 -1.6436  0.8274  2.4912
   19MOL    H48 8724   3.055   5.717   2.399  0.5556 -1.6277  0.0573
   19MOL    H49 8725   2.863   5.830   2.472 -0.3773  0.5000  1.4597
   19MOL    C50 8726   3.315   5.395   2.681  0.0644 -0.0317  0.2678
   19MOL    C51 8727   3.410   5.373   2.780 -0.2123  0.1178 -0.3615
   19MOL    C52 8728   3.446   5.486   2.858  0.1413 -0.1166 -0.3207
   19MOL    C53 8729   3.413   5.617   2.823 -0.1257  0.6318 -0.5580
   19MOL    C54 8730   3.327   5.636   2.714 -0.0426  0.2401 -0.3032
   19MOL    C55 8731   3.275   5.522   2.646 -0.9653 -0.2037 -0.2033
   19MOL    S56 8732   3.573   5.457   2.981  0.1230 -0.3079 -0.1027
   19MOL    O57 8733   3.635   5.324   2.947  0.2188  0.1652  0.1837
   19MOL    O58 8734   3.529   5.483   3.118  0.1698  0.0943  0.0559
   19MOL    C59 8735   3.691   5.581   2.945  0.4196 -0.4068 -0.2856
   19MOL    C60 8736   3.714   5.689   3.033  0.0973  0.2319  0.3570
   19MOL    C61 8737   3.800   5.792   2.991 -0.2723  0.3205  0.1470
   19MOL    C62 8738   3.870   5.787   2.875 -0.1092 -0.3849  0.8677
   19MOL    C63 8739   3.863   5.670   2.800  0.4876 -0.6059  0.6985
   19MOL    C64 8740   3.771   5.570   2.832  0.2949  0.0861  0.2111
   19MOL    O65 8741   3.949   5.888   2.837  0.4293  0.2262 -0.3869
   19MOL    H66 8742   3.279   5.307   2.629  1.4569 -0.4819  0.0464
   19MOL    H67 8743   3.438   5.271   2.802 -2.0749  0.1538  2.3683
   19MOL    H68 8744   3.433   5.705   2.883  1.3550  1.1588 -1.7718
   19MOL    H69 8745   3.291   5.732   2.679 -0.3517 -0.2691 -1.3747
   19MOL    H70 8746   3.664   5.697   3.128  0.9773 -1.5237  0.9869
   19MOL    H71 8747   3.822   5.871   3.062  0.3811  0.4223 -0.1666
   19MOL    H72 8748   3.917   5.660   2.707 -1.0285  0.1492 -0.2770
   19MOL    H73 8749   3.753   5.489   2.763 -0.3330  0.6687 -0.3171
   19MOL    C74 8750   4.183   5.848   2.885  0.4079 -0.7050 -0.1328
   19MOL    C75 8751   4.300   5.885   2.956 -0.6684 -0.0692  0.2912
   19MOL    C76 8752   4.288   5.981   3.057 -0.3527 -0.1671  0.3568
   19MOL    C77 8753   4.164   6.036   3.084 -0.5684 -0.1686 -0.3251
   19MOL    C78 8754   4.050   6.001   3.014 -0.1898 -0.2168  0.1462
   19MOL    C79 8755   4.060   5.909   2.911 -0.3022  0.0358  0.2583
   19MOL    S80 8756   4.438   6.037   3.149 -0.0312 -0.3117 -0.0228
   19MOL    O81 8757   4.530   5.923   3.152 -0.0443 -0.5801 -0.0962
   19MOL    O82 8758   4.378   6.089   3.277  1.2741  0.8870 -0.1948
   19MOL    C83 8759   4.498   6.174   3.056 -0.3603 -0.2527  0.3419
   19MOL    C84 8760   4.476   6.195   2.919  0.5111  0.6351 -0.0590
   19MOL    C85 8761   4.530   6.309   2.861  0.1290 -0.1315 -0.2659
   19MOL    C86 8762   4.618   6.390   2.936  0.1116 -0.6498 -0.6793
   19MOL    C87 8763   4.627   6.369   3.072  0.4677  0.2175  0.1096
   19MOL    C88 8764   4.569   6.260   3.134  0.1157  0.0205  0.4392
   19MOL    O89 8765   4.686   6.488   2.879  0.2341  0.1238  0.2415
   19MOL    H90 8766   4.193   5.789   2.795  0.8762  0.3096 -0.7442
   19MOL    H91 8767   4.392   5.834   2.935 -0.6928 -0.5907  1.3860
   19MOL    H92 8768   4.152   6.113   3.159 -0.6591 -1.8330  1.4039
   19MOL    H93 8769   3.961   6.057   3.041  0.7950  0.1349  2.8961
   19MOL    H94 8770   4.430   6.132   2.844  0.8522 -0.3864  0.5793
   19MOL    H95 8771   4.504   6.329   2.758 -0.6815 -0.8980 -0.2185
   19MOL    H96 8772   4.688   6.434   3.133 -2.9256  0.8651  3.0753
   19MOL    H97 8773   4.595   6.240   3.237  3.4639  0.7910 -0.1994
   19MOL    C98 8774   4.879   6.566   2.773 -0.1158 -0.4765  0.9348
   19MOL    C99 8775   5.019   6.560   2.755  0.1033 -0.6811  0.6171
   19MOL   C100 8776   5.082   6.437   2.780 -0.8186 -0.4290  0.7557
   19MOL   C101 8777   5.014   6.323   2.830 -0.4344  0.4197  0.1831
   19MOL   C102 8778   4.874   6.333   2.861 -0.0994  0.3837 -0.1115
   19MOL   C103 8779   4.813   6.461   2.833 -0.1671 -0.1920 -0.0327
   19MOL   S104 8780   5.260   6.418   2.751  0.2414  0.0434 -0.0196
   19MOL   O105 8781   5.306   6.308   2.839  0.2684  0.2730 -0.0935
   19MOL   O106 8782   5.329   6.547   2.757 -0.6978 -0.7114  0.3918
   19MOL   C107 8783   5.264   6.365   2.583  0.1829 -0.0063  0.7698
   19MOL   C108 8784   5.208   6.436   2.476  0.3514 -0.3827 -0.8798
   19MOL   C109 8785   5.189   6.387   2.343  0.0926 -0.3233 -0.5976
   19MOL   C110 8786   5.223   6.253   2.328  0.3052  0.1401 -0.3980
   19MOL   C111 8787   5.286   6.179   2.429 -0.3934 -0.3063 -0.6506
   19MOL   C112 8788   5.303   6.231   2.558 -0.5633 -0.3511  0.0202
   19MOL   O113 8789   5.195   6.198   2.209 -0.0930 -0.2623 -0.1262
   19MOL   H114 8790   4.827   6.658   2.752  2.1539  0.4870 -0.7365
   19MOL   H115 8791   5.076   6.645   2.721 -0.1348 -1.0613 -0.7501
   19MOL   H116 8792   5.070   6.230   2.834 -0.6982  0.2338 -0.4215
   19MOL   H117 8793   4.823   6.248   2.904  0.7824 -0.9360 -1.6355
   19MOL   H118 8794   5.175   6.535   2.503  1.9714  0.1532 -0.7777
   19MOL   H119 8795   5.130   6.438   2.268 -1.0388 -1.3043 -0.3827
   19MOL   H120 8796   5.327   6.080   2.412  0.4172  0.1120 -1.1276
   19MOL   H121 8797   5.352   6.171   2.633  0.6188  2.9344  1.9756
   19MOL   C122 8798   5.269   6.132   1.989 -0.5098  0.0502  0.0290
   19MOL   C123 8799   5.350   6.148   1.873 -0.3550  0.0865  0.2240
   19MOL   C124 8800   5.459   6.238   1.879 -0.0525 -0.3301  0.7982
   19MOL   C125 8801   5.492   6.317   1.998 -0.3266 -0.6085  0.2438
   19MOL   C126 8802   5.403   6.301   2.106 -0.1842 -0.5597  0.3035
   19MOL   C127 8803   5.293   6.209   2.105  0.0502 -0.2923 -0.8817
   19MOL   S128 8804   5.558   6.244   1.722  0.1813  0.4638  0.1337
   19MOL   O129 8805   5.664   6.345   1.745 -0.3057  0.1920  0.5104
   19MOL   O130 8806   5.481   6.249   1.600 -0.4844  0.6410 -0.1820
   19MOL   C131 8807   5.640   6.091   1.724 -0.2483  0.9635  0.4782
   19MOL   C132 8808   5.773   6.080   1.767 -0.2658  0.1632  0.5771
   19MOL   C133 8809   5.838   5.960   1.770  0.1391  0.6312 -0.4128
   19MOL   C134 8810   5.772   5.839   1.736 -0.2218  0.3375 -0.0712
   19MOL   C135 8811   5.640   5.849   1.687  0.4384  1.2358  0.8034
   19MOL   C136 8812   5.580   5.975   1.679 -0.1965 -0.1955  0.3832
   19MOL   O137 8813   5.835   5.714   1.751 -0.4647  0.4230  0.3509
   19MOL   H138 8814   5.189   6.059   1.988 -0.1430 -0.3736  0.7297
   19MOL   H139 8815   5.319   6.089   1.788 -0.5068  1.5232 -0.7371
   19MOL   H140 8816   5.582   6.377   1.992 -0.6716  0.2111  2.9383
   19MOL   H141 8817   5.427   6.355   2.196  1.9567  2.3653 -1.9491
   19MOL   H142 8818   5.830   6.170   1.790 -0.5749  0.9157 -1.5109
   19MOL   H143 8819   5.940   5.952   1.805 -0.2292  1.0975  0.7640
   19MOL   H144 8820   5.581   5.766   1.651  0.0174  1.3763  1.1653
   19MOL   H145 8821   5.483   5.986   1.634  0.1729  2.6660  0.2282
   19MOL   C146 8822   5.789   5.625   1.522 -0.0639  0.2701 -0.2227
   19MOL   C147 8823   5.743   5.521   1.438 -0.1378  0.4137 -0.2824
   19MOL   C148 8824   5.732   5.394   1.496 -0.7501  0.0176  0.4455
   19MOL   C149 8825   5.773   5.369   1.625  0.0056 -0.5436  0.1782
   19MOL   C150 8826   5.812   5.482   1.707  0.5402  0.4010 -0.2906
   19MOL   C151 8827   5.817   5.613   1.654  0.3239 -0.1215 -0.5198
   19MOL   S152 8828   5.686   5.254   1.395 -0.0484 -0.2349 -0.2136
   19MOL   O153 8829   5.768   5.144   1.438 -0.1765  0.2620  0.1188
   19MOL   O154 8830   5.688   5.293   1.257 -0.2993 -0.1356  0.7998
   19MOL   C155 8831   5.512   5.218   1.441  0.9227  0.3691  0.1979
   19MOL   C156 8832   5.423   5.177   1.336  0.0126  0.3709 -0.7074
   19MOL   C157 8833   5.292   5.143   1.363  1.3586  0.2011 -0.3120
   19MOL   C158 8834   5.249   5.144   1.500 -0.7508  0.1761  0.3665
   19MOL   C159 8835   5.332   5.180   1.608  0.0289  0.6505 -0.2680
   19MOL   C160 8836   5.470   5.218   1.577 -0.1898  0.4305 -0.7606
   19MOL   O161 8837   5.127   5.096   1.533  0.0499  0.6662 -0.5600
   19MOL   H162 8838   5.790   5.727   1.487  1.4256  0.7239  1.1025
   19MOL   H163 8839   5.727   5.541   1.333  0.4668 -0.0208 -0.4635
   19MOL   H164 8840   5.778   5.268   1.661 -0.9078 -0.7855 -0.3818
   19MOL   H165 8841   5.836   5.470   1.812 -3.3770  0.1060  0.6639
   19MOL   H166 8842   5.467   5.173   1.237  0.8729 -0.0843 -0.3031
   19MOL   H167 8843   5.235   5.104   1.279  0.7904  2.1713 -0.8533
   19MOL   H168 8844   5.305   5.188   1.712 -0.0802  0.7750 -0.3052
   19MOL   H169 8845   5.539   5.239   1.658 -0.9406  2.1856 -0.5557
   19MOL   C170 8846   5.026   5.277   1.650  1.4435  0.1216 -0.1828
   19MOL   C171 8847   4.910   5.358   1.669 -0.6164  0.2708 -0.2228
   19MOL   C172 8848   4.807   5.361   1.572 -0.3127  0.1099  0.4571
   19MOL   C173 8849   4.814   5.270   1.466 -0.7840 -0.3866  1.1243
   19MOL   C174 8850   4.923   5.189   1.448 -0.1055 -0.0368  0.0959
   19MOL   C175 8851   5.032   5.191   1.539  0.0565 -0.1562  0.0781
   19MOL   S176 8852   4.655   5.456   1.578 -0.4074  0.0566  0.0750
   19MOL   O177 8853   4.557   5.377   1.503  0.5852 -0.4961  0.7399
   19MOL   O178 8854   4.689   5.593   1.544 -0.0109  0.2785  0.0644
   19MOL   C179 8855   4.598   5.462   1.747 -0.2460 -0.0375  0.2841
   19MOL   C180 8856   4.495   5.378   1.789  0.3033  0.2512 -0.0874
   19MOL   C181 8857   4.428   5.405   1.912 -0.1556  0.3604 -0.2844
   19MOL   C182 8858   4.475   5.513   1.993  0.6770 -0.0373  0.3197
   19MOL   C183 8859   4.587   5.588   1.948  0.2372 -0.1229  0.6676
   19MOL   C184 8860   4.644   5.570   1.820  0.6359  0.2136  0.3833
   19MOL   O185 8861   4.427   5.545   2.113  0.5264 -0.2319  0.3569
   19MOL   H186 8862   5.099   5.288   1.730  1.4553 -1.3664  0.0263
   19MOL   H187 8863   4.900   5.414   1.760  0.3153 -1.7091  1.1336
   19MOL   H188 8864   4.740   5.258   1.388 -1.2337 -1.5218  1.7211
   19MOL   H189 8865   4.914   5.113   1.371 -0.1060 -0.6570  0.7067
   19MOL   H190 8866   4.472   5.302   1.716  0.0663 -0.1587  0.4143
   19MOL   H191 8867   4.339   5.350   1.942  0.4695 -1.1147 -1.1200
   19MOL   H192 8868   4.630   5.658   2.017  0.2208  0.4282  0.1226
   19MOL   H193 8869   4.718   5.641   1.786 -0.2077  0.6351 -0.6066
   19MOL   C194 8870   4.246   5.511   2.264 -0.7211  0.8585  0.7652
   19MOL   C195 8871   4.116   5.541   2.304 -0.3760 -0.2243  0.5541
   19MOL   C196 8872   4.019   5.580   2.201  0.2436  0.1726 -0.1863
   19MOL   C197 8873   4.062   5.616   2.074 -0.1681  0.6248  0.6190
   19MOL   C198 8874   4.203   5.614   2.046  0.2380 -0.3211 -0.2900
   19MOL   C199 8875   4.294   5.559   2.139  0.2729 -0.3471  0.4452
   19MOL   S200 8876   3.853   5.599   2.250  0.2831  0.2374  0.0828
   19MOL   O201 8877   3.794   5.692   2.149 -0.6405 -0.1885 -0.0622
   19MOL   O202 8878   3.872   5.647   2.387  0.3058 -0.4073 -0.1739
   19MOL   C203 8879   3.772   5.443   2.249  0.0545 -0.0430 -0.4870
   19MOL   C204 8880   3.641   5.437   2.298  1.0347  0.3079  0.4316
   19MOL   C205 8881   3.579   5.310   2.304  1.1020 -0.7240  0.2144
   19MOL   C206 8882   3.656   5.194   2.281  0.1344 -0.2718 -0.5517
   19MOL   C207 8883   3.792   5.205   2.238 -0.1878  0.6072 -0.0139
   19MOL   C208 8884   3.856   5.329   2.222  0.4565 -0.5241  0.0469
   19MOL   O209 8885   3.600   5.071   2.316 -0.6068 -0.5696  0.0876
   19MOL   H210 8886   4.325   5.466   2.322 -1.6886  0.4650  1.7856
   19MOL   H211 8887   4.085   5.514   2.404 -0.5480  1.2884  0.9190
   19MOL   H212 8888   3.996   5.656   1.999  0.1666  0.3319  0.1674
   19MOL   H213 8889   4.240   5.648   1.951  3.1604  1.6812  1.4879
   19MOL   H214 8890   3.588   5.519   2.345  0.5153  0.2130  0.0084
   19MOL   H215 8891   3.475   5.303   2.332  0.1574 -0.2920 -3.0469
   19MOL   H216 8892   3.841   5.109   2.236  0.9076  1.1730 -3.1411
   19MOL   H217 8893   3.955   5.344   2.181  0.1081 -1.1586 -1.0558
   19MOL   C218 8894   3.512   4.960   2.121 -0.4537 -0.1408  0.2676
   19MOL   C219 8895   3.409   4.910   2.044 -0.1755 -0.4022 -0.0753
   19MOL   C220 8896   3.275   4.917   2.085 -0.2702 -0.5235 -0.0262
   19MOL   C221 8897   3.252   4.985   2.208 -0.0179 -0.2434  0.2038
   19MOL   C222 8898   3.358   5.047   2.282 -0.3325  0.5370 -0.6233
   19MOL   C223 8899   3.493   5.030   2.243 -0.4288  0.0095  0.5401
   19MOL   S224 8900   3.133   4.878   1.985  0.0209  0.1239  0.1809
   19MOL   O225 8901   3.104   4.992   1.893  0.5201 -0.1327 -0.0961
   19MOL   O226 8902   3.027   4.837   2.076 -0.3109  0.6208  0.6930
   19MOL   C227 8903   3.184   4.748   1.880  0.4043 -1.0030 -0.5281
   19MOL   C228 8904   3.239   4.775   1.749  0.1949 -0.3259  0.0319
   19MOL   C229 8905   3.280   4.672   1.664 -0.0433  0.3865  0.1528
   19MOL   C230 8906   3.261   4.540   1.708  0.8385 -0.0357 -0.0464
   19MOL   C231 8907   3.213   4.510   1.840  0.2580 -0.0582  0.3137
   19MOL   C232 8908   3.171   4.614   1.924 -0.9699  0.4500  0.3539
   19MOL   O233 8909   3.309   4.449   1.616  0.1148 -0.5440  0.8299
   19MOL   H234 8910   3.614   4.951   2.085 -0.7805  1.4453 -1.0832
   19MOL   H235 8911   3.429   4.881   1.941 -0.4672  0.9152 -0.5069
   19MOL   H236 8912   3.152   4.997   2.247 -0.1989  1.9150 -0.8307
   19MOL   H237 8913   3.351   5.098   2.377 -0.7150  0.0097 -0.3629
   19MOL   H238 8914   3.242   4.879   1.721 -2.8950 -0.2619 -0.2857
   19MOL   H239 8915   3.315   4.695   1.564  0.2988 -0.2123  0.1327
   19MOL   H240 8916   3.215   4.408   1.876 -2.0253 -1.3569 -2.9646
   19MOL   H241 8917   3.127   4.606   2.023 -2.0860 -0.6002 -0.2046
   19MOL   C242 8918   3.273   4.219   1.677  0.1344  0.3780 -0.4841
   19MOL   C243 8919   3.209   4.093   1.651  0.0361  0.6367 -0.0582
   19MOL   C244 8920   3.129   4.089   1.536 -0.1786 -0.1075  0.4241
   19MOL   C245 8921   3.094   4.205   1.459 -0.6696  0.2473  0.4173
   19MOL   C246 8922   3.142   4.326   1.499  0.6410  0.1714  0.8736
   19MOL   C247 8923   3.243   4.335   1.599 -0.0083  0.0815  0.0723
   19MOL   S248 8924   3.073   3.934   1.470 -0.4384  0.1591  0.3908
   19MOL   O249 8925   3.118   3.927   1.329  0.1655  0.2970  0.1353
   19MOL   O250 8926   2.929   3.916   1.495  0.1319 -0.2873 -0.4392
   19MOL   C251 8927   3.160   3.814   1.561 -0.5583  0.4688 -0.6717
   19MOL   C252 8928   3.085   3.742   1.656  0.2724 -0.0440 -0.2667
   19MOL   C253 8929   3.150   3.637   1.725  0.6418 -0.2013  0.6500
   19MOL   C254 8930   3.278   3.597   1.697  0.3790 -0.1847  0.0971
   19MOL   C255 8931   3.356   3.676   1.606  0.5059  0.5750 -0.1537
   19MOL   C256 8932   3.297   3.779   1.527  0.5976 -0.6412  0.3246
   19MOL   O257 8933   3.338   3.502   1.774  0.0882  0.0876  0.0894
   19MOL   H258 8934   3.359   4.213   1.742 -1.0555  0.0898  1.0697
   19MOL   H259 8935   3.245   4.001   1.693 -0.8950  0.7451  0.9839
   19MOL   H260 8936   3.031   4.190   1.373 -2.0523  0.6312  1.3466
   19MOL   H261 8937   3.117   4.419   1.451  1.2835  0.4682  1.1079
   19MOL   H262 8938   2.984   3.767   1.683  1.4079  1.0511  3.3538
   19MOL   H263 8939   3.091   3.579   1.794 -0.6483  0.7738  0.3715
   19MOL   H264 8940   3.460   3.649   1.592  0.0850  0.7095 -4.3301
   19MOL   H265 8941   3.353   3.843   1.461  2.5712 -2.0455  0.5878
   19MOL   C266 8942   3.323   3.264   1.817  0.5945 -0.2846  0.0453
   19MOL   C267 8943   3.354   3.135   1.785  0.6374  0.0760 -1.0352
   19MOL   C268 8944   3.397   3.102   1.656  0.2059 -0.8823  0.0603
   19MOL   C269 8945   3.422   3.206   1.566 -0.8337  0.3350  0.5720
   19MOL   C270 8946   3.403   3.338   1.604 -0.4154  0.3931  0.0457
   19MOL   C271 8947   3.347   3.371   1.730 -0.4380 -0.1733 -0.4919
   19MOL   S272 8948   3.439   2.936   1.618  0.1357 -0.3037 -0.3864
   19MOL   O273 8949   3.392   2.859   1.732  0.4402  0.0237 -0.4538
   19MOL   O274 8950   3.585   2.926   1.593  0.0199  0.4799 -0.2165
   19MOL   C275 8951   3.348   2.877   1.471  1.2606 -0.2759 -0.3191
   19MOL   C276 8952   3.388   2.765   1.398 -0.3915 -0.4612  0.1866
   19MOL   C277 8953   3.308   2.727   1.285 -0.1128  0.2292 -0.4546
   19MOL   C278 8954   3.186   2.799   1.259 -0.4039 -0.1288 -0.3232
   19MOL   C279 8955   3.157   2.918   1.335  0.3131 -0.1000  0.2500
   19MOL   C280 8956   3.241   2.963   1.435  0.4583  0.4801  0.4496
   19MOL   O281 8957   3.109   2.757   1.154 -0.0060  0.6397  0.6234
   19MOL   H282 8958   3.277   3.281   1.913 -0.7990 -1.1290 -0.4612
   19MOL   H283 8959   3.337   3.068   1.867 -1.3296 -0.1977 -1.6495
   19MOL   H284 8960   3.466   3.175   1.473 -0.6702  0.0736  0.7323
   19MOL   H285 8961   3.433   3.413   1.533 -1.3295  0.0765 -0.6889
   19MOL   H286 8962   3.484   2.720   1.418  0.5956  1.5458  0.0070
   19MOL   H287 8963   3.344   2.636   1.240  0.6754  0.9891 -1.3861
   19MOL   H288 8964   3.062   2.964   1.310 -0.7666 -1.9415  0.8022
   19MOL   H289 8965   3.208   3.046   1.496 -1.9216 -1.0401  1.2920
   19MOL   C290 8966   2.881   2.805   1.109 -0.2453 -0.0203 -0.4237
   19MOL   C291 8967   2.743   2.782   1.140 -0.1428  0.3665  0.1970
   19MOL   C292 8968   2.702   2.676   1.225 -0.4393  0.5216  0.5429
   19MOL   C293 8969   2.797   2.600   1.294  0.8695  0.0192 -0.5554
   19MOL   C294 8970   2.935   2.627   1.268 -0.3168  0.1429 -0.3813
   19MOL   C295 8971   2.979   2.733   1.180  0.0567 -0.4978 -0.6059
   19MOL   S296 8972   2.529   2.621   1.224 -0.4139 -0.2508 -0.1810
   19MOL   O297 8973   2.533   2.483   1.180  0.3242  0.1967 -0.5715
   19MOL   O298 8974   2.450   2.720   1.160  0.5428 -0.3295  0.1911
   19MOL   C299 8975   2.484   2.626   1.401  0.2648 -0.1594  0.0185
   19MOL   C300 8976   2.373   2.550   1.443  0.1993  0.3686  0.4959
   19MOL   C301 8977   2.336   2.557   1.577  0.3497  0.2751 -0.0950
   19MOL   C302 8978   2.397   2.644   1.669 -1.1960 -0.1471 -0.3341
   19MOL   C303 8979   2.502   2.724   1.623  0.2047  0.6391 -0.4580
   19MOL   C304 8980   2.557   2.706   1.492  0.1896 -0.0952 -0.3065
   19MOL   O305 8981   2.345   2.646   1.792 -0.1734  0.3946  0.3737
   19MOL   H306 8982   2.910   2.886   1.044  0.7993 -0.4098 -0.4412
   19MOL   H307 8983   2.674   2.851   1.094  0.4195 -0.6597 -2.2432
   19MOL   H308 8984   2.762   2.526   1.364 -2.0562  1.4525 -0.4254
   19MOL   H309 8985   3.018   2.578   1.317 -2.5716 -1.0754  2.3500
   19MOL   H310 8986   2.329   2.485   1.368  1.8323 -1.3664  0.9731
   19MOL   H311 8987   2.250   2.503   1.612 -0.4652  0.8372 -1.1853
   19MOL   H312 8988   2.543   2.795   1.693 -2.4195 -0.0056  1.8455
   19MOL   H313 8989   2.644   2.763   1.463  3.0627 -2.7540  2.6722
   19MOL   C314 8990   2.531   2.640   1.945  0.4652  0.4776 -0.1113
   19MOL   C315 8991   2.585   2.687   2.064  0.0520  0.2680  0.4295
   19MOL   C316 8992   2.533   2.795   2.132  0.4982 -0.0774  0.2683
   19MOL   C317 8993   2.419   2.857   2.081  0.0539 -0.0373  0.0409
   19MOL   C318 8994   2.356   2.810   1.968 -0.7429 -0.4629  0.4614
   19MOL   C319 8995   2.417   2.705   1.899 -0.3406  0.2625  0.0924
   19MOL   S320 8996   2.597   2.854   2.290 -0.0045  0.0273  0.2372
   19MOL   O321 8997   2.588   3.000   2.280  0.0140 -0.3847  0.8465
   19MOL   O322 8998   2.726   2.793   2.317  0.6938  0.3291  0.2566
   19MOL   C323 8999   2.487   2.799   2.412  0.1154 -1.1313  0.1255
   19MOL   C324 9000   2.471   2.663   2.439  0.2441  0.3052 -0.3511
   19MOL   C325 9001   2.401   2.615   2.553  0.1031 -0.8261 -0.2777
   19MOL   C326 9002   2.332   2.714   2.633 -0.4288  0.4189 -0.1795
   19MOL   C327 9003   2.348   2.850   2.600 -0.2669 -0.2524 -1.1080
   19MOL   C328 9004   2.413   2.893   2.486  0.1541  0.2122  0.1688
   19MOL   O329 9005   2.257   2.672   2.735  0.1425 -0.6171 -0.3513
   19MOL   H330 9006   2.564   2.549   1.898 -2.9197 -0.1727 -1.3931
   19MOL   H331 9007   2.662   2.623   2.103  0.6027  0.9373  0.4360
   19MOL   H332 9008   2.381   2.941   2.136 -0.0397 -1.1949  1.8069
   19MOL   H333 9009   2.258   2.847   1.941 -0.5565  0.1126  0.5563
   19MOL   H334 9010   2.522   2.589   2.380  0.9238  1.3031 -1.0387
   19MOL   H335 9011   2.380   2.510   2.569 -1.5923 -0.3434  0.8529
   19MOL   H336 9012   2.296   2.926   2.656 -0.2244 -0.6934 -0.4613
   19MOL   H337 9013   2.434   2.998   2.470 -0.9885  0.8389  2.7081
   19MOL   C338 9014   2.296   2.806   2.932 -0.1899  0.1205  0.4716
   19MOL   C339 9015   2.354   2.811   3.066  0.1315 -0.3718  0.6033
   19MOL   C340 9016   2.423   2.703   3.121 -0.6340  0.3881 -0.5028
   19MOL   C341 9017   2.417   2.578   3.055  0.1305  0.1334 -0.2339
   19MOL   C342 9018   2.367   2.569   2.924 -0.0891 -0.3597 -0.3258
   19MOL   C343 9019   2.304   2.682   2.861  0.0747  0.0616 -0.3052
   19MOL   S344 9020   2.489   2.718   3.288  0.4924 -0.1562  0.0251
   19MOL   O345 9021   2.472   2.588   3.357 -0.2769  0.1340  0.0364
   19MOL   O346 9022   2.422   2.834   3.355 -0.5733  0.3454 -0.1555
   19MOL   C347 9023   2.662   2.751   3.269 -0.2876 -0.6590 -0.9972
   19MOL   C348 9024   2.754   2.664   3.328  0.3865 -0.0896  0.6668
   19MOL   C349 9025   2.895   2.685   3.312 -0.0492  0.5974  0.4641
   19MOL   C350 9026   2.942   2.794   3.235 -0.0616  0.4574 -0.5612
   19MOL   C351 9027   2.844   2.896   3.189  0.2002  0.4919  0.4754
   19MOL   C352 9028   2.709   2.866   3.196 -0.3097  0.3392  0.0193
   19MOL   O353 9029   3.072   2.818   3.222  0.6506 -0.1901  0.4755
   19MOL   H354 9030   2.266   2.896   2.879  0.9961  1.7967  2.5647
   19MOL   H355 9031   2.358   2.904   3.121  2.7947 -0.7029  1.0284
   19MOL   H356 9032   2.457   2.484   3.092 -2.5075 -0.8080  0.3358
   19MOL   H357 9033   2.352   2.474   2.875 -3.3063 -0.3711  0.5606
   19MOL   H358 9034   2.724   2.577   3.384  0.2653 -0.6353 -0.2358
   19MOL   H359 9035   2.966   2.625   3.367 -0.8356  1.3999  2.4309
   19MOL   H360 9036   2.882   2.985   3.142  0.6094  0.0600 -0.0278
   19MOL   H361 9037   2.641   2.933   3.146 -0.2568  1.2781  1.1758
   19MOL   C362 9038   3.123   2.733   3.003  0.1462 -0.0126 -0.3346
   19MOL   C363 9039   3.203   2.658   2.916 -0.1774  0.0921 -0.1729
   19MOL   C364 9040   3.319   2.591   2.962  0.5441  0.2419 -0.4393
   19MOL   C365 9041   3.354   2.602   3.100 -0.0579  0.0006 -0.2938
   19MOL   C366 9042   3.271   2.687   3.182  0.8150  0.0693  0.7254
   19MOL   C367 9043   3.149   2.741   3.137 -0.6973  0.5548 -0.2441
   19MOL   S368 9044   3.445   2.536   2.845  0.0594 -0.0452 -0.1476
   19MOL   O369 9045   3.586   2.569   2.883 -0.2848  0.3875  0.7874
   19MOL   O370 9046   3.392   2.580   2.713 -0.1247  0.4598 -0.2003
   19MOL   C371 9047   3.430   2.356   2.858  0.1429 -0.9582  0.4152
   19MOL   C372 9048   3.307   2.291   2.890 -0.1911 -0.7724  0.4383
   19MOL   C373 9049   3.307   2.152   2.896  0.0952  0.4333  0.2721
   19MOL   C374 9050   3.428   2.076   2.878  0.6061 -0.1144 -0.3917
   19MOL   C375 9051   3.544   2.143   2.833  0.2891 -0.9935  0.5530
   19MOL   C376 9052   3.547   2.283   2.825 -0.3289  1.0819 -0.7424
   19MOL   O377 9053   3.434   1.938   2.890 -0.0973  0.6075 -0.5653
   19MOL   H378 9054   3.042   2.797   2.973  0.1633  0.1163 -0.1116
   19MOL   H379 9055   3.182   2.667   2.810 -0.3244 -2.9099 -0.4279
   19MOL   H380 9056   3.442   2.556   3.143  1.4664  3.7566  0.8564
   19MOL   H381 9057   3.308   2.696   3.283  0.9017 -1.5603  0.8439
   19MOL   H382 9058   3.217   2.346   2.912 -0.1807 -0.8144  0.5872
   19MOL   H383 9059   3.219   2.097   2.926 -1.7103  1.6770 -2.5547
   19MOL   H384 9060   3.628   2.077   2.819  1.2770  0.6590 -1.4847
   19MOL   H385 9061   3.638   2.339   2.808  0.1639 -0.1095 -2.1346
   19MOL   C386 9062   3.323   1.763   2.999 -0.0789  0.1906  0.2106
   19MOL   C387 9063   3.269   1.699   3.114  0.2935 -0.0677  1.0334
   19MOL   C388 9064   3.281   1.757   3.239  0.1984 -0.3551  0.7747
   19MOL   C389 9065   3.337   1.889   3.250  0.1065  0.0248 -0.0070
   19MOL   C390 9066   3.390   1.953   3.137  0.3734 -0.3379 -0.0427
   19MOL   C391 9067   3.384   1.885   3.010 -0.4095  0.2718  0.1345
   19MOL   S392 9068   3.220   1.654   3.368 -0.0454  0.0503 -0.0582
   19MOL   O393 9069   3.287   1.524   3.364 -0.0419 -0.2963 -0.2574
   19MOL   O394 9070   3.072   1.650   3.365 -0.3779 -0.8107  0.1784
   19MOL   C395 9071   3.274   1.742   3.519  0.2977 -0.1576  0.4114
   19MOL   C396 9072   3.401   1.710   3.578 -0.4940  0.0623  0.0885
   19MOL   C397 9073   3.445   1.790   3.686 -0.1205  0.3768 -1.2869
   19MOL   C398 9074   3.364   1.884   3.743 -1.0928  0.3326 -0.0217
   19MOL   C399 9075   3.236   1.907   3.692  0.6710  0.0196  0.4434
   19MOL   C400 9076   3.192   1.842   3.577 -0.1752  0.3169  0.5875
   19MOL   O401 9077   3.409   1.950   3.854 -0.2720 -0.2537  0.3090
   19MOL   H402 9078   3.322   1.698   2.912  0.2922 -3.2896  2.7108
   19MOL   H403 9079   3.223   1.602   3.101 -2.2390  1.1346  0.6212
   19MOL   H404 9080   3.348   1.934   3.347  0.1872 -1.2691  0.6047
   19MOL   H405 9081   3.432   2.053   3.141  0.1778 -0.3033  1.5616
   19MOL   H406 9082   3.464   1.637   3.529 -1.8452 -0.6909 -0.5628
   19MOL   H407 9083   3.545   1.780   3.725  0.1093  1.3632 -1.6142
   19MOL   H408 9084   3.174   1.984   3.736  1.1977 -0.6385  2.3850
   19MOL   H409 9085   3.095   1.855   3.532  0.1224  0.2854 -0.0695
   19MOL   C410 9086   3.296   1.871   4.058  0.8090 -0.5973 -0.2037
   19MOL   C411 9087   3.229   1.905   4.171 -0.0228 -0.2209 -0.4243
   19MOL   C412 9088   3.161   2.028   4.177 -0.4870  0.0699 -0.0128
   19MOL   C413 9089   3.178   2.132   4.080  0.1461  0.8048 -0.0964
   19MOL   C414 9090   3.260   2.096   3.969  0.9166  0.1323 -0.2633
   19MOL   C415 9091   3.319   1.970   3.955 -0.0132 -0.2031 -0.5001
   19MOL   S416 9092   3.065   2.065   4.330 -0.1089 -0.6982  0.0842
   19MOL   O417 9093   2.995   2.193   4.307 -0.7386  0.1835 -0.0909
   19MOL   O418 9094   3.149   2.052   4.453 -0.5034 -0.0562 -0.0853
   19MOL   C419 9095   2.943   1.931   4.336 -0.4441  0.3599 -0.1192
   19MOL   C420 9096   2.817   1.944   4.277  0.6159 -0.0102  0.2560
   19MOL   C421 9097   2.718   1.846   4.273  0.7493  0.1454 -0.2212
   19MOL   C422 9098   2.747   1.725   4.337  0.4973  0.2232 -0.7361
   19MOL   C423 9099   2.868   1.707   4.409 -0.3776 -0.0345  0.2861
   19MOL   C424 9100   2.964   1.810   4.413 -0.1589 -0.3548 -0.1191
   19MOL   O425 9101   2.658   1.619   4.325 -0.4524 -0.3679  0.2292
   19MOL   H426 9102   3.337   1.771   4.058  2.9296  0.2429 -0.3816
   19MOL   H427 9103   3.211   1.834   4.251  0.5827  0.6961  0.5372
   19MOL   H428 9104   3.120   2.223   4.078 -1.9163 -0.4907 -0.7744
   19MOL   H429 9105   3.283   2.169   3.893  0.6271  0.9528  0.4173
   19MOL   H430 9106   2.800   2.037   4.224  0.4549 -0.4638 -0.4841
   19MOL   H431 9107   2.626   1.867   4.220  0.7353  2.1306  0.5184
   19MOL   H432 9108   2.888   1.610   4.453 -2.4541 -0.6679 -0.0874
   19MOL   H433 9109   3.057   1.795   4.466  0.0106 -0.4371 -0.4401
   19MOL   C434 9110   2.550   1.545   4.519  0.2073  0.2873  0.7028
   19MOL   C435 9111   2.436   1.532   4.595  0.6046 -0.5683  0.1523
   19MOL   C436 9112   2.321   1.608   4.560 -0.6150 -0.2262 -0.8406
   19MOL   C437 9113   2.309   1.686   4.445 -0.1846  0.0070 -0.2732
   19MOL   C438 9114   2.423   1.687   4.358  0.0138  0.2769 -0.4936
   19MOL   C439 9115   2.545   1.623   4.400  0.3207  0.4243 -0.1920
   19MOL   S440 9116   2.181   1.607   4.668 -0.0520 -0.5692 -0.2668
   19MOL   O441 9117   2.127   1.747   4.678 -0.3270  0.6389 -0.0430
   19MOL   O442 9118   2.211   1.539   4.794 -0.5365  0.0271 -0.1103
   19MOL   C443 9119   2.063   1.496   4.597 -0.1360  0.0140  0.1222
   19MOL   C444 9120   2.111   1.373   4.547 -0.1959  0.1391 -0.0777
   19MOL   C445 9121   2.011   1.283   4.494  0.1794 -0.2700 -0.4481
   19MOL   C446 9122   1.877   1.313   4.513  0.2892  0.4681  0.3542
   19MOL   C447 9123   1.833   1.433   4.568 -0.0767 -0.5519  0.0845
   19MOL   C448 9124   1.925   1.532   4.603 -0.1476 -0.3672 -0.7818
   19MOL   O449 9125   1.795   1.215   4.479 -0.0602  0.5295  0.1083
   19MOL   H450 9126   2.642   1.491   4.533  0.8439  1.0042 -0.5795
   19MOL   H451 9127   2.440   1.471   4.683  0.7400  0.9123  1.1978
   19MOL   H452 9128   2.214   1.730   4.419 -1.5328 -1.9372  1.2469
   19MOL   H453 9129   2.421   1.738   4.263  1.2026  0.0303 -0.6590
   19MOL   H454 9130   2.213   1.341   4.536 -0.5257 -0.6225 -1.0438
   19MOL   H455 9131   2.034   1.188   4.447 -2.1492 -1.9579  1.7007
   19MOL   H456 9132   1.727   1.450   4.580 -0.1393 -1.8109  1.5257
   19MOL   H457 9133   1.895   1.631   4.633 -2.1490 -1.0687 -0.3445
   19MOL   C458 9134   1.863   1.032   4.622  0.3346  0.5069 -0.0039
   19MOL   C459 9135   1.826   0.933   4.719 -0.3845 -0.8422  0.0489
   19MOL   C460 9136   1.695   0.933   4.774 -0.3772  0.1910  0.2694
   19MOL   C461 9137   1.605   1.029   4.741  0.7156 -0.2123 -0.0168
   19MOL   C462 9138   1.642   1.131   4.648  0.3547 -0.0145  0.3656
   19MOL   C463 9139   1.768   1.130   4.580  0.2143 -0.8668 -0.2907
   19MOL   S464 9140   1.650   0.799   4.883  0.2324 -0.4379 -0.3066
   19MOL   O465 9141   1.729   0.679   4.849 -0.3352  0.0257 -0.1088
   19MOL   O466 9142   1.503   0.796   4.892 -0.8559  0.2949  0.6347
   19MOL   C467 9143   1.699   0.859   5.039 -0.1008 -1.1699 -0.4129
   19MOL   C468 9144   1.829   0.913   5.059 -0.0791  0.1496 -0.1683
   19MOL   C469 9145   1.857   0.976   5.183  0.7537  0.0920 -0.4072
   19MOL   C470 9146   1.760   0.975   5.281  0.4595  0.4727  0.1187
   19MOL   C471 9147   1.636   0.911   5.268 -0.4944 -0.1856  0.1828
   19MOL   C472 9148   1.610   0.842   5.147  0.5228 -0.0684  0.1473
   19MOL   O473 9149   1.790   1.028   5.405  0.0265  0.1574  0.1316
   19MOL   H474 9150   1.957   1.031   4.567 -1.1288 -1.6056 -2.5737
   19MOL   H475 9151   1.898   0.854   4.734  0.2561 -0.4748 -1.0136
   19MOL   H476 9152   1.506   1.029   4.784  0.4522 -1.4102 -0.6123
   19MOL   H477 9153   1.579   1.217   4.631  0.7093  0.3748  1.0129
   19MOL   H478 9154   1.906   0.916   4.983 -0.9353  1.7493 -0.9895
   19MOL   H479 9155   1.945   1.033   5.207  0.1934  0.8330 -0.0923
   19MOL   H480 9156   1.565   0.906   5.349  1.0676  1.3314  1.6851
   19MOL   H481 9157   1.517   0.789   5.134 -0.1634  0.3404  3.1669
   19MOL   H482 9158   1.733   0.992   5.471  1.3834 -0.3377  1.0528
   20MOL     C1 9159   5.396   7.405   4.926  0.1394  0.5092 -0.5861
   20MOL     C2 9160   5.469   7.519   4.911 -1.1054  0.3641 -0.4358
   20MOL     C3 9161   5.423   7.620   4.816  0.1099 -0.1081  0.2310
   20MOL     C4 9162   5.307   7.588   4.735  0.0410  0.1602 -0.4253
   20MOL     C5 9163   5.237   7.468   4.763  0.2975 -0.0004 -0.1315
   20MOL     C6 9164   5.278   7.381   4.860  0.1407  0.4216 -0.2601
   20MOL     S7 9165   5.508   7.778   4.781 -0.0065  0.0974 -0.0940
   20MOL     O8 9166   5.496   7.803   4.637  0.2075 -0.0177 -0.3734
   20MOL     O9 9167   5.644   7.775   4.847 -0.0559  0.2109  0.0523
   20MOL    C10 9168   5.415   7.905   4.871 -0.8713 -0.3817  0.1632
   20MOL    C11 9169   5.397   7.887   5.009  0.5024 -0.0377  0.7289
   20MOL    C12 9170   5.315   7.972   5.080 -0.7221  0.0218  0.5205
   20MOL    C13 9171   5.266   8.088   5.012  0.0076 -0.3622 -0.0363
   20MOL    C14 9172   5.291   8.115   4.872  0.1286 -0.2519  0.2073
   20MOL    C15 9173   5.367   8.021   4.804  0.1311 -0.2923  0.4213
   20MOL    O16 9174   5.179   8.171   5.084 -0.2601 -0.2479  0.2692
   20MOL    H17 9175   5.421   7.343   5.010  0.2697 -0.4267 -1.3156
   20MOL    H18 9176   5.556   7.537   4.972 -1.4117  1.6272 -0.3506
   20MOL    H19 9177   5.267   7.660   4.666  0.1405  1.3665  0.7391
   20MOL    H20 9178   5.148   7.444   4.707 -0.3970  2.7236 -0.2708
   20MOL    H21 9179   5.425   7.801   5.068  1.9126  0.5378  0.9191
   20MOL    H22 9180   5.295   7.950   5.184  0.0330  0.1767  0.7058
   20MOL    H23 9181   5.240   8.194   4.820 -0.2842 -0.5449  0.1707
   20MOL    H24 9182   5.376   8.038   4.698  0.4269  1.1872  0.6740
   20MOL    H25 9183   5.224   7.288   4.873  0.8015  0.2865  1.6022
   20MOL    C26 9184   5.116   8.396   5.110  0.1963  0.1467  0.0586
   20MOL    C27 9185   5.147   0.108   5.139 -0.4572 -0.4440  0.3104
   20MOL    C28 9186   5.284   0.146   5.140  0.9136 -0.3865  0.0947
   20MOL    C29 9187   5.384   0.047   5.118 -0.0996  0.1847  0.1040
   20MOL    C30 9188   5.345   8.337   5.107  0.0756 -0.3595  0.2072
   20MOL    C31 9189   5.211   8.298   5.096 -0.1690 -0.3763  0.3567
   20MOL    S32 9190   5.327   0.319   5.161 -0.3596 -0.0370  0.1940
   20MOL    O33 9191   5.470   0.322   5.208 -0.4438 -0.1634 -0.3255
   20MOL    O34 9192   5.222   0.377   5.242  0.5464 -0.3857 -0.4339
   20MOL    C35 9193   5.317   0.401   4.997  0.2154 -0.1642  0.4882
   20MOL    C36 9194   5.277   0.341   4.874  0.3324 -0.0846 -0.3218
   20MOL    C37 9195   5.273   0.412   4.754 -0.3852 -0.0552  0.3344
   20MOL    C38 9196   5.303   0.548   4.752  0.1843 -0.5075  1.0983
   20MOL    C39 9197   5.349   0.609   4.870  0.4515  0.4181 -0.4799
   20MOL    C40 9198   5.363   0.537   4.991 -0.2392 -0.2612 -0.5893
   20MOL    O41 9199   5.293   0.626   4.643 -0.7000 -0.6540  0.2948
   20MOL    H42 9200   5.014   8.367   5.088 -0.1895  2.1536 -0.9584
   20MOL    H43 9201   5.066   0.179   5.148 -0.5608 -0.4553 -0.5270
   20MOL    H44 9202   5.485   0.083   5.132 -0.1851  0.4180  0.1257
   20MOL    H45 9203   5.423   8.262   5.100 -2.4887 -3.1577  0.4875
   20MOL    H46 9204   5.249   0.237   4.875 -0.5523  0.1604  0.7221
   20MOL    H47 9205   5.239   0.368   4.661  0.1110  1.6697 -0.6989
   20MOL    H48 9206   5.378   0.713   4.872 -1.4119  0.9498  1.1423
   20MOL    H49 9207   5.403   0.583   5.081 -1.4966  0.8398 -0.5912
   20MOL    C50 9208   5.403   0.615   4.435 -0.2363  0.0217 -0.7159
   20MOL    C51 9209   5.411   0.576   4.300  0.6401  0.0369  0.2509
   20MOL    C52 9210   5.302   0.513   4.239  0.0532  1.0061 -0.3842
   20MOL    C53 9211   5.184   0.500   4.311 -0.6531  0.7504 -0.1380
   20MOL    C54 9212   5.180   0.525   4.448 -0.0611 -0.0715 -0.8839
   20MOL    C55 9213   5.291   0.585   4.514  0.7707  0.0705  0.1794
   20MOL    S56 9214   5.321   0.474   4.061  0.4009 -0.1274  0.3628
   20MOL    O57 9215   5.219   0.374   4.025 -0.2230  0.5372 -0.0232
   20MOL    O58 9216   5.465   0.443   4.052  0.1604 -0.3427  0.3339
   20MOL    C59 9217   5.277   0.626   3.974 -0.1861 -0.4458 -0.4954
   20MOL    C60 9218   5.370   0.707   3.911  0.4672 -0.5240 -0.3444
   20MOL    C61 9219   5.331   0.831   3.853  0.7128  0.0706  0.0302
   20MOL    C62 9220   5.193   0.867   3.853  0.1932 -0.1519 -0.0798
   20MOL    C63 9221   5.098   0.779   3.918 -0.0839 -0.2834 -0.3131
   20MOL    C64 9222   5.142   0.657   3.966  0.3932  0.2234  0.2141
   20MOL    O65 9223   5.138   0.969   3.782  0.2492 -0.1686  0.2710
   20MOL    H66 9224   5.486   0.664   4.483 -1.4496 -1.0582  2.6664
   20MOL    H67 9225   5.496   0.585   4.234  0.6669 -0.3652  0.2306
   20MOL    H68 9226   5.095   0.467   4.260 -0.3486  0.4709 -0.4899
   20MOL    H69 9227   5.081   0.523   4.490 -0.9763 -0.9269 -3.0181
   20MOL    H70 9228   5.472   0.675   3.899  1.1113  1.3348 -0.0653
   20MOL    H71 9229   5.410   0.890   3.809 -0.8055  0.9605 -1.5771
   20MOL    H72 9230   4.994   0.805   3.922  0.5028  1.9184  1.1599
   20MOL    H73 9231   5.065   0.593   4.007 -0.7811  0.9592 -0.7767
   20MOL    C74 9232   5.251   1.154   3.904 -0.5597 -0.3827  1.0689
   20MOL    C75 9233   5.290   1.285   3.902 -0.6394 -0.3617 -0.1696
   20MOL    C76 9234   5.257   1.364   3.796 -0.3497 -0.2936  0.4072
   20MOL    C77 9235   5.198   1.324   3.680 -0.0007  0.3525 -0.0901
   20MOL    C78 9236   5.158   1.188   3.678  0.4073 -0.2405 -1.1073
   20MOL    C79 9237   5.191   1.102   3.791 -0.0914  0.9829  0.4427
   20MOL    S80 9238   5.326   1.531   3.793 -0.2906  0.3824  0.1633
   20MOL    O81 9239   5.347   1.563   3.652  0.7848  0.0008  0.5257
   20MOL    O82 9240   5.447   1.533   3.874  0.5672  0.2479 -0.0873
   20MOL    C83 9241   5.202   1.634   3.863  0.2284  0.5228  0.7144
   20MOL    C84 9242   5.203   1.657   4.005  0.2863 -0.0330 -0.2889
   20MOL    C85 9243   5.104   1.742   4.063 -0.4434 -0.3526 -0.0899
   20MOL    C86 9244   5.007   1.806   3.979  0.0490 -0.4658  0.4962
   20MOL    C87 9245   5.015   1.799   3.841  0.9049 -0.2152  0.3632
   20MOL    C88 9246   5.106   1.707   3.781 -0.4033 -0.3143 -0.4456
   20MOL    O89 9247   4.910   1.876   4.049 -0.3944  0.6028  0.4523
   20MOL    H90 9248   5.271   1.087   3.987 -1.2359 -0.6744  1.0014
   20MOL    H91 9249   5.333   1.341   3.984 -0.7747  1.4339 -1.3073
   20MOL    H92 9250   5.197   1.396   3.600 -2.1734  0.1857 -0.2366
   20MOL    H93 9251   5.111   1.153   3.588 -0.5427  0.2493 -0.8073
   20MOL    H94 9252   5.273   1.602   4.066  1.1467  0.6545 -0.6610
   20MOL    H95 9253   5.105   1.773   4.166 -2.1609  0.9666 -0.4376
   20MOL    H96 9254   4.959   1.860   3.771  1.2349  2.9150  2.7136
   20MOL    H97 9255   5.108   1.702   3.673 -0.1777  0.1699 -0.4656
   20MOL    C98 9256   4.698   1.849   3.951  0.5907 -0.3145  0.2929
   20MOL    C99 9257   4.579   1.904   3.897  0.0289  0.6268  0.5666
   20MOL   C100 9258   4.573   2.038   3.867  0.0843  0.0541 -0.0371
   20MOL   C101 9259   4.682   2.121   3.899  0.0037  0.2923 -0.1451
   20MOL   C102 9260   4.797   2.066   3.956 -0.4533  0.9753 -0.2281
   20MOL   C103 9261   4.804   1.929   3.982 -0.2148 -0.8390 -0.8396
   20MOL   S104 9262   4.424   2.097   3.786 -0.0764 -0.2237  0.0536
   20MOL   O105 9263   4.370   1.981   3.711 -0.1456  0.4085 -0.2840
   20MOL   O106 9264   4.466   2.212   3.699 -0.5157 -0.3059  0.4653
   20MOL   C107 9265   4.298   2.148   3.899  0.0418  0.6138 -0.0377
   20MOL   C108 9266   4.296   2.089   4.025  0.4420  0.0939  0.1558
   20MOL   C109 9267   4.184   2.110   4.105  0.3400 -0.7412 -0.1286
   20MOL   C110 9268   4.077   2.197   4.062 -0.2378 -0.2785  0.2082
   20MOL   C111 9269   4.082   2.249   3.932 -0.5760  0.4307 -0.6036
   20MOL   C112 9270   4.193   2.225   3.846 -0.1870 -0.3240 -0.1671
   20MOL   O113 9271   3.963   2.212   4.135  0.0328  0.2763 -0.7613
   20MOL   H114 9272   4.703   1.741   3.964 -2.4607 -0.7406 -1.5850
   20MOL   H115 9273   4.499   1.836   3.872  0.3553  0.0848  0.9498
   20MOL   H116 9274   4.664   2.225   3.874  1.0005  0.0652 -1.9313
   20MOL   H117 9275   4.884   2.127   3.977 -0.5576  1.4541 -1.1594
   20MOL   H118 9276   4.379   2.035   4.070 -0.8900 -1.2426  1.0426
   20MOL   H119 9277   4.174   2.070   4.205  3.3678  0.2529  0.6118
   20MOL   H120 9278   3.999   2.308   3.896 -0.5399 -0.8426 -2.8505
   20MOL   H121 9279   4.186   2.255   3.742 -0.7753 -0.5006 -0.1778
   20MOL   C122 9280   3.858   2.424   4.100 -0.7145 -0.9421  0.0728
   20MOL   C123 9281   3.820   2.550   4.153 -0.5380  0.9193  0.1909
   20MOL   C124 9282   3.839   2.586   4.293 -0.1383  0.3580  0.0484
   20MOL   C125 9283   3.906   2.488   4.373 -0.1132 -0.5174 -0.4406
   20MOL   C126 9284   3.956   2.364   4.315  0.4824 -0.5309 -0.0235
   20MOL   C127 9285   3.927   2.335   4.178 -0.0604 -0.5488 -0.0144
   20MOL   S128 9286   3.788   2.744   4.358  0.0467  0.3890 -0.6729
   20MOL   O129 9287   3.642   2.762   4.326 -0.3704  0.4074  0.0303
   20MOL   O130 9288   3.881   2.846   4.308  0.5018 -0.3238 -0.2833
   20MOL   C131 9289   3.801   2.732   4.534  0.0688 -0.7370 -0.2826
   20MOL   C132 9290   3.688   2.715   4.612  0.5519  0.4957 -0.2678
   20MOL   C133 9291   3.702   2.691   4.756  0.5974 -0.9030 -0.1332
   20MOL   C134 9292   3.833   2.697   4.808  0.1582 -0.0434 -0.2624
   20MOL   C135 9293   3.945   2.717   4.727 -0.1679 -0.4436  0.6849
   20MOL   C136 9294   3.932   2.732   4.589 -0.4195 -0.0645  0.9636
   20MOL   O137 9295   3.858   2.672   4.940 -0.5546 -0.6265 -0.2948
   20MOL   H138 9296   3.836   2.391   4.000  1.3082  2.5324 -1.6229
   20MOL   H139 9297   3.768   2.620   4.089  0.2539  1.1329 -0.2209
   20MOL   H140 9298   3.924   2.509   4.477 -0.6161  0.5590 -0.5558
   20MOL   H141 9299   4.011   2.300   4.382  1.1303  0.3498  0.3036
   20MOL   H142 9300   3.586   2.707   4.577 -0.4790 -0.4965  2.7318
   20MOL   H143 9301   3.614   2.667   4.813  0.9398  0.9702  1.2384
   20MOL   H144 9302   4.043   2.706   4.771  1.8870 -2.9866 -4.1389
   20MOL   H145 9303   4.023   2.742   4.532 -1.0177  0.5576  0.1087
   20MOL   C146 9304   3.962   2.443   4.938 -0.1012  0.1451  0.1199
   20MOL   C147 9305   4.060   2.359   4.994 -0.3610  0.0188 -0.2689
   20MOL   C148 9306   4.156   2.412   5.085  0.6995 -0.1934 -0.2541
   20MOL   C149 9307   4.158   2.553   5.112  0.0942  0.1898  0.0183
   20MOL   C150 9308   4.061   2.635   5.058 -0.5180 -0.6199  0.1162
   20MOL   C151 9309   3.957   2.583   4.977  0.1040  0.1029 -0.6289
   20MOL   S152 9310   4.261   2.304   5.171 -0.4649 -0.2306 -0.2768
   20MOL   O153 9311   4.174   2.193   5.214 -0.2284  0.4538 -0.1988
   20MOL   O154 9312   4.333   2.389   5.270  0.1195  0.2413 -0.0853
   20MOL   C155 9313   4.379   2.244   5.050  0.0713 -0.1519  0.8072
   20MOL   C156 9314   4.392   2.297   4.916  0.6280 -0.6235 -0.4458
   20MOL   C157 9315   4.499   2.249   4.835 -1.2034 -0.4258 -0.1132
   20MOL   C158 9316   4.587   2.153   4.888 -0.8661 -0.0387  0.1656
   20MOL   C159 9317   4.565   2.087   5.009 -0.9024 -0.7486  0.1169
   20MOL   C160 9318   4.466   2.140   5.092 -0.6732  0.1082  0.5965
   20MOL   O161 9319   4.687   2.114   4.812 -0.4505  0.2377 -0.4885
   20MOL   H162 9320   3.887   2.399   4.875  0.2376  1.3145 -1.1314
   20MOL   H163 9321   4.061   2.254   4.971  2.7561 -0.8578  3.2582
   20MOL   H164 9322   4.239   2.588   5.173  0.0618  1.2296 -0.5042
   20MOL   H165 9323   4.066   2.738   5.091 -0.2064 -0.9040  0.9681
   20MOL   H166 9324   4.327   2.377   4.883  1.2779 -0.1564 -0.6196
   20MOL   H167 9325   4.514   2.307   4.746  2.4425  0.5705  1.1026
   20MOL   H168 9326   4.630   2.008   5.044  1.4247  1.3182  0.5883
   20MOL   H169 9327   4.446   2.103   5.191 -0.3704  1.4227  1.1582
   20MOL   C170 9328   4.845   2.271   4.725  0.3050  0.1153  0.5747
   20MOL   C171 9329   4.966   2.339   4.726  0.2575  0.2421 -0.5642
   20MOL   C172 9330   5.051   2.320   4.837 -0.0953  0.6702  0.1523
   20MOL   C173 9331   5.017   2.224   4.938 -0.5581 -0.2366  0.9786
   20MOL   C174 9332   4.893   2.163   4.936 -0.2456 -0.1745  0.4015
   20MOL   C175 9333   4.806   2.179   4.828 -0.1649 -0.3762 -0.2850
   20MOL   S176 9334   5.214   2.399   4.841  0.0050  0.3150  0.0798
   20MOL   O177 9335   5.242   2.439   4.979 -0.5603  0.1180 -0.4283
   20MOL   O178 9336   5.210   2.507   4.739  0.0449 -0.2363  0.2835
   20MOL   C179 9337   5.332   2.271   4.803  0.1660 -0.3672 -0.2296
   20MOL   C180 9338   5.412   2.278   4.686 -0.0695  1.1351  0.0209
   20MOL   C181 9339   5.499   2.172   4.652  0.2353  0.6443 -0.3012
   20MOL   C182 9340   5.519   2.063   4.741  0.3290 -0.2377  0.1148
   20MOL   C183 9341   5.444   2.070   4.863  0.3311 -0.3681 -0.7643
   20MOL   C184 9342   5.353   2.177   4.896 -0.6794  0.2948  0.3769
   20MOL   O185 9343   5.617   1.967   4.712  0.5276 -0.4061 -0.0178
   20MOL   H186 9344   4.781   2.294   4.641  2.6053  0.0957 -1.2436
   20MOL   H187 9345   4.982   2.411   4.647  0.9633 -0.1908 -0.8276
   20MOL   H188 9346   5.081   2.207   5.023  0.5120 -0.9840  0.0331
   20MOL   H189 9347   4.868   2.094   5.015 -0.2011 -0.6745 -0.0213
   20MOL   H190 9348   5.400   2.366   4.625  0.7204 -0.3963 -2.4476
   20MOL   H191 9349   5.556   2.183   4.561  0.0276  0.3827 -0.4638
   20MOL   H192 9350   5.443   1.995   4.941  1.7446 -1.2632 -1.5828
   20MOL   H193 9351   5.309   2.198   4.992 -1.7480  2.0720 -0.4817
   20MOL   C194 9352   5.608   1.721   4.678  0.4916 -0.1830  0.1455
   20MOL   C195 9353   5.542   1.612   4.613 -0.3352 -0.2868 -0.8507
   20MOL   C196 9354   5.458   1.635   4.505 -0.0519  0.5155  0.3785
   20MOL   C197 9355   5.437   1.769   4.463  0.5173  0.1149 -0.2772
   20MOL   C198 9356   5.492   1.878   4.535 -0.8595 -0.1695  0.1056
   20MOL   C199 9357   5.570   1.857   4.646 -0.3155 -0.4745  0.3808
   20MOL   S200 9358   5.370   1.502   4.427 -0.1823 -0.1973 -0.2667
   20MOL   O201 9359   5.261   1.564   4.355 -0.1745  0.6371  0.6519
   20MOL   O202 9360   5.346   1.401   4.538  0.3681  0.1360 -0.0044
   20MOL   C203 9361   5.494   1.443   4.308 -0.7790 -0.4020  0.8061
   20MOL   C204 9362   5.534   1.534   4.204 -0.2816  0.3340  0.0750
   20MOL   C205 9363   5.622   1.485   4.099 -0.0276 -0.3295 -0.3676
   20MOL   C206 9364   5.666   1.353   4.104 -0.2883 -0.6292 -0.5227
   20MOL   C207 9365   5.618   1.263   4.206  0.3748 -0.1474 -0.2102
   20MOL   C208 9366   5.538   1.310   4.312  0.1929  1.3680 -0.0868
   20MOL   O209 9367   5.767   1.306   4.018 -0.3725 -0.4355  0.1527
   20MOL   H210 9368   5.671   1.708   4.765  0.8214  1.3557  0.1397
   20MOL   H211 9369   5.563   1.508   4.632  0.8222 -0.3504 -2.3327
   20MOL   H212 9370   5.374   1.788   4.378 -0.0952 -2.2587 -0.3673
   20MOL   H213 9371   5.469   1.974   4.491  0.2727  0.1057  0.0918
   20MOL   H214 9372   5.502   1.637   4.197 -0.1482  0.5246  2.0043
   20MOL   H215 9373   5.649   1.550   4.017  3.1949  0.9299  1.6089
   20MOL   H216 9374   5.644   1.159   4.195  0.1484 -0.3631  1.3163
   20MOL   H217 9375   5.497   1.237   4.380 -0.6985  1.6730 -0.2853
   20MOL   C218 9376   5.686   1.260   3.801  0.1667  0.5731 -0.0505
   20MOL   C219 9377   5.692   1.295   3.670 -0.3356 -0.4788  0.0289
   20MOL   C220 9378   5.783   1.389   3.616 -0.3860  0.0147  0.7669
   20MOL   C221 9379   5.873   1.455   3.695  0.1825  0.1168  0.7097
   20MOL   C222 9380   5.867   1.427   3.839  0.0350 -0.3358  0.7411
   20MOL   C223 9381   5.769   1.336   3.888  0.7305 -0.3373 -0.0122
   20MOL   S224 9382   5.787   1.418   3.441  0.0473  0.1100  0.1756
   20MOL   O225 9383   5.696   1.317   3.374 -0.0876 -0.1220  0.3179
   20MOL   O226 9384   5.929   1.423   3.399 -0.2774 -0.1237 -0.6085
   20MOL   C227 9385   5.719   1.582   3.400  0.2665 -0.3870 -0.5498
   20MOL   C228 9386   5.804   1.681   3.352  0.1129  0.6031 -0.4594
   20MOL   C229 9387   5.755   1.809   3.325  0.0738 -0.0586  0.0280
   20MOL   C230 9388   5.616   1.833   3.355  0.0858 -0.5247  0.2508
   20MOL   C231 9389   5.529   1.734   3.404  0.2385 -0.3617 -0.3671
   20MOL   C232 9390   5.582   1.610   3.429 -0.6908  0.2962  0.4015
   20MOL   O233 9391   5.571   1.965   3.339 -0.3184  0.2990  0.5813
   20MOL   H234 9392   5.629   1.183   3.851  0.8310  1.5389  2.2576
   20MOL   H235 9393   5.622   1.242   3.607 -0.0465 -0.6733 -0.1303
   20MOL   H236 9394   5.946   1.520   3.649  0.4323 -1.1545 -0.7304
   20MOL   H237 9395   5.934   1.479   3.905 -2.3474  3.2462  0.4559
   20MOL   H238 9396   5.909   1.657   3.347  0.4096  1.3936  1.7017
   20MOL   H239 9397   5.819   1.883   3.279  0.2027 -1.2231 -1.7353
   20MOL   H240 9398   5.425   1.752   3.429  0.1224 -2.7004  0.9647
   20MOL   H241 9399   5.527   1.533   3.480  0.6147 -1.1526 -0.3458
   20MOL   C242 9400   5.333   1.951   3.277 -0.8310 -0.0330 -0.4971
   20MOL   C243 9401   5.230   1.972   3.185 -0.8389  0.3666  1.1980
   20MOL   C244 9402   5.261   2.034   3.061 -0.1942  0.3785 -0.4973
   20MOL   C245 9403   5.390   2.066   3.033 -0.4205  0.2986 -0.3106
   20MOL   C246 9404   5.497   2.037   3.120  0.4730  0.0694  0.5506
   20MOL   C247 9405   5.465   1.987   3.249  0.2955 -0.0166  0.6090
   20MOL   S248 9406   5.127   2.045   2.939  0.1063  0.1990 -0.0850
   20MOL   O249 9407   5.098   1.908   2.893  0.0568  0.2569  0.1640
   20MOL   O250 9408   5.171   2.142   2.838  0.2759  0.5184 -0.3267
   20MOL   C251 9409   4.992   2.110   3.034 -0.5994  0.0789 -0.8131
   20MOL   C252 9410   4.972   2.248   3.041  0.3966 -0.0148  0.5287
   20MOL   C253 9411   4.870   2.294   3.126  0.4021 -0.2563 -0.4463
   20MOL   C254 9412   4.793   2.204   3.205 -0.3348 -0.2148  0.3959
   20MOL   C255 9413   4.807   2.068   3.189 -0.1817  0.2314  0.1675
   20MOL   C256 9414   4.904   2.019   3.102 -0.0557 -0.8538  0.3697
   20MOL   O257 9415   4.701   2.253   3.296  0.0123  0.7343  0.1845
   20MOL   H258 9416   5.288   1.908   3.365 -0.8085  1.8851  0.4843
   20MOL   H259 9417   5.133   1.934   3.211 -1.6372  1.0110 -0.7719
   20MOL   H260 9418   5.413   2.112   2.938 -0.9368 -0.0317 -0.5952
   20MOL   H261 9419   5.592   2.076   3.088 -0.3567 -0.2803 -2.5805
   20MOL   H262 9420   5.038   2.323   3.001 -0.2243  0.4380  0.3493
   20MOL   H263 9421   4.842   2.398   3.133 -2.5335 -1.0195  0.0914
   20MOL   H264 9422   4.743   1.999   3.242 -1.2278  0.3125 -0.9877
   20MOL   H265 9423   4.917   1.912   3.095  2.6798 -0.5522  0.2448
   20MOL   C266 9424   4.786   2.459   3.418 -0.1949  0.3639  0.3524
   20MOL   C267 9425   4.856   2.508   3.530 -0.5920 -0.1068 -0.7548
   20MOL   C268 9426   4.897   2.422   3.636  0.2873  0.3935 -0.4110
   20MOL   C269 9427   4.874   2.282   3.625  0.0338  0.0534 -0.0638
   20MOL   C270 9428   4.797   2.233   3.519  0.2138  0.2444 -0.1202
   20MOL   C271 9429   4.761   2.315   3.408  0.0614 -0.5193 -0.2578
   20MOL   S272 9430   4.992   2.501   3.765 -0.0835 -0.2662  0.5203
   20MOL   O273 9431   5.090   2.588   3.695  0.4234 -0.2594  0.5898
   20MOL   O274 9432   5.033   2.392   3.855  0.2859 -0.0167  0.2296
   20MOL   C275 9433   4.888   2.612   3.856  0.0642 -0.3613 -0.0725
   20MOL   C276 9434   4.912   2.754   3.848  0.0824 -0.8338  0.5631
   20MOL   C277 9435   4.838   2.846   3.930  0.2332 -0.6146  0.2153
   20MOL   C278 9436   4.743   2.793   4.017  0.2106 -0.5312  0.3406
   20MOL   C279 9437   4.708   2.654   4.024  0.6069  0.3679 -0.2402
   20MOL   C280 9438   4.789   2.565   3.941 -0.8629  0.3214 -0.0038
   20MOL   O281 9439   4.681   2.889   4.094 -0.5002 -0.5265  0.0388
   20MOL   H282 9440   4.758   2.524   3.337 -0.7684  1.7571  1.6418
   20MOL   H283 9441   4.875   2.614   3.539  1.4695 -0.5578  0.7879
   20MOL   H284 9442   4.912   2.222   3.706 -1.1870 -1.0751 -0.3088
   20MOL   H285 9443   4.768   2.130   3.508 -2.9067  1.2142 -1.4745
   20MOL   H286 9444   4.984   2.797   3.779 -1.6427  0.0777 -0.6970
   20MOL   H287 9445   4.854   2.950   3.907 -0.7900 -0.0084  2.1177
   20MOL   H288 9446   4.628   2.622   4.089 -0.3445  0.6759 -1.2383
   20MOL   H289 9447   4.781   2.459   3.959  3.7400 -0.2648 -0.7644
   20MOL   C290 9448   4.615   2.931   4.321 -0.3133  0.3458  0.0029
   20MOL   C291 9449   4.631   2.910   4.454 -0.6799  0.3634  1.0982
   20MOL   C292 9450   4.745   2.849   4.501 -1.4111 -0.1548 -0.0520
   20MOL   C293 9451   4.840   2.801   4.414  0.9434 -0.1858  0.3605
   20MOL   C294 9452   4.816   2.806   4.274 -0.4720 -0.0308  0.2990
   20MOL   C295 9453   4.704   2.878   4.229  0.2001 -0.5872  0.2320
   20MOL   S296 9454   4.773   2.833   4.681  0.4406  0.1580 -0.0776
   20MOL   O297 9455   4.782   2.691   4.714 -0.2540  0.4064 -0.0564
   20MOL   O298 9456   4.662   2.910   4.745 -0.3327 -0.5446 -0.5716
   20MOL   C299 9457   4.934   2.908   4.718 -0.6794 -0.2564  0.1444
   20MOL   C300 9458   4.933   3.043   4.764  0.2531  0.1316 -0.2926
   20MOL   C301 9459   5.054   3.106   4.806  0.2016  0.9090  0.1461
   20MOL   C302 9460   5.173   3.035   4.802  0.2548 -0.4892 -0.7185
   20MOL   C303 9461   5.177   2.904   4.754 -0.2903  0.1361 -0.5375
   20MOL   C304 9462   5.057   2.838   4.715  0.3594 -0.0788  0.1520
   20MOL   O305 9463   5.288   3.097   4.829  0.0395  0.0349  0.2103
   20MOL   H306 9464   4.531   2.989   4.285  0.2029  0.8445 -0.4173
   20MOL   H307 9465   4.559   2.968   4.509 -1.6273  0.6526 -0.4052
   20MOL   H308 9466   4.919   2.736   4.449  2.5318  1.3185 -0.3868
   20MOL   H309 9467   4.892   2.763   4.211 -1.3316  0.3068 -0.9978
   20MOL   H310 9468   4.837   3.089   4.778 -0.3918 -1.4385  0.6149
   20MOL   H311 9469   5.047   3.205   4.850 -0.1537  0.4731  1.0624
   20MOL   H312 9470   5.277   2.862   4.756 -0.6704 -0.8905 -1.9347
   20MOL   H313 9471   5.054   2.734   4.687  1.7291  0.1080 -0.7613
   20MOL   C314 9472   5.327   3.325   4.748 -0.2348 -0.0831 -0.3770
   20MOL   C315 9473   5.414   3.416   4.682  0.2151 -0.3691 -0.1176
   20MOL   C316 9474   5.501   3.361   4.579  0.4617 -0.5521 -0.4555
   20MOL   C317 9475   5.509   3.222   4.555  0.6759 -0.5574  0.3635
   20MOL   C318 9476   5.428   3.135   4.637 -0.2069  0.1927 -0.6930
   20MOL   C319 9477   5.341   3.187   4.732  0.7964 -0.4465 -0.0109
   20MOL   S320 9478   5.608   3.475   4.483  0.0133  0.2421  0.1876
   20MOL   O321 9479   5.558   3.612   4.509  0.5306  0.1294  0.0183
   20MOL   O322 9480   5.618   3.422   4.345  0.2585 -0.3204  0.7237
   20MOL   C323 9481   5.766   3.467   4.562  0.2552  0.5510 -0.9650
   20MOL   C324 9482   5.860   3.557   4.507 -0.9742  0.5798  0.4817
   20MOL   C325 9483   5.985   3.572   4.568 -0.5137  0.4033 -0.3446
   20MOL   C326 9484   6.020   3.490   4.677 -0.0149  0.0862  0.0602
   20MOL   C327 9485   5.925   3.395   4.733 -0.4599 -0.2534  0.1700
   20MOL   C328 9486   5.793   3.385   4.670 -0.4961 -0.4003  0.1855
   20MOL   O329 9487   6.149   3.504   4.724 -0.3684  0.0315  0.2779
   20MOL   H330 9488   5.258   3.371   4.816  1.0269  1.4862 -0.1434
   20MOL   H331 9489   5.405   3.524   4.688  0.2109 -0.3250 -0.8198
   20MOL   H332 9490   5.589   3.185   4.493 -0.1386 -0.8296 -0.5305
   20MOL   H333 9491   5.447   3.028   4.639 -0.8198 -0.0397 -4.3607
   20MOL   H334 9492   5.829   3.605   4.415  1.0155  1.0221  0.0284
   20MOL   H335 9493   6.061   3.639   4.529 -0.4316 -0.0989 -1.0537
   20MOL   H336 9494   5.955   3.325   4.809 -1.8772  0.9272  1.8476
   20MOL   H337 9495   5.721   3.318   4.714 -0.0407  0.0139  1.6168
   20MOL   C338 9496   6.227   3.324   4.850  0.4392  0.6295  0.0365
   20MOL   C339 9497   6.254   3.261   4.975 -0.3006 -0.4167 -0.0278
   20MOL   C340 9498   6.247   3.326   5.096 -0.2492 -0.2010 -0.4403
   20MOL   C341 9499   6.190   3.455   5.093  0.1034 -0.3096 -0.2085
   20MOL   C342 9500   6.155   3.523   4.970  0.3865  0.4377 -0.7292
   20MOL   C343 9501   6.187   3.456   4.847  0.1811 -0.0204  0.1014
   20MOL   S344 9502   6.292   3.257   5.259 -0.5863  0.0566 -0.3707
   20MOL   O345 9503   6.331   3.377   5.340  0.2956  0.0988 -0.2972
   20MOL   O346 9504   6.385   3.144   5.242  0.1107 -0.0528 -0.0758
   20MOL   C347 9505   6.133   3.200   5.306 -0.1489 -0.0954  0.6924
   20MOL   C348 9506   6.082   3.077   5.252 -0.0040  0.5705 -0.0441
   20MOL   C349 9507   5.958   3.013   5.298  0.4171 -0.3661 -0.1069
   20MOL   C350 9508   5.894   3.081   5.405  0.1686 -0.2190 -0.1548
   20MOL   C351 9509   5.937   3.202   5.452 -0.3731 -0.4369 -0.0969
   20MOL   C352 9510   6.053   3.268   5.401  0.1592 -0.4242  0.5015
   20MOL   O353 9511   5.773   3.036   5.444  1.0517 -0.2416 -0.4665
   20MOL   H354 9512   6.232   3.266   4.759  2.3734 -1.3291  1.3616
   20MOL   H355 9513   6.296   3.162   4.976  0.3836 -0.1555 -1.4256
   20MOL   H356 9514   6.167   3.501   5.188 -1.4715 -0.9929 -0.2281
   20MOL   H357 9515   6.108   3.620   4.968  1.5136  0.9932 -0.7125
   20MOL   H358 9516   6.148   3.029   5.182 -1.2159 -2.1451  0.6262
   20MOL   H359 9517   5.923   2.918   5.259  1.5437  0.0333 -2.1471
   20MOL   H360 9518   5.878   3.256   5.525 -1.7355  0.1937 -1.6486
   20MOL   H361 9519   6.095   3.356   5.448 -0.8288  0.9100 -1.0674
   20MOL   C362 9520   5.837   2.926   5.652  0.0916 -0.1399  0.2506
   20MOL   C363 9521   5.820   2.892   5.782  0.3052 -0.1687  0.1118
   20MOL   C364 9522   5.715   2.959   5.848  0.4065 -0.8097 -0.0249
   20MOL   C365 9523   5.622   3.048   5.777 -0.3111 -0.1983  0.3758
   20MOL   C366 9524   5.642   3.069   5.639 -0.0235  0.1198 -0.6797
   20MOL   C367 9525   5.751   3.007   5.577 -0.6304 -0.1077 -0.8016
   20MOL   S368 9526   5.689   2.932   6.024  0.4855  0.1798 -0.0310
   20MOL   O369 9527   5.710   3.054   6.096 -0.9129 -0.3091 -0.1326
   20MOL   O370 9528   5.748   2.806   6.067  0.0792 -0.4713 -0.3086
   20MOL   C371 9529   5.508   2.892   6.032 -0.2625  0.0407  0.4409
   20MOL   C372 9530   5.426   2.843   5.924  0.2595  0.4436 -0.3820
   20MOL   C373 9531   5.289   2.844   5.939  0.9595  0.3044  0.3746
   20MOL   C374 9532   5.231   2.884   6.065 -0.1691 -0.6134 -0.0528
   20MOL   C375 9533   5.312   2.918   6.176 -0.0461  0.3959 -0.4377
   20MOL   C376 9534   5.451   2.921   6.159  0.2188  0.2917  0.4901
   20MOL   O377 9535   5.094   2.871   6.070 -0.4714 -0.5011  0.0329
   20MOL   H378 9536   5.918   2.876   5.601 -0.0398 -1.0206  0.8829
   20MOL   H379 9537   5.889   2.830   5.839 -0.3463 -0.8825  0.1418
   20MOL   H380 9538   5.538   3.095   5.825 -1.1211 -1.3090  0.0831
   20MOL   H381 9539   5.578   3.133   5.581 -0.3338  0.3031 -0.1415
   20MOL   H382 9540   5.473   2.832   5.828  1.5775  2.7091 -0.0181
   20MOL   H383 9541   5.228   2.815   5.855  1.0413  2.3160 -0.4190
   20MOL   H384 9542   5.260   2.955   6.263  1.8738  0.3844  0.7391
   20MOL   H385 9543   5.519   2.938   6.242  0.3989 -2.0670  0.8595
   20MOL   C386 9544   5.046   3.116   6.070  0.4391 -0.0804 -0.9722
   20MOL   C387 9545   4.983   3.232   6.123  0.4993  0.2451 -0.0439
   20MOL   C388 9546   4.894   3.207   6.229  0.1497  0.1223 -0.1234
   20MOL   C389 9547   4.877   3.081   6.290  0.0148 -0.1134  0.3955
   20MOL   C390 9548   4.936   2.967   6.229 -0.1575  0.4179 -0.5298
   20MOL   C391 9549   5.021   2.983   6.116 -0.3957  0.4977 -0.1970
   20MOL   S392 9550   4.812   3.354   6.297 -0.3187 -0.3608  0.2421
   20MOL   O393 9551   4.740   3.418   6.187  0.8329  0.0298  0.4092
   20MOL   O394 9552   4.925   3.426   6.362 -0.0101 -0.4509 -0.2633
   20MOL   C395 9553   4.719   3.292   6.432  0.3733  0.6120 -0.0994
   20MOL   C396 9554   4.754   3.331   6.564 -0.0506  0.1714  0.4887
   20MOL   C397 9555   4.669   3.288   6.668 -0.4859  0.2776  0.1395
   20MOL   C398 9556   4.559   3.206   6.642  0.4234 -0.6491 -0.2526
   20MOL   C399 9557   4.515   3.180   6.508 -0.2353 -1.2086 -0.4691
   20MOL   C400 9558   4.597   3.223   6.402 -0.5033 -0.1133  0.2112
   20MOL   O401 9559   4.480   3.150   6.746 -0.3032  0.4124  0.3646
   20MOL   H402 9560   5.124   3.128   5.997  1.3824 -2.7798 -0.4815
   20MOL   H403 9561   5.002   3.329   6.080 -2.7129  1.1430  0.3705
   20MOL   H404 9562   4.824   3.069   6.383  0.0068  1.5653  0.6328
   20MOL   H405 9563   4.928   2.870   6.276  0.9705  1.0752  1.0795
   20MOL   H406 9564   4.849   3.378   6.585 -0.4939  2.1371 -1.7060
   20MOL   H407 9565   4.702   3.320   6.766 -1.8005  0.2598  0.5974
   20MOL   H408 9566   4.419   3.132   6.494 -1.7452  0.1633  4.0131
   20MOL   H409 9567   4.578   3.207   6.296  2.3635 -1.2557 -0.1579
   20MOL   C410 9568   4.291   3.304   6.725 -0.9207  0.2335 -0.1192
   20MOL   C411 9569   4.204   3.387   6.795 -0.7325 -0.3618  0.4502
   20MOL   C412 9570   4.212   3.413   6.936  0.1362 -0.6675 -0.4040
   20MOL   C413 9571   4.313   3.352   7.010  0.6341 -0.2108  0.6833
   20MOL   C414 9572   4.396   3.259   6.944 -0.0394  0.7457  0.9381
   20MOL   C415 9573   4.394   3.237   6.804 -0.2440 -0.2876  1.0570
   20MOL   S416 9574   4.091   3.518   7.024  0.1017  0.0336  0.0521
   20MOL   O417 9575   3.963   3.500   6.953  0.0090 -0.4024 -0.8883
   20MOL   O418 9576   4.145   3.652   7.027 -0.1669 -0.0509  0.1265
   20MOL   C419 9577   4.065   3.454   7.189  0.3209 -0.0246 -0.0438
   20MOL   C420 9578   4.070   3.314   7.201 -0.5513  0.1226 -0.1594
   20MOL   C421 9579   4.064   3.259   7.331 -0.4459  0.1350  0.5077
   20MOL   C422 9580   4.036   3.350   7.441  0.5756  0.3695 -0.0181
   20MOL   C423 9581   4.021   3.480   7.427  0.0743 -0.2751  0.6071
   20MOL   C424 9582   4.044   3.537   7.301 -0.3524  0.0184 -0.3166
   20MOL   O425 9583   4.031   3.292   7.570  0.3677  0.0057 -0.1737
   20MOL   H426 9584   4.284   3.297   6.617 -0.0962  2.4855 -0.3529
   20MOL   H427 9585   4.129   3.448   6.746 -0.9402 -1.3578 -0.4748
   20MOL   H428 9586   4.318   3.361   7.117 -0.8880  1.8703  0.6024
   20MOL   H429 9587   4.457   3.208   7.017  2.1916  0.7655 -0.8557
   20MOL   H430 9588   4.092   3.250   7.117  1.0488  0.3412  0.0746
   20MOL   H431 9589   4.076   3.152   7.339 -0.8820 -0.0478 -1.0374
   20MOL   H432 9590   4.002   3.542   7.513  0.4873  0.7315 -0.0110
   20MOL   H433 9591   4.042   3.644   7.284 -0.2853 -0.2689 -2.2839
   20MOL   C434 9592   4.256   3.252   7.643  0.5914 -1.1531 -0.3037
   20MOL   C435 9593   4.349   3.163   7.693 -0.1571 -0.0108 -0.0251
   20MOL   C436 9594   4.311   3.033   7.731  0.1213 -0.7689 -0.2962
   20MOL   C437 9595   4.185   2.982   7.702  0.3617  0.3276 -0.2447
   20MOL   C438 9596   4.096   3.073   7.638  0.3965 -0.2641 -0.1602
   20MOL   C439 9597   4.128   3.202   7.608 -0.6185 -0.2759  0.9413
   20MOL   S440 9598   4.428   2.933   7.811  0.4507  0.4561  0.3639
   20MOL   O441 9599   4.563   2.962   7.759 -0.1906 -0.2634  0.3289
   20MOL   O442 9600   4.381   2.794   7.808  0.4057  0.4352 -0.1208
   20MOL   C443 9601   4.414   2.997   7.976 -0.2903 -0.1997  0.5955
   20MOL   C444 9602   4.492   3.107   8.018  0.5091  0.1743  0.1084
   20MOL   C445 9603   4.470   3.154   8.151 -0.1887 -0.4650  0.2915
   20MOL   C446 9604   4.365   3.105   8.231 -0.1005 -0.4613 -0.1050
   20MOL   C447 9605   4.274   3.012   8.173  0.9089 -0.4205  0.2348
   20MOL   C448 9606   4.300   2.959   8.048  0.7406 -0.2485  0.1157
   20MOL   O449 9607   4.332   3.157   8.357  0.4214  0.3315 -0.2803
   20MOL   H450 9608   4.285   3.355   7.629 -2.8570 -0.0286  0.4007
   20MOL   H451 9609   4.447   3.199   7.719  0.5011 -2.2578  0.6778
   20MOL   H452 9610   4.148   2.890   7.743  0.0099  0.7331  0.3637
   20MOL   H453 9611   3.998   3.032   7.621 -0.4101  1.2988  0.6046
   20MOL   H454 9612   4.571   3.142   7.953 -0.8351  0.8318 -1.1939
   20MOL   H455 9613   4.538   3.224   8.199 -1.3052  1.3174 -0.6510
   20MOL   H456 9614   4.191   2.965   8.225  1.0720 -1.1889 -0.1831
   20MOL   H457 9615   4.251   2.869   8.014 -1.4298  1.0904 -0.3557
   20MOL   C458 9616   4.430   3.167   0.150  0.3554 -0.4248  0.5835
   20MOL   C459 9617   4.419   3.128   0.283 -0.7326 -0.3442 -0.3044
   20MOL   C460 9618   4.355   3.008   0.313 -0.2964  0.3964 -0.2143
   20MOL   C461 9619   4.311   2.928   0.213 -0.0324 -0.0372 -0.5661
   20MOL   C462 9620   4.311   2.971   0.079 -0.7549  0.6152 -1.3484
   20MOL   C463 9621   4.368   3.096   0.049 -0.1601 -0.3971 -0.6940
   20MOL   S464 9622   4.329   2.955   0.480  0.2640  0.3196 -0.4303
   20MOL   O465 9623   4.453   2.894   0.522 -0.1964  0.6712  0.0752
   20MOL   O466 9624   4.202   2.885   0.484 -0.0410  0.2037  0.2985
   20MOL   C467 9625   4.308   3.107   0.569  0.4379  0.4861 -0.2685
   20MOL   C468 9626   4.193   3.182   0.539  0.6536 -0.2864  0.4024
   20MOL   C469 9627   4.159   3.299   0.611  0.4986 -0.4195  0.2991
   20MOL   C470 9628   4.243   3.340   0.712 -0.1708 -1.0166 -0.0608
   20MOL   C471 9629   4.359   3.265   0.743  0.8406 -0.0637 -0.6614
   20MOL   C472 9630   4.396   3.155   0.666 -0.5286  0.2050 -0.7043
   20MOL   O473 9631   4.209   3.443   0.796 -0.6032  0.3649  0.5300
   20MOL   H474 9632   4.471   3.265   0.128 -0.9155 -0.7375 -3.6414
   20MOL   H475 9633   4.462   3.187   0.362 -0.9070  0.2702 -0.6647
   20MOL   H476 9634   4.256   2.838   0.236 -0.3832  0.3368  0.0624
   20MOL   H477 9635   4.257   2.916   0.004 -1.1264 -0.8111 -0.0565
   20MOL   H478 9636   4.114   3.147   0.473  1.5436 -1.9734  0.2198
   20MOL   H479 9637   4.061   3.339   0.590 -0.2905 -2.3523  0.1595
   20MOL   H480 9638   4.429   3.305   0.814  1.6020 -1.0120 -0.8700
   20MOL   H481 9639   4.487   3.104   0.693 -0.0993  0.5342 -1.4955
   20MOL   H482 9640   4.131   3.495   0.784 -1.5537 -0.6246  2.2357
   21MOL     C1 9641   8.378   5.760   3.313 -0.2806  0.0743 -0.1842
   21MOL     C2 9642   8.277   5.843   3.274  0.3664  0.6497 -0.0889
   21MOL     C3 9643   8.144   5.790   3.293  0.1534  0.5758 -0.5443
   21MOL     C4 9644   8.129   5.661   3.352 -0.2465 -0.3732  0.1713
   21MOL     C5 9645   8.241   5.582   3.387 -0.1944 -0.3207 -0.2035
   21MOL     C6 9646   8.364   5.633   3.365  0.4473 -0.8125  0.0165
   21MOL     S7 9647   7.996   5.890   3.271 -0.2475 -0.4904 -0.1316
   21MOL     O8 9648   8.011   5.988   3.382  0.2699 -0.1110 -0.0027
   21MOL     O9 9649   7.869   5.815   3.262 -0.1737  0.2445  0.2069
   21MOL    C10 9650   8.011   5.987   3.117 -0.4417  0.2684  0.1105
   21MOL    C11 9651   7.946   6.112   3.108 -0.5885  0.3887 -0.1564
   21MOL    C12 9652   7.944   6.189   2.988 -0.5371  0.8208 -0.0308
   21MOL    C13 9653   8.004   6.135   2.875 -0.7417  0.5029  0.4436
   21MOL    C14 9654   8.077   6.012   2.883 -0.0993 -0.4392 -0.2353
   21MOL    C15 9655   8.076   5.937   3.008  0.1707 -0.6151  0.2746
   21MOL    O16 9656   8.008   6.204   2.758 -0.0170 -0.1069 -0.0174
   21MOL    H17 9657   0.056   5.794   3.314 -0.1401 -0.2818  3.0855
   21MOL    H18 9658   8.299   5.944   3.244  1.5002 -0.1625 -2.0759
   21MOL    H19 9659   8.027   5.628   3.357 -0.6455  0.9772  1.3135
   21MOL    H20 9660   8.233   5.488   3.439  0.5177 -0.4430 -0.3118
   21MOL    H21 9661   7.892   6.154   3.191  1.9520  3.0926  0.2073
   21MOL    H22 9662   7.890   6.282   2.982  0.6747  1.6118  1.0211
   21MOL    H23 9663   8.121   5.963   2.797  2.2471 -0.7796  1.1412
   21MOL    H24 9664   8.103   5.832   3.015  0.2157 -0.8503 -2.9828
   21MOL    H25 9665   0.032   5.580   3.382  1.1633 -0.8728 -3.5974
   21MOL    C26 9666   8.149   6.389   2.820 -0.0712 -0.1270 -0.0305
   21MOL    C27 9667   8.249   6.483   2.791  0.3571  0.4154 -0.9527
   21MOL    C28 9668   8.313   6.471   2.668  0.0592  0.5290  0.6301
   21MOL    C29 9669   8.287   6.359   2.583 -0.0399 -0.2267 -0.0459
   21MOL    C30 9670   8.193   6.263   2.616  0.2262  0.0133 -0.3206
   21MOL    C31 9671   8.115   6.284   2.730  0.1467  0.1008  0.4580
   21MOL    S32 9672   8.423   6.601   2.626 -0.1963 -0.3305  0.0376
   21MOL    O33 9673   0.059   6.654   2.748 -0.4550 -0.6497 -0.0445
   21MOL    O34 9674   8.352   6.695   2.539  0.1299 -0.2111 -0.3390
   21MOL    C35 9675   0.131   6.524   2.528  0.9519  0.0519  0.4457
   21MOL    C36 9676   0.249   6.485   2.590 -0.0879 -0.5548  0.0078
   21MOL    C37 9677   0.344   6.414   2.515  0.2605 -0.1707 -0.3551
   21MOL    C38 9678   0.324   6.405   2.371 -0.6603 -1.0270 -0.3099
   21MOL    C39 9679   0.210   6.465   2.312 -1.1497  1.0617 -0.5262
   21MOL    C40 9680   0.112   6.515   2.390  0.3741 -0.2338  0.0831
   21MOL    O41 9681   0.426   6.342   2.304 -0.4048 -0.2521  0.0784
   21MOL    H42 9682   8.077   6.400   2.900 -0.2212 -0.4804 -0.1130
   21MOL    H43 9683   8.255   6.566   2.859 -0.8285 -0.2139 -0.0582
   21MOL    H44 9684   8.337   6.355   2.487 -0.7814  0.1256 -0.4535
   21MOL    H45 9685   8.180   6.177   2.552 -2.2544 -0.4819  0.7832
   21MOL    H46 9686   0.250   6.486   2.698  2.2924 -0.6528  0.0130
   21MOL    H47 9687   0.420   6.360   2.570  0.5213  0.5332 -0.0257
   21MOL    H48 9688   0.206   6.475   2.205  1.2090 -1.6411 -0.9184
   21MOL    H49 9689   0.024   6.565   2.351  0.2164 -0.4156  0.2093
   21MOL    C50 9690   0.284   6.161   2.214  1.0689  0.2521 -0.1636
   21MOL    C51 9691   0.262   6.051   2.129  0.1439  0.1452 -0.1435
   21MOL    C52 9692   0.354   6.028   2.033  0.0124 -0.3741  0.1486
   21MOL    C53 9693   0.467   6.108   2.019 -1.0577 -0.0016 -0.4729
   21MOL    C54 9694   0.491   6.213   2.112  0.4667  0.0601  0.3061
   21MOL    C55 9695   0.398   6.241   2.212  0.3598  0.4759  0.0380
   21MOL    S56 9696   0.341   5.894   1.924 -0.1231  0.2227  0.0997
   21MOL    O57 9697   0.431   5.918   1.810 -0.2439  0.0113  0.3630
   21MOL    O58 9698   0.202   5.869   1.885 -0.0225  0.1995  0.5320
   21MOL    C59 9699   0.407   5.756   2.011  0.1905 -0.4061 -0.6997
   21MOL    C60 9700   0.327   5.647   2.032  0.1881 -0.3429 -0.2676
   21MOL    C61 9701   0.380   5.538   2.101 -0.4941 -0.6783  0.0793
   21MOL    C62 9702   0.512   5.537   2.161  0.5188  0.1272 -0.1856
   21MOL    C63 9703   0.594   5.650   2.140  0.2662 -0.3412 -0.6608
   21MOL    C64 9704   0.541   5.759   2.066 -0.7256 -0.2077 -0.2371
   21MOL    O65 9705   0.554   5.426   2.232 -0.3036  0.4773 -0.6713
   21MOL    H66 9706   0.210   6.188   2.289  0.9281 -0.1023 -0.1748
   21MOL    H67 9707   0.169   5.998   2.145  1.4533 -1.5922  1.8738
   21MOL    H68 9708   0.537   6.084   1.941 -0.2963  0.9380 -0.0912
   21MOL    H69 9709   0.579   6.275   2.100  1.5978 -1.4120  0.8942
   21MOL    H70 9710   0.224   5.641   2.002  0.6187  0.3744 -1.9775
   21MOL    H71 9711   0.320   5.448   2.101  0.8821 -1.6388  1.3221
   21MOL    H72 9712   0.693   5.663   2.180  1.0148 -1.2196 -2.1765
   21MOL    H73 9713   0.601   5.848   2.052 -1.0693  0.4073  1.9942
   21MOL    C74 9714   0.776   5.332   2.245 -0.2400  0.5594 -0.4519
   21MOL    C75 9715   0.902   5.321   2.308 -0.4653 -0.0249  0.2124
   21MOL    C76 9716   0.935   5.410   2.412 -0.1823 -0.1252 -0.5609
   21MOL    C77 9717   0.839   5.501   2.459 -0.2474  0.0860 -0.2808
   21MOL    C78 9718   0.707   5.507   2.397  0.0618  0.0676  0.6201
   21MOL    C79 9719   0.676   5.423   2.290  0.3732 -0.4968 -0.7137
   21MOL    S80 9720   1.097   5.399   2.486 -0.0333  0.0846 -0.1868
   21MOL    O81 9721   1.190   5.315   2.404  1.1214 -0.2483  0.1794
   21MOL    O82 9722   1.086   5.368   2.630 -0.2017  0.1155 -0.4921
   21MOL    C83 9723   1.168   5.564   2.480 -0.7604 -0.3623  0.4237
   21MOL    C84 9724   1.267   5.586   2.575  0.4272 -0.7299  0.3885
   21MOL    C85 9725   1.358   5.690   2.557  0.1063 -0.1255  0.9063
   21MOL    C86 9726   1.357   5.765   2.442  0.3992  0.1714  0.2370
   21MOL    C87 9727   1.275   5.730   2.339 -0.5702  1.0164 -0.1642
   21MOL    C88 9728   1.179   5.628   2.357  0.3162  0.0497 -0.7185
   21MOL    O89 9729   1.447   5.869   2.423 -0.3871 -0.0318  0.1124
   21MOL    H90 9730   0.751   5.256   2.173  0.7876  0.2058 -0.4368
   21MOL    H91 9731   0.966   5.245   2.265 -1.9360 -1.0685 -0.1877
   21MOL    H92 9732   0.872   5.565   2.540  0.3180 -1.3658  0.6609
   21MOL    H93 9733   0.632   5.573   2.438  0.5396  0.9585  0.0768
   21MOL    H94 9734   1.283   5.523   2.661 -3.4664 -1.2453  0.8106
   21MOL    H95 9735   1.427   5.716   2.636 -0.0792  1.3333  0.6085
   21MOL    H96 9736   1.272   5.795   2.253 -0.7310  0.7595 -0.3537
   21MOL    H97 9737   1.117   5.595   2.275  1.9573 -1.3223 -1.4304
   21MOL    C98 9738   1.425   6.101   2.369  0.9573  0.3894 -0.4642
   21MOL    C99 9739   1.392   6.228   2.408  0.1030 -0.3511 -0.1496
   21MOL   C100 9740   1.390   6.260   2.547  0.1501 -0.5784  0.2056
   21MOL   C101 9741   1.412   6.160   2.639 -0.3939  0.4705 -0.4479
   21MOL   C102 9742   1.422   6.027   2.601 -0.4694  0.0319  0.6835
   21MOL   C103 9743   1.426   5.998   2.463 -0.4415 -0.7933  0.2592
   21MOL   S104 9744   1.383   6.432   2.610  0.2385  0.0519 -0.1283
   21MOL   O105 9745   1.522   6.461   2.623  0.1262  0.1886 -0.0555
   21MOL   O106 9746   1.299   6.432   2.729  0.0880  0.2799  0.1513
   21MOL   C107 9747   1.315   6.535   2.472 -0.6684 -0.2570 -0.2708
   21MOL   C108 9748   1.180   6.558   2.464  0.0610  0.0838 -0.9358
   21MOL   C109 9749   1.127   6.629   2.357 -0.3363  0.2444  0.1920
   21MOL   C110 9750   1.219   6.674   2.254  0.0568  0.3884 -0.2726
   21MOL   C111 9751   1.356   6.651   2.265  0.1694 -0.1657  0.1299
   21MOL   C112 9752   1.404   6.576   2.375  0.9566  0.5064  0.0088
   21MOL   O113 9753   1.164   6.752   2.159  0.1740  0.4275  0.4576
   21MOL   H114 9754   1.423   6.076   2.263 -0.0674  2.2427 -0.9025
   21MOL   H115 9755   1.398   6.299   2.327 -0.9562 -0.2512 -0.1551
   21MOL   H116 9756   1.415   6.173   2.746 -0.8870 -2.2217 -0.0803
   21MOL   H117 9757   1.434   5.948   2.673 -4.5612  0.7335  2.2801
   21MOL   H118 9758   1.111   6.518   2.537  1.0387  1.1345  0.6043
   21MOL   H119 9759   1.023   6.650   2.337 -0.4668  0.0393  0.6314
   21MOL   H120 9760   1.418   6.682   2.182  0.3435  0.1139  0.3653
   21MOL   H121 9761   1.509   6.552   2.381  0.3122 -2.5745 -0.4081
   21MOL   C122 9762   1.189   6.579   1.981 -0.0650 -0.0607 -0.0932
   21MOL   C123 9763   1.146   6.524   1.860  0.1347 -0.5213 -0.3107
   21MOL   C124 9764   1.040   6.584   1.788  0.5789 -0.0155  0.4389
   21MOL   C125 9765   0.977   6.695   1.839  0.0314  0.0857  0.0199
   21MOL   C126 9766   1.021   6.753   1.961 -0.3255  0.0126  0.5151
   21MOL   C127 9767   1.124   6.690   2.037  1.2688 -0.4166 -0.0858
   21MOL   S128 9768   1.000   6.516   1.630  0.8648 -0.3638  0.1380
   21MOL   O129 9769   1.100   6.411   1.606  0.0490  0.1901 -0.1348
   21MOL   O130 9770   0.991   6.632   1.540  0.4661 -0.2450 -0.2322
   21MOL   C131 9771   0.842   6.437   1.640  0.2476  0.5219  0.3837
   21MOL   C132 9772   0.779   6.417   1.766 -0.0117 -0.3770  0.1119
   21MOL   C133 9773   0.655   6.352   1.779 -0.1535 -0.3463 -0.3269
   21MOL   C134 9774   0.576   6.326   1.668 -0.6306  0.1802 -0.3980
   21MOL   C135 9775   0.630   6.363   1.543 -0.2475 -0.7661 -0.3699
   21MOL   C136 9776   0.760   6.411   1.526  1.0495 -0.0197 -0.2010
   21MOL   O137 9777   0.447   6.274   1.677  0.5211  0.2826 -0.7253
   21MOL   H138 9778   1.284   6.550   2.024 -1.2345 -0.0052  2.6030
   21MOL   H139 9779   1.194   6.435   1.824  0.8138  0.1268 -1.0072
   21MOL   H140 9780   0.905   6.739   1.772  0.2013  1.3437  0.6570
   21MOL   H141 9781   0.974   6.842   1.999 -2.0263  0.0136 -1.5432
   21MOL   H142 9782   0.833   6.440   1.857 -0.3404 -0.4049  0.3134
   21MOL   H143 9783   0.610   6.328   1.874 -0.8024  1.2399 -0.2153
   21MOL   H144 9784   0.569   6.345   1.456  0.3082  0.3459 -0.9963
   21MOL   H145 9785   0.788   6.431   1.423 -0.5393 -1.7255 -1.0012
   21MOL   C146 9786   0.317   6.478   1.681 -0.0478 -0.4317  0.0359
   21MOL   C147 9787   0.221   6.561   1.615 -0.6124  0.0570  0.1726
   21MOL   C148 9788   0.168   6.524   1.489  0.6026  0.5743  0.1922
   21MOL   C149 9789   0.196   6.394   1.436 -0.4445  0.3532  0.1580
   21MOL   C150 9790   0.280   6.308   1.508  0.4019 -0.2930 -0.2197
   21MOL   C151 9791   0.349   6.353   1.622 -0.2281  1.3207  0.3747
   21MOL   S152 9792   0.050   6.628   1.399 -0.5135  0.0677  0.2192
   21MOL   O153 9793   0.057   6.587   1.253  1.0804  0.4255  0.5207
   21MOL   O154 9794   0.056   6.771   1.439 -0.4024 -0.1086  0.3783
   21MOL   C155 9795   8.319   6.573   1.442  0.5443  0.3471 -0.6083
   21MOL   C156 9796   8.264   6.613   1.566  0.4667  0.1601 -0.5526
   21MOL   C157 9797   8.131   6.585   1.597  0.5312 -0.5658 -0.0931
   21MOL   C158 9798   8.048   6.521   1.506  0.4727  0.8047  0.0968
   21MOL   C159 9799   8.099   6.498   1.374  0.1194 -0.0580  0.4401
   21MOL   C160 9800   8.228   6.534   1.340  0.8513  0.0462 -0.3756
   21MOL   O161 9801   7.916   6.509   1.525 -0.2473  0.4310  0.3995
   21MOL   H162 9802   0.358   6.513   1.775  0.2570 -1.6390  0.3638
   21MOL   H163 9803   0.204   6.662   1.647  1.0856 -0.1658  1.8725
   21MOL   H164 9804   0.150   6.364   1.343 -1.5770  0.0801  0.7924
   21MOL   H165 9805   0.305   6.211   1.468  1.8826 -0.5337  1.2608
   21MOL   H166 9806   8.331   6.653   1.641  2.1480  0.5688 -2.2437
   21MOL   H167 9807   8.091   6.612   1.694  0.5860 -0.1183 -0.1975
   21MOL   H168 9808   8.027   6.463   1.302 -1.1737 -1.7772  2.4994
   21MOL   H169 9809   8.263   6.513   1.240 -3.3708 -3.6588 -1.2393
   21MOL   C170 9810   7.910   6.402   1.747  0.0058  0.4896  0.3753
   21MOL   C171 9811   7.875   6.410   1.880 -0.3222 -0.5160  0.1919
   21MOL   C172 9812   7.790   6.515   1.925  0.2265  0.3070 -0.1515
   21MOL   C173 9813   7.752   6.615   1.830  0.5641 -0.3088 -0.1256
   21MOL   C174 9814   7.799   6.611   1.700 -0.5470 -0.1940 -0.1367
   21MOL   C175 9815   7.875   6.503   1.655  0.5459 -0.2770  0.5710
   21MOL   S176 9816   7.714   6.507   2.087  0.2243 -0.3146  0.3131
   21MOL   O177 9817   7.634   6.628   2.099  0.2790 -0.0042  0.3258
   21MOL   O178 9818   7.818   6.495   2.188 -0.1535  0.1170 -0.1430
   21MOL   C179 9819   7.601   6.365   2.089  0.2281 -0.3212 -0.2361
   21MOL   C180 9820   7.469   6.377   2.046  0.0066 -0.2405  0.1745
   21MOL   C181 9821   7.372   6.278   2.060 -0.3058  0.6311  0.2243
   21MOL   C182 9822   7.422   6.153   2.104  0.3086  0.6894 -0.4589
   21MOL   C183 9823   7.554   6.134   2.146  0.6762 -0.6367  0.3246
   21MOL   C184 9824   7.643   6.244   2.144 -0.5179 -0.3725  0.2276
   21MOL   O185 9825   7.336   6.050   2.113  0.0485  0.1533 -0.4813
   21MOL   H186 9826   7.968   6.322   1.702  0.9309  0.7922  1.0137
   21MOL   H187 9827   7.902   6.331   1.948  0.6480  0.6378  1.1498
   21MOL   H188 9828   7.675   6.686   1.857  0.0861 -1.3779  1.4249
   21MOL   H189 9829   7.770   6.680   1.623  0.6869  0.4156 -0.0610
   21MOL   H190 9830   7.435   6.469   2.001  2.2280 -0.8327 -2.8835
   21MOL   H191 9831   7.271   6.296   2.028 -0.5725 -1.0019  0.1067
   21MOL   H192 9832   7.589   6.041   2.188 -1.3286 -2.1343 -1.1827
   21MOL   H193 9833   7.746   6.239   2.176 -0.8759 -0.9605  1.3113
   21MOL   C194 9834   7.192   6.114   2.295  1.3088 -0.1474  0.4075
   21MOL   C195 9835   7.138   6.088   2.424 -0.0466  0.1249  0.5795
   21MOL   C196 9836   7.149   5.956   2.479 -0.0760 -0.6902  0.2063
   21MOL   C197 9837   7.229   5.869   2.408  0.4714  0.3261 -0.4066
   21MOL   C198 9838   7.289   5.897   2.290  0.5414  0.4881  0.3295
   21MOL   C199 9839   7.273   6.019   2.229  0.1073  0.5739  0.2863
   21MOL   S200 9840   7.074   5.908   2.634  0.4046 -0.0748  0.2148
   21MOL   O201 9841   7.168   5.929   2.740 -0.4773  0.0800 -0.0015
   21MOL   O202 9842   7.024   5.773   2.614 -0.0882  0.6484  0.4384
   21MOL   C203 9843   6.938   6.017   2.667  0.2816  0.2992 -1.0027
   21MOL   C204 9844   6.958   6.130   2.744 -0.8103  0.4171 -0.5227
   21MOL   C205 9845   6.858   6.223   2.775 -0.2661  0.3155 -0.8721
   21MOL   C206 9846   6.724   6.191   2.735  0.2364 -0.0782 -0.3668
   21MOL   C207 9847   6.704   6.078   2.658  0.3038 -0.4113  0.6445
   21MOL   C208 9848   6.808   5.991   2.620  0.2272 -0.4120 -0.4126
   21MOL   O209 9849   6.621   6.275   2.771 -0.7024 -0.2856  0.2605
   21MOL   H210 9850   7.170   6.212   2.255 -1.4326 -0.6158  0.6454
   21MOL   H211 9851   7.087   6.167   2.477 -4.4064 -2.8218  1.0079
   21MOL   H212 9852   7.238   5.767   2.444  0.9077  0.0470 -1.2899
   21MOL   H213 9853   7.334   5.811   2.243 -0.8694  0.3857 -0.8632
   21MOL   H214 9854   7.059   6.147   2.780 -0.6413 -0.7254 -0.4642
   21MOL   H215 9855   6.880   6.315   2.828 -1.1262 -0.2697  0.5534
   21MOL   H216 9856   6.606   6.053   2.619 -0.4430  0.0942  2.1719
   21MOL   H217 9857   6.791   5.915   2.546  1.1306 -0.7199 -0.3130
   21MOL   C218 9858   6.453   6.322   2.613 -0.0705 -0.1219  0.5619
   21MOL   C219 9859   6.395   6.402   2.509 -0.1674 -0.1090 -0.1492
   21MOL   C220 9860   6.460   6.526   2.472 -0.7215 -0.1062 -0.3170
   21MOL   C221 9861   6.578   6.562   2.547 -0.4718 -0.1868  0.4988
   21MOL   C222 9862   6.635   6.477   2.644 -0.0034  0.0467 -0.4992
   21MOL   C223 9863   6.569   6.358   2.685 -0.0358 -0.0392  0.1328
   21MOL   S224 9864   6.394   6.616   2.340  0.2148  0.1918  0.1530
   21MOL   O225 9865   6.493   6.719   2.312 -0.1441 -0.1611 -0.7737
   21MOL   O226 9866   6.251   6.652   2.359 -0.7557  0.1953  0.0006
   21MOL   C227 9867   6.410   6.504   2.197  0.0489  0.7062 -0.0072
   21MOL   C228 9868   6.306   6.494   2.103 -0.0060 -0.2878 -0.2052
   21MOL   C229 9869   6.327   6.413   1.988 -0.5311 -0.0570 -0.0285
   21MOL   C230 9870   6.446   6.334   1.982  0.4452  0.2013 -0.0817
   21MOL   C231 9871   6.549   6.342   2.074  0.1397 -0.1860 -0.7490
   21MOL   C232 9872   6.530   6.433   2.180  0.0612  0.0925  0.3012
   21MOL   O233 9873   6.453   6.245   1.878 -0.2827  0.0696 -0.3072
   21MOL   H234 9874   6.412   6.225   2.636 -1.9394  0.7878  1.1839
   21MOL   H235 9875   6.297   6.372   2.476 -0.2339  2.2470 -2.2101
   21MOL   H236 9876   6.622   6.655   2.515 -1.0845  0.6415  2.0336
   21MOL   H237 9877   6.729   6.507   2.687  0.5650  0.9061 -2.2972
   21MOL   H238 9878   6.215   6.551   2.110 -1.2972 -2.2998  0.0161
   21MOL   H239 9879   6.257   6.409   1.906 -0.8764  0.3860  0.2429
   21MOL   H240 9880   6.632   6.272   2.068 -0.6224 -1.0982 -0.8611
   21MOL   H241 9881   6.612   6.440   2.250  1.5245  1.2916 -1.4751
   21MOL   C242 9882   6.571   6.161   1.687 -0.3479  0.2449 -0.0689
   21MOL   C243 9883   6.665   6.176   1.584  0.0616  0.0466  0.9967
   21MOL   C244 9884   6.722   6.302   1.559 -0.3245  0.1195  0.3708
   21MOL   C245 9885   6.674   6.411   1.635 -0.7815  0.4345  0.4037
   21MOL   C246 9886   6.594   6.398   1.743  0.6334  0.5034  0.3653
   21MOL   C247 9887   6.535   6.269   1.773 -0.4425 -0.5414 -0.0945
   21MOL   S248 9888   6.859   6.320   1.441  0.1350  0.4370 -0.2051
   21MOL   O249 9889   6.834   6.444   1.365  0.0454 -0.0323 -0.4676
   21MOL   O250 9890   6.863   6.195   1.368 -0.2239 -0.0999 -0.2227
   21MOL   C251 9891   7.019   6.342   1.535 -0.3209 -0.3113  0.7119
   21MOL   C252 9892   7.021   6.359   1.670 -0.3951 -0.0943 -0.3167
   21MOL   C253 9893   7.149   6.365   1.735  0.0679  0.1552  0.0816
   21MOL   C254 9894   7.268   6.368   1.655  0.3088 -0.2174 -0.0901
   21MOL   C255 9895   7.258   6.359   1.514  0.2643 -0.9571  0.7352
   21MOL   C256 9896   7.133   6.345   1.457 -0.2781 -0.0729  0.1004
   21MOL   O257 9897   7.389   6.370   1.713 -0.0365 -0.2305 -0.2091
   21MOL   H258 9898   6.538   6.060   1.707 -1.3262  0.5974  0.0909
   21MOL   H259 9899   6.684   6.092   1.519 -1.3458  0.3516  0.1596
   21MOL   H260 9900   6.716   6.508   1.611  2.1101 -0.8270  0.2139
   21MOL   H261 9901   6.572   6.488   1.798  0.0138  0.6685 -0.1462
   21MOL   H262 9902   6.929   6.357   1.727  1.1195 -0.8596  2.1609
   21MOL   H263 9903   7.149   6.362   1.843  0.2009  3.9138  0.2563
   21MOL   H264 9904   7.346   6.365   1.451 -0.7594 -2.1074 -0.8383
   21MOL   H265 9905   7.122   6.355   1.350 -0.8930  0.7098  0.2261
   21MOL   C266 9906   7.493   6.163   1.759 -0.0678  1.1746  0.3478
   21MOL   C267 9907   7.604   6.076   1.729 -0.1116 -0.2709 -0.1312
   21MOL   C268 9908   7.701   6.109   1.628  0.1536  0.3995 -0.1542
   21MOL   C269 9909   7.682   6.227   1.554 -0.1992 -0.3039 -0.1083
   21MOL   C270 9910   7.578   6.316   1.582  0.5412  0.1394 -0.7022
   21MOL   C271 9911   7.483   6.283   1.682  0.3281  0.1991 -0.1105
   21MOL   S272 9912   7.845   6.003   1.618  0.0203 -0.2861 -0.4537
   21MOL   O273 9913   7.800   5.865   1.643  0.7285 -0.9035  0.1244
   21MOL   O274 9914   7.944   6.068   1.702  0.1168  0.4591 -0.7189
   21MOL   C275 9915   7.902   6.014   1.453  0.9875 -0.3117  0.2156
   21MOL   C276 9916   7.881   5.904   1.369 -0.5732  0.8850 -0.0735
   21MOL   C277 9917   7.916   5.907   1.234  0.7797  0.5833  0.7730
   21MOL   C278 9918   7.966   6.027   1.183 -0.0399  0.1335 -0.1619
   21MOL   C279 9919   7.997   6.131   1.268 -0.8237  0.6298  0.2037
   21MOL   C280 9920   7.958   6.129   1.401 -0.4010 -0.2655  0.1729
   21MOL   O281 9921   7.972   6.042   1.045 -0.6793 -0.3028  0.6487
   21MOL   H282 9922   7.414   6.130   1.825 -0.0811 -0.9423 -0.7171
   21MOL   H283 9923   7.603   5.987   1.790 -0.1850  0.5322  1.0688
   21MOL   H284 9924   7.768   6.261   1.498 -0.4194  3.0706  1.4457
   21MOL   H285 9925   7.574   6.413   1.534 -1.5134  0.7674  0.6786
   21MOL   H286 9926   7.852   5.814   1.420 -1.9139  0.6287 -1.2588
   21MOL   H287 9927   7.899   5.814   1.181 -1.2190  2.3436 -1.8035
   21MOL   H288 9928   8.052   6.214   1.226 -0.8029  0.3498 -0.3395
   21MOL   H289 9929   7.975   6.218   1.461  0.3065 -0.3882  0.1585
   21MOL   C290 9930   8.219   6.066   1.026  0.0755 -0.1671 -0.2688
   21MOL   C291 9931   8.325   6.150   0.985 -0.0872  0.0476  0.7126
   21MOL   C292 9932   8.301   6.234   0.877  0.0409  0.3975 -0.1932
   21MOL   C293 9933   8.175   6.268   0.830  0.0519 -0.0971 -0.0091
   21MOL   C294 9934   8.064   6.206   0.894 -0.3959 -0.5216  0.3163
   21MOL   C295 9935   8.085   6.101   0.990 -0.6405 -0.0844  0.4189
   21MOL   S296 9936   0.001   6.330   0.792 -0.5259  0.0651 -0.0226
   21MOL   O297 9937   8.378   6.472   0.789 -0.3777  0.1254  0.9011
   21MOL   O298 9938   0.041   6.258   0.666  0.5040 -0.2907 -0.3419
   21MOL   C299 9939   0.138   6.321   0.898  0.3426  0.5590 -0.1426
   21MOL   C300 9940   0.235   6.225   0.884  0.1846 -0.0895  0.1741
   21MOL   C301 9941   0.345   6.214   0.963  0.4687 -0.3546 -0.8080
   21MOL   C302 9942   0.354   6.305   1.073  0.1388  0.0419  0.5616
   21MOL   C303 9943   0.255   6.400   1.095 -0.1868 -0.2509 -0.1038
   21MOL   C304 9944   0.141   6.402   1.011  0.0006 -0.1696  0.6319
   21MOL   O305 9945   0.467   6.313   1.149 -0.0936 -0.1098  0.3775
   21MOL   H306 9946   8.232   5.988   1.099 -1.2487  0.0415  0.2141
   21MOL   H307 9947   8.424   6.121   1.017  0.1157  0.4961  0.4920
   21MOL   H308 9948   8.160   6.342   0.753  0.1897 -0.4161 -0.3438
   21MOL   H309 9949   7.972   6.230   0.844  1.2357  1.2054 -1.9482
   21MOL   H310 9950   0.232   6.156   0.800  0.1561 -0.9047  0.8323
   21MOL   H311 9951   0.430   6.149   0.948  2.4850  1.0923  3.5009
   21MOL   H312 9952   0.275   6.473   1.172 -1.9957  0.6997 -0.5230
   21MOL   H313 9953   0.066   6.479   1.024 -1.4660 -1.2030 -1.2945
   21MOL   C314 9954   0.664   6.179   1.199  0.2866  0.2472 -0.1584
   21MOL   C315 9955   0.722   6.065   1.252 -0.4510  0.3832 -0.3775
   21MOL   C316 9956   0.641   5.970   1.317 -0.8624  0.0120 -0.7544
   21MOL   C317 9957   0.508   5.990   1.322 -0.0711  0.1745  0.0027
   21MOL   C318 9958   0.449   6.098   1.259 -0.0760 -0.5229  0.3439
   21MOL   C319 9959   0.526   6.197   1.200 -0.3808  0.3842  0.2499
   21MOL   S320 9960   0.715   5.813   1.365 -0.2474 -0.2102 -0.2501
   21MOL   O321 9961   0.594   5.733   1.401  0.0459  0.3137  0.2040
   21MOL   O322 9962   0.829   5.831   1.456 -0.0364  0.1912  0.7909
   21MOL   C323 9963   0.770   5.731   1.218  0.1084  0.1816  0.5378
   21MOL   C324 9964   0.686   5.654   1.134  0.1644  0.4363  0.7681
   21MOL   C325 9965   0.730   5.591   1.020  0.2872 -0.1378 -0.7170
   21MOL   C326 9966   0.865   5.587   0.992  0.3192  0.0115  0.1768
   21MOL   C327 9967   0.955   5.664   1.074  0.8704 -0.3642 -0.1180
   21MOL   C328 9968   0.906   5.728   1.185  0.1904 -0.3711 -0.6340
   21MOL   O329 9969   0.925   5.511   0.889 -0.1863 -0.0858 -0.4564
   21MOL   H330 9970   0.721   6.255   1.146 -1.1023  0.2511 -1.7086
   21MOL   H331 9971   0.829   6.052   1.256 -0.6419 -1.6753 -1.4083
   21MOL   H332 9972   0.448   5.915   1.371 -0.7429 -0.4328 -1.7227
   21MOL   H333 9973   0.341   6.108   1.256  0.1237  1.2601 -3.9112
   21MOL   H334 9974   0.583   5.657   1.167 -0.1643  1.3137 -0.3161
   21MOL   H335 9975   0.651   5.556   0.955 -0.0586  0.0064 -0.3729
   21MOL   H336 9976   1.058   5.678   1.045  0.8956  0.0207  0.1537
   21MOL   H337 9977   0.973   5.782   1.251 -0.1513  1.2751 -1.5982
   21MOL   C338 9978   0.862   5.637   0.700 -0.1678 -0.2923  0.3347
   21MOL   C339 9979   0.805   5.637   0.571 -0.4530  0.0911 -0.3307
   21MOL   C340 9980   0.764   5.520   0.512  0.1855  0.1875  0.4446
   21MOL   C341 9981   0.771   5.391   0.575 -0.3470  0.4875  0.2773
   21MOL   C342 9982   0.818   5.395   0.705 -0.5709  0.2611  0.0661
   21MOL   C343 9983   0.869   5.515   0.763  0.0431  0.4911  0.1460
   21MOL   S344 9984   0.695   5.522   0.344 -0.5586 -0.2668 -0.0797
   21MOL   O345 9985   0.798   5.487   0.245  0.3836  0.1610  0.2718
   21MOL   O346 9986   0.624   5.651   0.315  0.1849 -0.2679  0.2539
   21MOL   C347 9987   0.570   5.389   0.345  0.0266 -0.0690 -0.8063
   21MOL   C348 9988   0.443   5.416   0.406  0.2668 -0.1244  0.6473
   21MOL   C349 9989   0.350   5.315   0.425 -0.2964  0.4129  0.3321
   21MOL   C350 9990   0.374   5.185   0.368 -0.0670 -0.3183  0.0586
   21MOL   C351 9991   0.499   5.164   0.303  0.6626 -0.2567 -0.3636
   21MOL   C352 9992   0.602   5.262   0.294  0.7315  0.6222 -0.0611
   21MOL   O353 9993   0.271   5.093   0.374  0.3580  0.1502  0.4190
   21MOL   H354 9994   0.907   5.728   0.737 -2.2056  0.6456  0.5625
   21MOL   H355 9995   0.793   5.732   0.521 -3.4049 -0.0328  0.0701
   21MOL   H356 9996   0.728   5.297   0.546  0.8453 -0.6056  1.9380
   21MOL   H357 9997   0.807   5.309   0.770  0.8478  0.7278  0.9388
   21MOL   H358 9998   0.427   5.519   0.436  0.1120  0.2884 -0.8524
   21MOL   H359 9999   0.265   5.335   0.488  1.3449  0.4916  2.5797
   21MOL   H36010000   0.511   5.067   0.258  1.6231 -0.0646 -0.5373
   21MOL   H36110001   0.702   5.244   0.260  0.2416  0.9020 -1.7016
   21MOL   C36210002   0.355   4.877   0.449 -0.6627  0.0576 -0.1363
   21MOL   C36310003   0.393   4.750   0.413  0.7470 -0.6688 -0.1047
   21MOL   C36410004   0.340   4.696   0.296 -0.2440  0.9652  0.3189
   21MOL   C36510005   0.248   4.763   0.208  0.6255  0.5590 -0.8584
   21MOL   C36610006   0.226   4.900   0.242  0.4949 -0.0279 -0.5589
   21MOL   C36710007   0.284   4.961   0.354 -0.8104  0.1508 -0.2996
   21MOL   S36810008   0.385   4.527   0.263  0.1714  0.0788  0.2204
   21MOL   O36910009   0.275   4.429   0.287  0.5366  0.1546 -0.3332
   21MOL   O37010010   0.506   4.502   0.337 -0.0085 -0.7917  0.0106
   21MOL   C37110011   0.422   4.530   0.087  0.2916  0.3217 -0.0587
   21MOL   C37210012   0.367   4.430   0.005 -0.5003  0.1956  0.4582
   21MOL   C37310013   0.396   4.430   8.291 -0.4829 -0.3674  0.5256
   21MOL   C37410014   0.487   4.530   8.242 -0.0970 -0.3275  0.2573
   21MOL   C37510015   0.540   4.626   8.326  0.1076 -0.0992 -0.1446
   21MOL   C37610016   0.515   4.627   0.045 -0.5419  0.0545  0.6566
   21MOL   O37710017   0.518   4.524   8.112  0.3971  0.0451 -0.1471
   21MOL   H37810018   0.399   4.922   0.536  0.2270 -1.9317  0.4663
   21MOL   H37910019   0.452   4.684   0.475  0.7211  0.7764  1.4976
   21MOL   H38010020   0.215   4.718   0.116 -0.3585 -0.3234 -0.0891
   21MOL   H38110021   0.165   4.971   0.189  1.6276 -0.0783 -1.9461
   21MOL   H38210022   0.307   4.360   0.061 -0.0160  0.0241  0.7643
   21MOL   H38310023   0.358   4.347   8.234  1.6637 -1.3285  0.4287
   21MOL   H38410024   0.616   4.684   8.276  1.1672 -1.5470 -0.2333
   21MOL   H38510025   0.565   4.692   0.115 -0.0710  2.4321 -1.7946
   21MOL   C38610026   0.695   4.575   7.958 -0.1293 -0.1415  0.3484
   21MOL   C38710027   0.826   4.547   7.921 -0.3095 -0.0031 -0.3018
   21MOL   C38810028   0.910   4.457   7.994 -0.7424 -0.2593  0.6906
   21MOL   C38910029   0.862   4.393   8.107  0.0513  0.3031 -0.4562
   21MOL   C39010030   0.737   4.426   8.150  0.2801 -0.5121  0.1067
   21MOL   C39110031   0.648   4.511   8.075 -0.9214 -0.7422  0.2891
   21MOL   S39210032   1.076   4.422   7.942  0.2968  0.0690  0.3236
   21MOL   O39310033   1.108   4.514   7.829  0.5326 -0.0707 -0.2845
   21MOL   O39410034   1.103   4.280   7.932 -0.1258  0.0082  0.0239
   21MOL   C39510035   1.187   4.492   8.077  0.7078 -0.4616  0.3016
   21MOL   C39610036   1.291   4.423   8.136  0.1801  0.2592 -0.1187
   21MOL   C39710037   1.392   4.486   8.212  0.0551 -0.0328  0.4638
   21MOL   C39810038   1.378   4.618   8.248  0.0958 -0.3766  0.5459
   21MOL   C39910039   1.274   4.694   8.187 -0.3501 -0.0639  0.0409
   21MOL   C40010040   1.181   4.631   8.100  0.2213  0.2070  0.4410
   21MOL   O40110041   1.484   4.675   8.315 -0.1961 -0.6313 -0.2464
   21MOL   H40210042   0.628   4.637   7.900 -1.2024 -0.6272  1.0527
   21MOL   H40310043   0.863   4.598   7.833  0.2588  1.8197  0.9646
   21MOL   H40410044   0.909   4.316   8.166 -1.1130 -1.2235 -1.4864
   21MOL   H40510045   0.702   4.378   8.240 -2.5921  0.9421 -0.1731
   21MOL   H40610046   1.304   4.318   8.116 -0.2869  0.7580 -3.3179
   21MOL   H40710047   1.481   4.430   8.237  0.1024 -0.2296 -0.1615
   21MOL   H40810048   1.264   4.800   8.201  0.9507  0.2742 -1.3515
   21MOL   H40910049   1.102   4.687   8.051 -0.4103 -1.6645 -0.7276
   21MOL   C41010050   1.551   4.577   0.111 -0.3949  0.4050  0.6151
   21MOL   C41110051   1.562   4.599   0.254  0.3739 -0.1296  0.2030
   21MOL   C41210052   1.483   4.704   0.306 -0.4749 -0.2620 -0.8395
   21MOL   C41310053   1.396   4.781   0.227 -0.6256 -0.0396  0.9843
   21MOL   C41410054   1.393   4.763   0.088  0.0305  0.1728 -0.0176
   21MOL   C41510055   1.478   4.667   0.028  0.8830  0.5629 -0.2321
   21MOL   S41610056   1.495   4.748   0.480  0.0221 -0.2969  0.0805
   21MOL   O41710057   1.618   4.688   0.536  0.3486  0.4042  0.0276
   21MOL   O41810058   1.372   4.705   0.542 -0.0402 -0.3085 -0.1701
   21MOL   C41910059   1.505   4.930   0.496 -0.2153 -0.0742 -0.1901
   21MOL   C42010060   1.587   4.994   0.396  0.5102 -0.0106  0.1298
   21MOL   C42110061   1.612   5.135   0.399  0.6925 -0.6479  0.1582
   21MOL   C42210062   1.570   5.208   0.508 -0.7223 -0.3791  0.3088
   21MOL   C42310063   1.485   5.153   0.601  0.1112 -0.0226  0.2737
   21MOL   C42410064   1.447   5.009   0.597 -0.2565  0.2552 -0.4684
   21MOL   O42510065   1.606   5.341   0.515  0.2275  0.1193 -0.0067
   21MOL   H42610066   1.604   4.500   0.056 -1.5662 -1.2929  1.7946
   21MOL   H42710067   1.635   4.542   0.310  1.5614  0.5983 -0.5850
   21MOL   H42810068   1.342   4.861   0.275 -0.2335  0.2436  0.9527
   21MOL   H42910069   1.334   4.830   0.028 -0.3601 -0.9320 -0.8892
   21MOL   H43010070   1.639   4.932   0.325  1.4668  0.9526 -0.0252
   21MOL   H43110071   1.684   5.164   0.324  1.4063 -2.0476  0.2801
   21MOL   H43210072   1.445   5.221   0.674  2.8444  1.2113  0.6824
   21MOL   H43310073   1.382   4.965   0.670  1.3034 -2.3956 -0.6231
   21MOL   C43410074   1.721   5.351   0.737 -0.2452 -0.3130  0.3142
   21MOL   C43510075   1.751   5.431   0.849  0.9073 -0.4302 -0.1544
   21MOL   C43610076   1.694   5.563   0.860  0.2782 -0.1070  0.2849
   21MOL   C43710077   1.603   5.612   0.767  0.4680  0.0662  0.7202
   21MOL   C43810078   1.574   5.525   0.659  0.0252 -0.2567 -0.1403
   21MOL   C43910079   1.633   5.400   0.641 -0.4700 -0.4852  0.0864
   21MOL   S44010080   1.752   5.667   0.987 -0.2978 -0.3095  0.3733
   21MOL   O44110081   1.815   5.577   1.084  0.0317 -0.1519  0.7174
   21MOL   O44210082   1.637   5.752   1.028 -0.1308 -0.2547  0.2046
   21MOL   C44310083   1.883   5.780   0.925  0.0173 -0.7980  0.0476
   21MOL   C44410084   1.890   5.819   0.788 -0.3288  0.0946 -0.0105
   21MOL   C44510085   1.979   5.915   0.754 -0.2568 -0.0807  0.4548
   21MOL   C44610086   2.055   5.987   0.852  0.4529  0.2919  0.1385
   21MOL   C44710087   2.055   5.941   0.988 -1.0789  0.0956  0.0195
   21MOL   C44810088   1.972   5.835   1.020  0.0414 -0.0166  0.0262
   21MOL   O44910089   2.110   6.110   0.828  0.1938  0.1834  0.5004
   21MOL   H45010090   1.757   5.250   0.729 -2.0744 -0.8057 -2.1122
   21MOL   H45110091   1.819   5.386   0.919  3.7680 -0.3913 -2.8094
   21MOL   H45210092   1.561   5.711   0.776  0.9899  0.5895 -2.0733
   21MOL   H45310093   1.508   5.553   0.579  0.8706 -0.2857 -0.8500
   21MOL   H45410094   1.834   5.771   0.710  0.7488 -0.4725 -0.4459
   21MOL   H45510095   1.983   5.953   0.653 -1.0414 -1.1840 -0.0009
   21MOL   H45610096   2.114   5.998   1.058 -2.8400 -1.5856  2.9510
   21MOL   H45710097   1.994   5.794   1.117  1.3779  0.7969  0.0774
   21MOL   C45810098   2.259   6.098   0.638 -0.0189 -0.4211  0.0241
   21MOL   C45910099   2.279   6.122   0.498 -0.3752  0.5043 -0.0956
   21MOL   C46010100   2.178   6.185   0.421 -0.1090  0.5756  0.0543
   21MOL   C46110101   2.064   6.233   0.483 -0.7167 -0.2193 -0.0840
   21MOL   C46210102   2.046   6.216   0.623  0.1573 -0.3607 -0.9025
   21MOL   C46310103   2.139   6.145   0.700 -0.5090 -0.5223  0.1658
   21MOL   S46410104   2.195   6.207   0.243  0.3621  0.6290  0.2321
   21MOL   O46510105   2.200   6.063   0.194  0.0934  0.9147 -0.7077
   21MOL   O46610106   2.319   6.280   0.219  0.5291 -0.4701 -0.0864
   21MOL   C46710107   2.048   6.299   0.180  0.6064 -0.0406  0.4477
   21MOL   C46810108   2.043   6.436   0.179  0.3320 -0.5931  0.1936
   21MOL   C46910109   1.933   6.506   0.119  0.3400 -0.4454 -0.1196
   21MOL   C47010110   1.832   6.430   0.051 -0.7831  0.0995  0.1436
   21MOL   C47110111   1.843   6.288   0.051 -0.6648 -0.2582 -0.1328
   21MOL   C47210112   1.943   6.222   0.125  0.4173 -0.0009  0.8457
   21MOL   O47310113   1.721   6.492   8.420 -0.8791 -0.0856  0.4583
   21MOL   H47410114   2.331   6.038   0.692  1.1309  2.5516  1.9394
   21MOL   H47510115   2.361   6.084   0.439  0.0495  1.1977  0.0493
   21MOL   H47610116   1.978   6.277   0.434 -1.3613  0.7959  1.8820
   21MOL   H47710117   1.956   6.252   0.671  1.9189  2.4270  0.4042
   21MOL   H47810118   2.126   6.490   0.222 -0.0179  2.4822 -2.7362
   21MOL   H47910119   1.926   6.614   0.119 -1.6975 -0.5570  1.0877
   21MOL   H48010120   1.770   6.223   0.003  0.3343 -0.6872 -1.0928
   21MOL   H48110121   1.947   6.115   0.133 -0.8166 -0.1877 -0.8172
   21MOL   H48210122   1.710   6.584   0.017 -2.6599 -0.2374  0.3229
   22MOL     C110123   4.754   4.130   2.342 -0.8077  0.1100  0.3175
   22MOL     C210124   4.626   4.130   2.274  0.4182 -0.0523  0.1981
   22MOL     C310125   4.632   4.172   2.136 -0.6090  0.5316 -0.1521
   22MOL     C410126   4.750   4.196   2.066 -0.3823  0.0878 -0.4514
   22MOL     C510127   4.876   4.187   2.135 -0.0161  0.0510 -0.0804
   22MOL     C610128   4.878   4.155   2.271 -0.1964  0.3481  0.1958
   22MOL     S710129   4.480   4.182   2.040  0.1227 -0.0711 -0.0793
   22MOL     O810130   4.489   4.091   1.922 -0.4976  0.8560 -0.1125
   22MOL     O910131   4.466   4.326   2.012  0.5679  0.1409 -0.0396
   22MOL    C1010132   4.339   4.124   2.144 -0.6553  0.4057  0.0233
   22MOL    C1110133   4.299   4.205   2.252 -0.6774 -0.2438 -0.2540
   22MOL    C1210134   4.200   4.156   2.342 -0.6042 -0.5539  0.7273
   22MOL    C1310135   4.144   4.025   2.329 -0.0270 -0.5611  0.1034
   22MOL    C1410136   4.180   3.959   2.209 -0.2864 -0.2073  0.7217
   22MOL    C1510137   4.278   3.998   2.116 -0.3955 -0.5649 -0.1218
   22MOL    O1610138   4.074   3.954   2.423  0.0054 -0.3130  0.1281
   22MOL    H1710139   4.753   4.119   2.449  0.2572 -1.8219  0.1643
   22MOL    H1810140   4.540   4.097   2.330 -1.6524  3.9780 -0.4444
   22MOL    H1910141   4.742   4.224   1.962 -1.4758 -1.9948 -0.9444
   22MOL    H2010142   4.969   4.209   2.084  0.0465 -0.9307 -0.4151
   22MOL    H2110143   4.338   4.303   2.277  2.6906 -1.5354 -0.2558
   22MOL    H2210144   4.192   4.219   2.430  0.8145  1.7034 -0.6812
   22MOL    H2310145   4.140   3.859   2.196 -0.1326 -0.1555 -0.1883
   22MOL    H2410146   4.304   3.928   2.039  2.0530  0.7907 -0.5706
   22MOL    H2510147   4.978   4.155   2.311 -1.2255  1.0687  2.9036
   22MOL    C2610148   4.065   4.089   2.636  0.5454  0.0028  0.8296
   22MOL    C2710149   3.984   4.151   2.735 -0.4456  0.1815 -0.4512
   22MOL    C2810150   3.848   4.147   2.730 -0.2345  0.5200 -0.6734
   22MOL    C2910151   3.786   4.077   2.625 -0.4250  0.3898 -0.2549
   22MOL    C3010152   3.868   4.017   2.520  0.8675 -0.3594  0.3955
   22MOL    C3110153   4.004   4.020   2.524  0.0254  0.2454 -0.0405
   22MOL    S3210154   3.749   4.212   2.865 -0.0479  0.0041 -0.0886
   22MOL    O3310155   3.688   4.100   2.939 -0.3950  0.2461 -0.3426
   22MOL    O3410156   3.652   4.313   2.817 -0.0959  0.2969  0.0572
   22MOL    C3510157   3.863   4.300   2.975 -0.3596  0.3268  0.1560
   22MOL    C3610158   3.911   4.247   3.094 -0.6990  0.1044  0.1254
   22MOL    C3710159   3.996   4.321   3.175  0.2268 -0.2516 -0.2404
   22MOL    C3810160   4.037   4.450   3.135  0.1311  0.0179 -0.6236
   22MOL    C3910161   3.994   4.503   3.012 -0.4429 -0.4535 -0.5140
   22MOL    C4010162   3.904   4.427   2.928 -0.3941  0.6702  0.0137
   22MOL    O4110163   4.117   4.516   3.222  0.0564  0.3795 -0.1383
   22MOL    H4210164   4.172   4.087   2.642  0.5315  0.6145  1.3506
   22MOL    H4310165   4.038   4.200   2.814  0.2885 -1.3309 -0.0129
   22MOL    H4410166   3.679   4.072   2.635 -0.3452  1.9133  1.4853
   22MOL    H4510167   3.808   3.979   2.439  0.3817  1.8633 -0.3235
   22MOL    H4610168   3.877   4.152   3.132  0.3576 -0.7301 -0.9727
   22MOL    H4710169   4.018   4.283   3.274  0.8772  1.8860  0.4506
   22MOL    H4810170   4.024   4.605   2.993 -0.2057 -0.2896  0.7355
   22MOL    H4910171   3.884   4.460   2.827 -1.2963 -2.1170 -0.7764
   22MOL    C5010172   3.959   4.663   3.338  0.1524  0.2071  0.2270
   22MOL    C5110173   3.883   4.690   3.455  0.2307  0.0454  1.0772
   22MOL    C5210174   3.917   4.624   3.569  0.0807  0.6001  0.3688
   22MOL    C5310175   4.021   4.530   3.571  0.8216 -0.1896 -0.6093
   22MOL    C5410176   4.090   4.494   3.456 -0.1242 -0.3422  0.5370
   22MOL    C5510177   4.060   4.562   3.338  0.2772 -0.3933  0.5234
   22MOL    S5610178   3.832   4.666   3.722 -0.0343  0.0851 -0.3705
   22MOL    O5710179   3.767   4.797   3.722 -0.3539 -0.1542 -0.3895
   22MOL    O5810180   3.931   4.636   3.827  0.2777  0.6794  0.1711
   22MOL    C5910181   3.702   4.550   3.748  0.3366 -0.5582  0.0232
   22MOL    C6010182   3.666   4.496   3.875 -0.2861  0.6987 -0.0143
   22MOL    C6110183   3.555   4.413   3.890  0.4188 -0.2955 -0.1394
   22MOL    C6210184   3.476   4.372   3.779 -0.0882  0.3738 -0.8292
   22MOL    C6310185   3.517   4.422   3.654  0.3258  0.6044 -0.5264
   22MOL    C6410186   3.627   4.508   3.637  0.1136 -0.0009  0.2416
   22MOL    O6510187   3.366   4.291   3.787 -0.7077  0.2170  0.6720
   22MOL    H6610188   3.924   4.718   3.252  0.4213 -0.4040 -0.2763
   22MOL    H6710189   3.802   4.761   3.454  0.3462  0.1688  0.1606
   22MOL    H6810190   4.041   4.492   3.670 -0.7935  0.4900 -0.0068
   22MOL    H6910191   4.157   4.409   3.450 -2.7857 -2.5912  1.4557
   22MOL    H7010192   3.714   4.544   3.959 -1.9799  2.9446 -0.2665
   22MOL    H7110193   3.531   4.383   3.991 -1.0402 -2.0610 -0.9932
   22MOL    H7210194   3.460   4.395   3.566  1.0230 -0.1191 -0.7628
   22MOL    H7310195   3.656   4.538   3.538  1.9707 -1.0782  0.4403
   22MOL    C7410196   3.195   4.256   3.946 -0.0011 -0.5781  0.2687
   22MOL    C7510197   3.079   4.301   4.015 -0.6348  0.5363  0.4680
   22MOL    C7610198   3.040   4.434   4.002  0.3386  0.6416 -0.1925
   22MOL    C7710199   3.107   4.520   3.912  0.0977  0.4118  0.0458
   22MOL    C7810200   3.217   4.469   3.837 -0.0209  0.0601 -0.5891
   22MOL    C7910201   3.258   4.339   3.856 -0.1444 -0.7527  0.1468
   22MOL    S8010202   2.893   4.486   4.103 -0.0882  0.2002  0.7210
   22MOL    O8110203   2.929   4.454   4.240 -0.0206  0.0034  0.2387
   22MOL    O8210204   2.776   4.423   4.041 -0.4031 -0.2969 -0.3673
   22MOL    C8310205   2.890   4.664   4.071  0.3127  0.9313 -0.5696
   22MOL    C8410206   2.797   4.710   3.977  0.4278  0.2297  0.1511
   22MOL    C8510207   2.792   4.852   3.964 -0.1212 -0.2011 -0.8166
   22MOL    C8610208   2.881   4.938   4.038  0.2987  0.1006  0.0151
   22MOL    C8710209   2.979   4.880   4.121  0.3104  0.2398 -0.4811
   22MOL    C8810210   2.977   4.744   4.134 -0.6307  0.6976 -0.0345
   22MOL    O8910211   2.871   5.075   4.022 -0.2814  0.2441 -0.7747
   22MOL    H9010212   3.235   4.155   3.944 -2.0617 -1.4569  1.8788
   22MOL    H9110213   3.029   4.230   4.079  1.0843 -0.1461  1.0761
   22MOL    H9210214   3.069   4.619   3.896  1.1574  0.7703 -0.3126
   22MOL    H9310215   3.257   4.537   3.763  0.6491 -0.1344 -0.4129
   22MOL    H9410216   2.728   4.653   3.915  0.0008  1.3296 -0.3951
   22MOL    H9510217   2.733   4.916   3.899  0.7618  0.3640 -1.0743
   22MOL    H9610218   3.061   4.943   4.151 -0.6357  1.0504  0.4713
   22MOL    H9710219   3.048   4.692   4.197 -1.6345 -2.4555 -1.3918
   22MOL    C9810220   2.672   5.122   4.150 -0.1227  0.0664  0.1911
   22MOL    C9910221   2.617   5.195   4.259  0.3130 -0.2249  0.6873
   22MOL   C10010222   2.688   5.299   4.323 -0.2799  0.6091 -0.3293
   22MOL   C10110223   2.823   5.307   4.305 -0.0262 -0.1925 -0.1611
   22MOL   C10210224   2.881   5.231   4.198  0.0658  0.5352 -0.2357
   22MOL   C10310225   2.811   5.136   4.123 -0.3020 -0.0855 -0.0410
   22MOL   S10410226   2.598   5.390   4.434 -0.1007 -0.1391 -0.1271
   22MOL   O10510227   2.614   5.323   4.568 -0.1252 -0.1472  0.0310
   22MOL   O10610228   2.464   5.408   4.376 -0.2440  0.0838  0.1717
   22MOL   C10710229   2.670   5.553   4.452  0.3851  0.3448  0.1071
   22MOL   C10810230   2.772   5.567   4.551  0.0047  0.1736  0.0242
   22MOL   C10910231   2.826   5.693   4.578  0.0063 -0.8812  0.5424
   22MOL   C11010232   2.776   5.807   4.509 -0.6974 -0.3605 -0.0384
   22MOL   C11110233   2.665   5.792   4.420  0.0810 -0.0384 -0.2407
   22MOL   C11210234   2.618   5.661   4.384  0.3475  0.3932 -0.7896
   22MOL   O11310235   2.825   5.929   4.534  0.2620  0.0788 -0.3918
   22MOL   H11410236   2.600   5.063   4.094 -2.2477  2.6115  0.1466
   22MOL   H11510237   2.512   5.179   4.279  0.5879 -2.2777  0.5720
   22MOL   H11610238   2.880   5.386   4.351 -0.0043 -0.2243 -0.1345
   22MOL   H11710239   2.987   5.246   4.179  0.3478  0.5435  1.2351
   22MOL   H11810240   2.808   5.478   4.599 -0.4230  0.0182  0.0585
   22MOL   H11910241   2.909   5.704   4.645  0.2189  2.2396 -0.1886
   22MOL   H12010242   2.628   5.882   4.374  1.4492  0.9677  0.5690
   22MOL   H12110243   2.538   5.641   4.315 -0.8904  0.0080  0.7130
   22MOL   C12210244   2.972   5.959   4.345  0.2075 -0.2974  0.5699
   22MOL   C12310245   3.103   5.973   4.290 -0.7715  0.1021 -0.9281
   22MOL   C12410246   3.211   5.979   4.378  0.2508 -0.7126  0.1786
   22MOL   C12510247   3.186   5.972   4.518 -0.4796  0.1402 -0.0562
   22MOL   C12610248   3.063   5.955   4.570  0.2887  0.4397 -0.2469
   22MOL   C12710249   2.953   5.946   4.484  0.1672 -0.7808  0.3241
   22MOL   S12810250   3.384   5.988   4.330  0.1474  0.1549 -0.2317
   22MOL   O12910251   3.414   5.877   4.243  0.0288 -0.4123 -0.0694
   22MOL   O13010252   3.462   6.014   4.453  0.2171 -0.3398 -0.4846
   22MOL   C13110253   3.363   6.136   4.226  0.5657  0.2103 -0.0973
   22MOL   C13210254   3.305   6.118   4.102 -0.4360 -0.2853 -0.1770
   22MOL   C13310255   3.292   6.231   4.013  0.0812 -0.7794 -0.2886
   22MOL   C13410256   3.322   6.355   4.063 -0.6538  0.6965  0.5874
   22MOL   C13510257   3.375   6.376   4.189  0.3637 -1.2325 -0.5635
   22MOL   C13610258   3.397   6.262   4.275 -0.5088  0.7726  0.1473
   22MOL   O13710259   3.307   6.470   3.987 -0.3427  0.0955 -0.9363
   22MOL   H13810260   2.884   5.957   4.283  0.4550  1.5897  0.1456
   22MOL   H13910261   3.108   5.976   4.182 -2.4468 -2.0894 -1.1019
   22MOL   H14010262   3.273   5.972   4.582 -1.4571 -1.1685  1.3056
   22MOL   H14110263   3.066   5.950   4.677  0.6868 -0.9866 -0.3003
   22MOL   H14210264   3.284   6.022   4.058 -1.3495  0.6133 -1.7657
   22MOL   H14310265   3.252   6.222   3.914  0.7781  0.4827 -0.6936
   22MOL   H14410266   3.401   6.478   4.211  0.6710 -1.0189 -1.9327
   22MOL   H14510267   3.435   6.262   4.377 -0.4919 -3.1965  0.2251
   22MOL   C14610268   3.288   6.506   3.744  0.2239 -0.3233 -0.3202
   22MOL   C14710269   3.348   6.533   3.623  0.4743 -0.4731 -0.8122
   22MOL   C14810270   3.484   6.512   3.609  0.2440 -0.3530 -0.4003
   22MOL   C14910271   3.567   6.468   3.719  0.0859  0.3581 -0.8729
   22MOL   C15010272   3.501   6.444   3.850 -0.3350 -0.0533 -0.2513
   22MOL   C15110273   3.365   6.475   3.859  0.0480  0.3859 -0.2959
   22MOL   S15210274   3.568   6.548   3.454  0.5554 -0.3842 -0.1445
   22MOL   O15310275   3.703   6.594   3.486 -0.0699 -0.3166 -0.1037
   22MOL   O15410276   3.480   6.632   3.376  0.2855 -0.7766  0.1961
   22MOL   C15510277   3.569   6.394   3.364  0.2111 -1.6485 -0.2708
   22MOL   C15610278   3.451   6.333   3.318 -0.4167  0.2859  1.0562
   22MOL   C15710279   3.462   6.203   3.254  0.3649 -0.7451  0.2701
   22MOL   C15810280   3.587   6.145   3.229 -0.8220  0.4106  0.5300
   22MOL   C15910281   3.704   6.210   3.275 -0.4577 -0.4376  0.2553
   22MOL   C16010282   3.694   6.331   3.352 -0.3067  0.4756 -0.1765
   22MOL   O16110283   3.607   6.024   3.159  0.5515  0.4714 -0.3608
   22MOL   H16210284   3.182   6.521   3.754  0.0381 -1.5301 -0.3963
   22MOL   H16310285   3.285   6.570   3.544 -1.5980 -1.6454  0.2416
   22MOL   H16410286   3.671   6.451   3.700  0.4761 -0.2187  1.5392
   22MOL   H16510287   3.556   6.418   3.939  0.0466  0.8203 -0.2213
   22MOL   H16610288   3.354   6.376   3.340 -1.6028 -1.8600  0.1665
   22MOL   H16710289   3.365   6.169   3.220  0.7290  0.5334 -2.1723
   22MOL   H16810290   3.804   6.173   3.253  0.0454  0.4515  1.0177
   22MOL   H16910291   3.781   6.379   3.395 -0.0121  0.6956 -1.0001
   22MOL   C17010292   3.545   5.858   3.327 -0.5116  0.4124  0.1919
   22MOL   C17110293   3.470   5.748   3.368  0.0061  0.2549 -0.0085
   22MOL   C17210294   3.361   5.708   3.293  0.1118 -0.1059 -0.3106
   22MOL   C17310295   3.337   5.765   3.168  0.0219 -0.0869  0.1741
   22MOL   C17410296   3.416   5.872   3.118 -0.6844  0.0583 -0.3116
   22MOL   C17510297   3.523   5.915   3.202 -0.0872 -0.1130  0.5042
   22MOL   S17610298   3.243   5.589   3.361  0.6186  0.1950  0.1709
   22MOL   O17710299   3.308   5.459   3.378  0.7591  0.2480  0.1685
   22MOL   O17810300   3.125   5.591   3.277  0.7871  0.0761 -0.3736
   22MOL   C17910301   3.190   5.664   3.523 -0.3083  0.4697  0.2659
   22MOL   C18010302   3.208   5.804   3.546  0.6882  0.3063  0.2576
   22MOL   C18110303   3.175   5.850   3.679  0.2113  0.5181  0.2403
   22MOL   C18210304   3.099   5.767   3.769 -0.8607 -0.3746  0.0276
   22MOL   C18310305   3.074   5.629   3.734 -0.1550 -0.2146 -0.1845
   22MOL   C18410306   3.119   5.583   3.609  0.1566  0.1637 -0.5879
   22MOL   O18510307   3.072   5.820   3.892 -0.2230  0.3006 -0.1668
   22MOL   H18610308   3.620   5.899   3.393  0.1983 -0.9990  0.2755
   22MOL   H18710309   3.476   5.699   3.464 -0.5085  0.6000  0.2002
   22MOL   H18810310   3.255   5.719   3.115  3.1617 -1.7728 -3.3902
   22MOL   H18910311   3.401   5.915   3.020 -0.2561  0.4700 -0.1996
   22MOL   H19010312   3.266   5.867   3.480  1.1206 -0.1337  0.2142
   22MOL   H19110313   3.217   5.947   3.700  2.1254  0.4037 -2.8037
   22MOL   H19210314   3.028   5.565   3.807  2.0630 -0.8741  0.6910
   22MOL   H19310315   3.116   5.477   3.588 -1.3314 -0.0197  0.4656
   22MOL   C19410316   3.225   5.681   4.014 -0.0118  0.5149 -0.3301
   22MOL   C19510317   3.255   5.602   4.131  0.3544  0.0811  0.5072
   22MOL   C19610318   3.154   5.578   4.230  0.4641 -0.2543 -1.1474
   22MOL   C19710319   3.026   5.636   4.220  0.3115  0.7378  0.2684
   22MOL   C19810320   2.999   5.713   4.101  0.3591 -1.0778  0.0984
   22MOL   C19910321   3.098   5.735   4.003  0.2612 -0.3511  0.0469
   22MOL   S20010322   3.184   5.463   4.367 -0.0176  0.0023 -0.2807
   22MOL   O20110323   3.193   5.327   4.306 -0.8429 -0.1675  0.2774
   22MOL   O20210324   3.100   5.492   4.485  0.4287  0.0109 -0.1993
   22MOL   C20310325   3.349   5.516   4.427  0.4324 -1.1396 -0.0882
   22MOL   C20410326   3.468   5.459   4.386 -0.5014 -0.3318  0.6814
   22MOL   C20510327   3.593   5.506   4.431 -0.4190 -0.3482 -0.7627
   22MOL   C20610328   3.602   5.613   4.525 -0.0368 -0.4658  0.3908
   22MOL   C20710329   3.482   5.673   4.569 -0.4062 -0.0047  0.3670
   22MOL   C20810330   3.362   5.630   4.516  0.2840  0.1265 -0.0571
   22MOL   O20910331   3.722   5.664   4.578 -0.1088  0.2013  1.1819
   22MOL   H21010332   3.300   5.700   3.940 -0.9727  0.0466 -1.4336
   22MOL   H21110333   3.354   5.568   4.154  1.2792  0.7865 -2.2372
   22MOL   H21210334   2.951   5.623   4.296 -0.0229 -0.1886 -0.2106
   22MOL   H21310335   2.905   5.767   4.091  2.6566  2.8987 -1.2414
   22MOL   H21410336   3.463   5.379   4.314 -1.8207 -0.4686  0.9123
   22MOL   H21510337   3.681   5.449   4.403  0.8403  0.3704  1.6179
   22MOL   H21610338   3.486   5.757   4.638 -0.9314 -0.4168  0.9138
   22MOL   H21710339   3.277   5.683   4.557 -0.6678 -2.5153  1.4835
   22MOL   C21810340   3.745   5.812   4.382 -0.5379 -0.1368 -0.1495
   22MOL   C21910341   3.829   5.871   4.285  0.2160  0.0784 -0.8068
   22MOL   C22010342   3.966   5.846   4.284 -0.1848 -0.4695  0.2075
   22MOL   C22110343   4.016   5.764   4.384 -0.0939 -0.0061 -0.2201
   22MOL   C22210344   3.934   5.712   4.490 -0.2431 -0.1786 -1.0811
   22MOL   C22310345   3.798   5.726   4.480  0.1716 -0.1329 -0.3468
   22MOL   S22410346   4.062   5.916   4.151  0.4520  0.3327  0.0292
   22MOL   O22510347   3.977   5.997   4.058  0.1134  0.2789 -0.4612
   22MOL   O22610348   4.136   5.801   4.097  0.2654 -0.1156  0.7647
   22MOL   C22710349   4.187   6.027   4.233 -0.5730 -1.0259  0.0672
   22MOL   C22810350   4.143   6.146   4.295 -0.0375  0.2640 -0.1975
   22MOL   C22910351   4.233   6.232   4.355  0.1497  0.6842 -0.7489
   22MOL   C23010352   4.370   6.201   4.352  0.2838  0.1239  0.4501
   22MOL   C23110353   4.419   6.079   4.295 -0.1918 -0.6112 -0.2803
   22MOL   C23210354   4.324   5.991   4.240  0.0436 -0.1749  0.1928
   22MOL   O23310355   4.457   6.288   4.419  0.5791 -0.9589 -0.3986
   22MOL   H23410356   3.640   5.837   4.383 -0.6334 -0.5534  2.0736
   22MOL   H23510357   3.782   5.936   4.212 -0.0552  0.9738  0.1505
   22MOL   H23610358   4.124   5.756   4.389 -0.1369 -0.3911  0.2123
   22MOL   H23710359   3.978   5.663   4.575 -0.2062  1.1366 -0.3221
   22MOL   H23810360   4.037   6.155   4.312 -0.3915 -0.0315 -2.0858
   22MOL   H23910361   4.204   6.314   4.418  0.8448  1.4065 -1.3684
   22MOL   H24010362   4.525   6.058   4.295  0.1558  1.0589 -0.8278
   22MOL   H24110363   4.341   5.899   4.187  0.9532 -0.5821  1.1703
   22MOL   C24210364   4.452   6.165   4.631 -0.7870  0.8147 -0.0816
   22MOL   C24310365   4.524   6.130   4.747 -0.5968  0.0958 -0.0157
   22MOL   C24410366   4.660   6.159   4.758 -0.4683  0.0525 -0.0269
   22MOL   C24510367   4.733   6.218   4.653  0.0286 -0.2815  0.2757
   22MOL   C24610368   4.662   6.254   4.538 -0.1258  0.0696 -0.4265
   22MOL   C24710369   4.522   6.234   4.527 -0.2723  0.4992  0.6012
   22MOL   S24810370   4.749   6.119   4.908 -0.1042 -0.0673  0.0559
   22MOL   O24910371   4.881   6.067   4.870 -0.3839 -0.3049 -0.0752
   22MOL   O25010372   4.664   6.036   4.995  0.2789 -0.2946 -0.4049
   22MOL   C25110373   4.762   6.272   4.998 -0.6091 -0.2982  0.4178
   22MOL   C25210374   4.860   6.283   5.102 -0.4520  0.1911  0.3229
   22MOL   C25310375   4.872   6.408   5.170 -0.1591  0.5089  0.1574
   22MOL   C25410376   4.793   6.522   5.134 -0.5180 -0.0586 -0.4541
   22MOL   C25510377   4.699   6.508   5.035 -0.3765 -0.3285 -0.1849
   22MOL   C25610378   4.683   6.382   4.962  0.4679  0.1864  0.1375
   22MOL   O25710379   4.819   6.642   5.196 -0.0470 -0.0897 -0.0114
   22MOL   H25810380   4.345   6.149   4.631 -0.8108  0.9645 -0.8451
   22MOL   H25910381   4.475   6.079   4.829  1.6369 -0.1281  1.2208
   22MOL   H26010382   4.840   6.232   4.643  0.2447 -1.9000  0.3029
   22MOL   H26110383   4.715   6.300   4.457  0.4966 -0.6472 -0.4292
   22MOL   H26210384   4.918   6.195   5.125  1.4384  1.0624 -1.0970
   22MOL   H26310385   4.949   6.408   5.246  0.1920  0.6747 -0.1968
   22MOL   H26410386   4.638   6.588   4.994  1.1425  1.7995  1.5578
   22MOL   H26510387   4.606   6.387   4.886 -0.0403 -0.4274  0.6130
   22MOL   C26610388   4.638   6.794   5.264 -0.1115  0.5806  0.2271
   22MOL   C26710389   4.552   6.899   5.235 -0.2054  0.4473  0.0262
   22MOL   C26810390   4.573   6.971   5.118 -0.3720 -0.3741  0.6585
   22MOL   C26910391   4.676   6.947   5.030 -0.7995 -0.2900 -0.3137
   22MOL   C27010392   4.764   6.842   5.061  0.2679 -1.0985 -0.9764
   22MOL   C27110393   4.743   6.759   5.175 -0.4517  0.6342  0.2095
   22MOL   S27210394   4.456   7.103   5.091 -0.4569 -0.6940  0.1254
   22MOL   O27310395   4.474   7.151   4.953 -0.2241  0.2342  0.2436
   22MOL   O27410396   4.471   7.194   5.204 -0.0684  0.0209  0.4739
   22MOL   C27510397   4.284   7.039   5.090 -0.1129 -0.7743 -0.5725
   22MOL   C27610398   4.235   6.948   4.996  0.0734 -0.4898 -0.0138
   22MOL   C27710399   4.119   6.876   5.012  0.5730  0.2007 -0.0383
   22MOL   C27810400   4.036   6.895   5.127  0.1078  0.8219  0.0375
   22MOL   C27910401   4.079   6.992   5.228  0.4744  0.2978  0.4913
   22MOL   C28010402   4.203   7.061   5.210 -0.6802  0.6612  0.4766
   22MOL   O28110403   3.925   6.812   5.135 -0.4009  0.6631  0.7768
   22MOL   H28210404   4.628   6.740   5.356 -2.6188  2.5018  1.1379
   22MOL   H28310405   4.470   6.929   5.298  0.0481 -1.0479  1.1083
   22MOL   H28410406   4.685   7.003   4.938  1.6012  0.4273  0.3250
   22MOL   H28510407   4.842   6.820   4.990  0.7332 -0.2854 -0.7211
   22MOL   H28610408   4.305   6.926   4.916  0.5107  2.6005 -0.5684
   22MOL   H28710409   4.092   6.803   4.937  0.6890  0.7733 -0.6338
   22MOL   H28810410   4.026   7.001   5.322  0.7008  0.8749  0.5663
   22MOL   H28910411   4.239   7.118   5.295  0.0520  0.7689  0.0962
   22MOL   C29010412   3.770   6.994   5.080  0.0416 -0.7324  0.1291
   22MOL   C29110413   3.646   7.055   5.103 -0.0023 -0.4726 -0.2647
   22MOL   C29210414   3.564   7.011   5.206 -0.8995  0.0915  0.6013
   22MOL   C29310415   3.606   6.902   5.288 -0.1863  0.1925 -0.0802
   22MOL   C29410416   3.714   6.827   5.251 -0.0573  0.1246 -0.2638
   22MOL   C29510417   3.803   6.879   5.155 -0.1280  0.1245 -0.1023
   22MOL   S29610418   3.409   7.086   5.254  0.4912 -0.1939  0.0521
   22MOL   O29710419   3.303   6.982   5.252 -0.0694  0.2521  0.1476
   22MOL   O29810420   3.395   7.208   5.176  0.5867 -0.4739 -0.1541
   22MOL   C29910421   3.437   7.129   5.427 -0.0998  0.5984  0.3445
   22MOL   C30010422   3.373   7.067   5.539 -0.1245  0.8160  0.3068
   22MOL   C30110423   3.399   7.116   5.673 -0.1720 -0.0014 -0.7072
   22MOL   C30210424   3.480   7.233   5.690  0.1573 -0.2745  0.1163
   22MOL   C30310425   3.541   7.294   5.582  0.2466  0.8254  0.7517
   22MOL   C30410426   3.524   7.240   5.453  0.2140 -0.0587  0.0556
   22MOL   O30510427   3.486   7.286   5.814  0.0918  0.2806 -0.2465
   22MOL   H30610428   3.831   7.050   5.011 -2.1280 -0.4151 -1.6066
   22MOL   H30710429   3.609   7.137   5.044  0.5970 -0.3643 -0.4965
   22MOL   H30810430   3.544   6.866   5.370  1.1605  1.4158  1.5128
   22MOL   H30910431   3.746   6.741   5.308  2.6044  1.3886  0.2384
   22MOL   H31010432   3.313   6.978   5.536  0.5680  0.3518  0.0886
   22MOL   H31110433   3.353   7.058   5.752  0.1544  0.8548  0.1172
   22MOL   H31210434   3.606   7.379   5.595  0.7790  0.4058  0.8583
   22MOL   H31310435   3.579   7.275   5.367  1.1795 -1.1683  0.2103
   22MOL   C31410436   3.530   7.149   6.007  1.1808  0.1075  0.6909
   22MOL   C31510437   3.610   7.106   6.112 -0.8395 -0.8997 -0.3615
   22MOL   C31610438   3.745   7.132   6.102 -0.4556 -0.2509 -0.4044
   22MOL   C31710439   3.801   7.189   5.985 -0.4700  0.6627  0.3484
   22MOL   C31810440   3.718   7.236   5.881 -0.4843  0.7389 -0.6338
   22MOL   C31910441   3.579   7.230   5.899  0.0835  0.1722 -0.4172
   22MOL   S32010442   3.861   7.064   6.218 -0.2444 -0.0087 -0.0558
   22MOL   O32110443   3.899   7.170   6.307  0.6317 -0.0924  0.4846
   22MOL   O32210444   3.965   6.991   6.138 -0.5807 -0.5254  0.1532
   22MOL   C32310445   3.773   6.949   6.321 -0.5361 -0.3449 -0.1780
   22MOL   C32410446   3.691   6.848   6.268  0.3261  0.3496 -0.1033
   22MOL   C32510447   3.611   6.775   6.353 -0.1247 -0.4023 -0.8548
   22MOL   C32610448   3.592   6.815   6.488  0.4169  1.1779  0.5590
   22MOL   C32710449   3.666   6.924   6.542 -0.1614  0.4610 -0.3869
   22MOL   C32810450   3.757   6.988   6.457 -0.3886 -0.1107 -0.0380
   22MOL   O32910451   3.514   6.731   6.568 -0.0565 -0.3385 -0.0526
   22MOL   H33010452   3.424   7.149   6.027  1.0176 -0.7084 -0.1425
   22MOL   H33110453   3.562   7.053   6.193 -0.5807  0.4582  0.7002
   22MOL   H33210454   3.908   7.204   5.979 -0.5527  0.5765 -1.9060
   22MOL   H33310455   3.763   7.290   5.799 -0.9952  1.5290 -0.4074
   22MOL   H33410456   3.674   6.827   6.164 -0.4077 -1.5466  0.3856
   22MOL   H33510457   3.557   6.692   6.309 -0.0395 -1.1138  0.3313
   22MOL   H33610458   3.662   6.926   6.650 -0.9030  1.0523 -0.4279
   22MOL   H33710459   3.814   7.068   6.501 -1.1641  0.1984  0.4211
   22MOL   C33810460   3.423   6.532   6.496 -0.8799 -0.6494  0.1333
   22MOL   C33910461   3.314   6.458   6.443 -0.2909 -0.7383 -0.3898
   22MOL   C34010462   3.194   6.529   6.413 -0.0366 -0.6449  0.4409
   22MOL   C34110463   3.176   6.667   6.441 -0.4292 -0.4776 -0.2746
   22MOL   C34210464   3.285   6.737   6.494  0.1693 -0.0578  0.3804
   22MOL   C34310465   3.408   6.667   6.518  0.7062 -0.0489 -0.4175
   22MOL   S34410466   3.061   6.427   6.355  0.4639 -0.5185 -0.0821
   22MOL   O34510467   3.017   6.351   6.473  0.3876  0.0966  0.3468
   22MOL   O34610468   3.104   6.362   6.229  0.2563  0.5006  0.0558
   22MOL   C34710469   2.928   6.534   6.308 -0.4919 -0.5994  1.0229
   22MOL   C34810470   2.909   6.581   6.170 -0.1961  0.0383 -0.5805
   22MOL   C34910471   2.787   6.648   6.135  0.2818  0.1137 -0.4760
   22MOL   C35010472   2.698   6.691   6.234  0.3157 -0.2234  0.3619
   22MOL   C35110473   2.719   6.650   6.367 -0.1562  0.1251 -0.4120
   22MOL   C35210474   2.833   6.577   6.400 -0.7686  0.0664 -0.2335
   22MOL   O35310475   2.588   6.769   6.200 -0.6326 -0.4049 -0.0270
   22MOL   H35410476   3.511   6.475   6.520 -2.1162 -1.4528  2.9160
   22MOL   H35510477   3.311   6.350   6.435  0.0013 -0.7759 -0.0246
   22MOL   H35610478   3.081   6.715   6.422 -0.5244 -0.8496 -0.7635
   22MOL   H35710479   3.271   6.843   6.506 -0.5667 -0.6048  4.9865
   22MOL   H35810480   2.978   6.550   6.092 -0.1197 -0.9693 -0.1126
   22MOL   H35910481   2.780   6.681   6.033 -0.8025  2.2371  0.2345
   22MOL   H36010482   2.654   6.698   6.438  1.7394 -0.7936  2.0263
   22MOL   H36110483   2.830   6.564   6.507  0.5336  0.1324 -0.1753
   22MOL   C36210484   2.640   6.948   6.058  0.0445 -0.4785 -0.2036
   22MOL   C36310485   2.677   7.078   6.043  0.0308 -0.3678  0.0171
   22MOL   C36410486   2.686   7.170   6.154  0.3149 -0.0887  0.2142
   22MOL   C36510487   2.652   7.122   6.280 -0.0434  0.4229 -0.1467
   22MOL   C36610488   2.602   6.995   6.292  0.4293  0.3515 -0.1277
   22MOL   C36710489   2.605   6.905   6.182 -0.0842 -0.8267  0.3386
   22MOL   S36810490   2.727   7.340   6.127  0.3353  0.2867 -0.1904
   22MOL   O36910491   2.785   7.370   5.996  0.1258  0.7220  0.5792
   22MOL   O37010492   2.794   7.383   6.254 -0.2642  0.2611  0.8115
   22MOL   C37110493   2.565   7.425   6.123  0.3232 -0.1162 -0.6029
   22MOL   C37210494   2.516   7.491   6.232 -0.1768 -0.0917 -0.1077
   22MOL   C37310495   2.390   7.555   6.232  0.8390 -0.5899 -0.4602
   22MOL   C37410496   2.322   7.585   6.111  0.6336  0.3377 -0.0730
   22MOL   C37510497   2.377   7.528   5.995 -0.0379  0.1784  0.4836
   22MOL   C37610498   2.496   7.452   6.004 -0.5379 -0.3233  0.2754
   22MOL   O37710499   2.210   7.663   6.101 -0.1450 -0.3121 -0.5492
   22MOL   H37810500   2.628   6.887   5.970 -0.7010 -0.1745 -0.3170
   22MOL   H37910501   2.680   7.122   5.944 -1.7692  0.7812  0.4516
   22MOL   H38010502   2.660   7.199   6.355 -3.0092 -0.0680  0.7610
   22MOL   H38110503   2.583   6.947   6.387 -0.8398 -0.3442 -0.7265
   22MOL   H38210504   2.576   7.479   6.321  0.6400  0.8318 -0.5304
   22MOL   H38310505   2.366   7.612   6.321  2.5228 -0.3312 -0.1693
   22MOL   H38410506   2.342   7.559   5.898  0.1231  2.0403  0.9993
   22MOL   H38510507   2.533   7.416   5.910  0.0325 -2.1132  1.1669
   22MOL   C38610508   2.151   7.781   6.303  0.5046  0.4354 -0.0816
   22MOL   C38710509   2.081   7.793   6.426 -0.2549  0.1775  0.3484
   22MOL   C38810510   2.005   7.685   6.468 -0.1305 -0.7318  0.0012
   22MOL   C38910511   1.993   7.575   6.381  0.1018 -1.0510 -1.0389
   22MOL   C39010512   2.050   7.566   6.253  0.2005  0.0889 -0.4031
   22MOL   C39110513   2.138   7.672   6.219  0.2273 -0.3639  0.0110
   22MOL   S39210514   1.920   7.683   6.631  0.6679  0.2190 -0.1415
   22MOL   O39310515   1.874   7.543   6.650 -0.5257  0.6533  0.5940
   22MOL   O39410516   1.824   7.797   6.626 -0.2434 -0.1953  0.3421
   22MOL   C39510517   2.043   7.726   6.760 -0.4272  0.5032  0.0147
   22MOL   C39610518   2.178   7.695   6.738 -0.3604  0.3114  0.2720
   22MOL   C39710519   2.274   7.733   6.831  0.1887 -0.1119  0.3757
   22MOL   C39810520   2.242   7.815   6.941 -0.1267 -0.5455  0.2228
   22MOL   C39910521   2.111   7.854   6.953  0.4515  0.3694  0.2676
   22MOL   C40010522   2.012   7.811   6.865  0.3588  0.0837  0.0616
   22MOL   O40110523   2.343   7.877   7.016 -0.0396  0.2155  0.3417
   22MOL   H40210524   2.211   7.860   6.260  0.0723 -0.7379 -2.9988
   22MOL   H40310525   2.106   7.877   6.490  1.2295  0.1987 -0.2234
   22MOL   H40410526   1.929   7.491   6.405  0.7544 -1.5108 -0.9064
   22MOL   H40510527   2.048   7.480   6.187  2.2270 -0.9023  0.7551
   22MOL   H40610528   2.222   7.641   6.655 -0.3468  1.8776 -0.7491
   22MOL   H40710529   2.372   7.688   6.818 -0.0366 -0.7070  0.7194
   22MOL   H40810530   2.083   7.914   7.039 -2.0522  0.4655 -0.5726
   22MOL   H40910531   1.912   7.847   6.884  0.4242  0.0029  0.5675
   22MOL   C41010532   2.374   7.701   7.182  0.8365 -0.1746 -0.5649
   22MOL   C41110533   2.367   7.655   7.317 -0.4932 -1.0634 -0.4093
   22MOL   C41210534   2.336   7.748   7.417  0.7107 -0.3789 -0.3879
   22MOL   C41310535   2.325   7.886   7.383  0.2583  0.3520 -0.3049
   22MOL   C41410536   2.328   7.928   7.248  0.4335 -0.2407  0.2527
   22MOL   C41510537   2.353   7.838   7.149  0.6209  0.3672 -0.6407
   22MOL   S41610538   2.292   7.688   7.575 -0.3616  0.4982  0.1602
   22MOL   O41710539   2.221   7.794   7.652  0.0064  0.2349  0.1945
   22MOL   O41810540   2.412   7.623   7.634  0.4102 -0.0094  0.0109
   22MOL   C41910541   2.170   7.558   7.548  1.2423 -0.2536 -0.7294
   22MOL   C42010542   2.200   7.427   7.582 -0.6692  0.1574  0.2480
   22MOL   C42110543   2.101   7.328   7.552  0.4531  0.9020 -0.1805
   22MOL   C42210544   1.977   7.352   7.494  0.1795 -0.1410  0.5099
   22MOL   C42310545   1.952   7.482   7.449 -0.2916  0.8145  0.2737
   22MOL   C42410546   2.048   7.583   7.473  0.1451 -0.1566 -0.3421
   22MOL   O42510547   1.880   7.254   7.477 -0.0285 -0.3082  0.5202
   22MOL   H42610548   2.397   7.630   7.105  0.3486 -0.8579 -0.0837
   22MOL   H42710549   2.383   7.551   7.343  1.9445 -1.1672 -2.1144
   22MOL   H42810550   2.313   7.950   7.469 -0.7425  1.4399 -1.2409
   22MOL   H42910551   2.330   8.035   7.235 -1.1987 -0.1881  0.2838
   22MOL   H43010552   2.296   7.404   7.627  0.5910  2.1111 -1.3084
   22MOL   H43110553   2.121   7.227   7.587 -0.3632  1.2953  1.4684
   22MOL   H43210554   1.864   7.491   7.387 -0.0390 -0.2453 -0.2479
   22MOL   H43310555   2.025   7.683   7.441  0.3191 -0.0534 -0.1431
   22MOL   C43410556   1.856   7.032   7.407  0.2507  0.6972 -0.2509
   22MOL   C43510557   1.868   6.930   7.314  0.0501  0.1056 -0.8136
   22MOL   C43610558   1.943   6.954   7.194 -0.4488  0.0805 -0.8775
   22MOL   C43710559   1.986   7.082   7.166  0.0002  0.1318 -0.3584
   22MOL   C43810560   1.956   7.189   7.258  0.1585 -0.4051  0.5687
   22MOL   C43910561   1.903   7.160   7.387  0.4119  0.4863 -0.6419
   22MOL   S44010562   1.994   6.815   7.098 -0.3190  0.3334  0.3284
   22MOL   O44110563   2.002   6.696   7.187 -0.2688  0.1996 -0.2845
   22MOL   O44210564   2.120   6.849   7.031 -0.1153  0.2469 -0.1620
   22MOL   C44310565   1.877   6.782   6.971 -0.2866  0.5513 -0.6661
   22MOL   C44410566   1.921   6.688   6.867  0.1162 -0.3124  0.1899
   22MOL   C44510567   1.829   6.662   6.759 -0.4585 -0.0007 -0.0539
   22MOL   C44610568   1.703   6.725   6.753  0.2022 -0.6761 -1.2986
   22MOL   C44710569   1.666   6.824   6.844  0.4800  0.6711 -0.3947
   22MOL   C44810570   1.750   6.855   6.956 -0.9274  0.2866 -0.9650
   22MOL   O44910571   1.613   6.704   6.651 -0.3126  0.6318 -0.1739
   22MOL   H45010572   1.807   7.002   7.499 -0.7979 -1.2824 -1.4333
   22MOL   H45110573   1.816   6.836   7.328 -1.2615  0.6367 -1.9489
   22MOL   H45210574   2.046   7.090   7.077  1.1869 -1.3475  0.2868
   22MOL   H45310575   1.986   7.290   7.232  2.2004 -1.1561 -0.0612
   22MOL   H45410576   2.011   6.630   6.879  0.4428  0.0881 -0.3114
   22MOL   H45510577   1.866   6.592   6.686  0.3095  0.7793 -0.4193
   22MOL   H45610578   1.579   6.885   6.827  1.1087  2.2982  1.9724
   22MOL   H45710579   1.724   6.930   7.029  2.9000  0.0981  0.6994
   22MOL   C45810580   1.759   6.825   6.479 -0.3163  0.6290 -0.3305
   22MOL   C45910581   1.783   6.866   6.343 -0.4210 -0.0855 -0.0489
   22MOL   C46010582   1.692   6.822   6.245 -0.4045  0.1939  0.2175
   22MOL   C46110583   1.596   6.722   6.268 -0.3855  0.1211 -0.0502
   22MOL   C46210584   1.575   6.686   6.400  0.4987  0.2682 -0.6547
   22MOL   C46310585   1.649   6.742   6.516 -0.1250  0.5574 -0.1963
   22MOL   S46410586   1.708   6.887   6.072  0.0143 -0.0653  0.3156
   22MOL   O46510587   1.779   7.011   6.073 -0.0963 -0.0977 -0.1537
   22MOL   O46610588   1.567   6.891   6.022  0.0939  0.2086  0.1206
   22MOL   C46710589   1.810   6.777   5.977  0.5583  0.5833  1.1137
   22MOL   C46810590   1.736   6.663   5.923  0.1162 -0.1663  0.0830
   22MOL   C46910591   1.800   6.575   5.836  0.3122 -0.0099  0.7986
   22MOL   C47010592   1.928   6.606   5.796  0.2686 -0.3012  0.5714
   22MOL   C47110593   1.998   6.718   5.845 -0.1437 -0.5355  0.0332
   22MOL   C47210594   1.940   6.807   5.932 -0.3115  0.3398  0.3076
   22MOL   O47310595   2.000   6.535   5.701  0.2809 -0.5170  0.8462
   22MOL   H47410596   1.823   6.862   6.558 -0.8695 -1.8213  1.3086
   22MOL   H47510597   1.845   6.947   6.307  1.3756 -2.3737 -2.2364
   22MOL   H47610598   1.529   6.688   6.190 -1.6229  1.2813  0.4912
   22MOL   H47710599   1.508   6.602   6.407 -0.9750  1.5197  0.6071
   22MOL   H47810600   1.641   6.625   5.959  1.6829 -1.1297  3.3668
   22MOL   H47910601   1.760   6.480   5.802  1.2640 -0.5086  1.0669
   22MOL   H48010602   2.095   6.750   5.809  0.2926 -2.2813 -0.3904
   22MOL   H48110603   1.992   6.898   5.960 -1.7381  0.5512  2.4184
   22MOL   H48210604   2.093   6.547   5.710  0.3569 -0.8919  0.5570
   23MOL     C110605   7.640   5.723   2.914 -0.4120  0.0859 -0.2680
   23MOL     C210606   7.700   5.803   2.806  0.5244  0.5170  0.9928
   23MOL     C310607   7.632   5.824   2.686 -0.2923 -0.2916  0.0656
   23MOL     C410608   7.502   5.771   2.675  0.0471 -0.7481 -0.4770
   23MOL     C510609   7.439   5.693   2.775 -0.3519 -0.7811  0.5542
   23MOL     C610610   7.511   5.668   2.896 -0.5239  0.2952  0.3785
   23MOL     S710611   7.683   5.934   2.559 -0.3515  0.2303 -0.1467
   23MOL     O810612   7.638   5.877   2.434 -0.7139 -0.0330 -0.3530
   23MOL     O910613   7.821   5.949   2.586  0.0452 -0.2261 -0.5761
   23MOL    C1010614   7.604   6.087   2.578  0.0907 -0.3482 -0.3441
   23MOL    C1110615   7.664   6.181   2.669 -0.4714 -0.0755 -0.2075
   23MOL    C1210616   7.593   6.302   2.695  0.2352 -0.2436 -0.3801
   23MOL    C1310617   7.476   6.331   2.619  1.1341 -0.2437  0.2707
   23MOL    C1410618   7.428   6.241   2.520 -0.5606 -0.1115 -0.2200
   23MOL    C1510619   7.488   6.120   2.505 -0.3712 -0.4321 -0.3395
   23MOL    O1610620   7.413   6.451   2.637 -0.3277  0.0792 -0.2472
   23MOL    H1710621   7.681   5.713   3.014 -1.6480  2.1155  0.4785
   23MOL    H1810622   7.797   5.849   2.822 -0.1603  2.3015  0.0517
   23MOL    H1910623   7.444   5.790   2.586 -0.0218 -0.1142 -0.2989
   23MOL    H2010624   7.349   5.634   2.767 -0.6587 -0.2504  0.0035
   23MOL    H2110625   7.758   6.145   2.710  0.5692  1.6580 -1.0468
   23MOL    H2210626   7.633   6.370   2.769 -0.1067 -0.3017 -0.1387
   23MOL    H2310627   7.344   6.259   2.454  0.9299  0.8426 -1.9091
   23MOL    H2410628   7.449   6.040   2.444 -0.3652 -0.4367 -0.3370
   23MOL    H2510629   7.474   5.599   2.970  2.3914 -0.4477  1.2087
   23MOL    C2610630   7.303   6.365   2.838  0.7454  0.7267 -0.2685
   23MOL    C2710631   7.198   6.367   2.928  0.4170 -0.0117  0.3005
   23MOL    C2810632   7.108   6.474   2.920 -0.2293  0.2639  0.6895
   23MOL    C2910633   7.108   6.566   2.815 -0.4962  0.3041 -0.9422
   23MOL    C3010634   7.213   6.557   2.721  0.1260  0.5600  0.2015
   23MOL    C3110635   7.314   6.455   2.735  0.2715 -0.3713 -0.2129
   23MOL    S3210636   6.988   6.498   3.046  0.3520 -0.1700  0.5870
   23MOL    O3310637   6.971   6.369   3.113 -0.5245 -0.2106 -0.2196
   23MOL    O3410638   6.863   6.557   2.987 -0.2378  0.2987  0.3324
   23MOL    C3510639   7.066   6.621   3.154 -0.2192  0.0970 -0.1846
   23MOL    C3610640   7.130   6.584   3.274  0.3832 -0.1050 -0.1066
   23MOL    C3710641   7.182   6.672   3.365 -0.2971 -0.0018 -0.3962
   23MOL    C3810642   7.158   6.808   3.346 -0.2221 -0.0269 -0.4724
   23MOL    C3910643   7.105   6.853   3.225  0.3815 -0.2347  0.1986
   23MOL    C4010644   7.056   6.758   3.127 -0.1498  0.3812 -0.4160
   23MOL    O4110645   7.190   6.891   3.449  0.2811 -0.6448  0.2692
   23MOL    H4210646   7.376   6.286   2.850  0.8556  0.9843  0.8617
   23MOL    H4310647   7.191   6.293   3.006 -0.7656 -2.3447 -1.9621
   23MOL    H4410648   7.032   6.643   2.809 -0.4481  0.3257 -1.2626
   23MOL    H4510649   7.224   6.625   2.639 -0.2632  2.1391  1.4398
   23MOL    H4610650   7.126   6.476   3.287  0.6089 -0.0710  0.2794
   23MOL    H4710651   7.215   6.632   3.459  1.7868  0.4430 -0.9112
   23MOL    H4810652   7.085   6.958   3.210 -0.1836 -0.4287 -0.4472
   23MOL    H4910653   7.012   6.775   3.030 -2.2460  0.1654  0.4722
   23MOL    C5010654   7.035   6.840   3.619  0.1715 -0.3893 -0.0486
   23MOL    C5110655   6.923   6.883   3.697 -0.1264  0.7354  0.4991
   23MOL    C5210656   6.860   7.010   3.668  0.4641 -0.3566  0.1455
   23MOL    C5310657   6.907   7.092   3.565  0.3653  0.6351  0.2986
   23MOL    C5410658   7.025   7.051   3.495  0.0507  0.2682  0.1041
   23MOL    C5510659   7.083   6.929   3.526  0.0123 -0.1468  0.3297
   23MOL    S5610660   6.725   7.062   3.769  0.2579 -0.3687  0.0868
   23MOL    O5710661   6.670   6.943   3.834 -0.5233  0.4065 -0.6799
   23MOL    O5810662   6.643   7.144   3.676  0.2021 -0.0281 -0.3415
   23MOL    C5910663   6.801   7.173   3.892 -0.4465  0.0549 -0.1459
   23MOL    C6010664   6.788   7.311   3.875  0.6245  0.1871 -0.0564
   23MOL    C6110665   6.847   7.398   3.966  0.3873 -0.3924 -0.1817
   23MOL    C6210666   6.925   7.349   4.071  0.6094 -0.3910  0.4913
   23MOL    C6310667   6.935   7.211   4.091  0.2605  0.2986 -1.0746
   23MOL    C6410668   6.875   7.115   4.000  0.2494  0.0198  0.6650
   23MOL    O6510669   6.985   7.445   4.150 -0.2034  0.4252  0.0117
   23MOL    H6610670   7.079   6.745   3.647  0.5150 -0.0444  0.6025
   23MOL    H6710671   6.886   6.824   3.779 -2.2280 -1.3961 -1.9018
   23MOL    H6810672   6.852   7.183   3.545 -0.3292  0.0568 -0.4604
   23MOL    H6910673   7.067   7.115   3.419 -0.7208  0.0905 -0.4781
   23MOL    H7010674   6.750   7.351   3.782 -0.0264 -0.4918 -0.0858
   23MOL    H7110675   6.832   7.505   3.956 -4.7494 -0.9985 -0.2991
   23MOL    H7210676   6.998   7.169   4.168 -1.0435 -1.3454 -0.8721
   23MOL    H7310677   6.903   7.011   4.005 -1.0100 -0.3805 -0.2977
   23MOL    C7410678   7.215   7.399   4.138 -0.1196  0.0293  0.1083
   23MOL    C7510679   7.337   7.378   4.200 -0.0134 -0.1425 -0.1621
   23MOL    C7610680   7.351   7.385   4.334 -0.8876 -0.4827  0.0492
   23MOL    C7710681   7.237   7.397   4.413 -1.0017 -0.8931 -0.6400
   23MOL    C7810682   7.113   7.426   4.353 -0.4335  0.2050 -0.2952
   23MOL    C7910683   7.100   7.420   4.215 -0.9305  0.1347 -0.1198
   23MOL    S8010684   7.510   7.392   4.415  0.3012 -0.0955  0.1311
   23MOL    O8110685   7.523   7.535   4.461  0.0619  0.2431 -0.4231
   23MOL    O8210686   7.613   7.337   4.324 -0.1957 -0.5232  0.0393
   23MOL    C8310687   7.510   7.282   4.553 -0.4185 -0.0954  0.7451
   23MOL    C8410688   7.588   7.167   4.555  0.3790  0.2273  0.4875
   23MOL    C8510689   7.586   7.085   4.673 -0.5511  0.5645  0.4574
   23MOL    C8610690   7.527   7.138   4.790 -0.5238  0.0362  0.2655
   23MOL    C8710691   7.448   7.255   4.784 -0.2849  0.0929  0.1429
   23MOL    C8810692   7.439   7.330   4.668 -0.3661 -0.2518  0.1438
   23MOL    O8910693   7.528   7.071   4.904  0.3878  0.2730  0.4120
   23MOL    H9010694   7.211   7.391   4.030  0.6603  0.4045  0.0451
   23MOL    H9110695   7.424   7.370   4.137  1.3401  0.7900  1.5590
   23MOL    H9210696   7.242   7.411   4.520 -3.7451  3.3991 -0.9276
   23MOL    H9310697   7.030   7.449   4.418  0.1877 -0.6566  0.8198
   23MOL    H9410698   7.644   7.133   4.469  0.7930 -3.5783  2.1888
   23MOL    H9510699   7.636   6.990   4.680 -0.2574  0.8300  2.1469
   23MOL    H9610700   7.392   7.276   4.874 -2.1190  0.0515 -0.9633
   23MOL    H9710701   7.378   7.419   4.666 -2.2497 -1.4944  0.6105
   23MOL    C9810702   7.374   7.030   5.079 -0.4258 -0.4318  0.1221
   23MOL    C9910703   7.284   6.944   5.145 -0.7078  0.1044 -0.4477
   23MOL   C10010704   7.252   6.825   5.083 -0.7884  0.4421  0.1596
   23MOL   C10110705   7.303   6.787   4.957 -0.3993  0.2736  0.2350
   23MOL   C10210706   7.389   6.875   4.885 -0.1773  0.4544  1.4738
   23MOL   C10310707   7.425   6.997   4.950  0.1793  0.1156  0.6805
   23MOL   S10410708   7.146   6.702   5.167  0.0109  0.0067  0.0407
   23MOL   O10510709   7.238   6.635   5.259  0.3780  0.2712  0.1481
   23MOL   O10610710   7.064   6.627   5.068  0.3733 -0.0765  0.1031
   23MOL   C10710711   7.044   6.798   5.266  0.7096 -0.3615 -0.7543
   23MOL   C10810712   7.076   6.832   5.397  0.5818  0.2261 -0.3516
   23MOL   C10910713   6.987   6.916   5.471 -0.9305 -0.1865  0.3762
   23MOL   C11010714   6.872   6.965   5.417 -0.6118  0.6369 -0.0069
   23MOL   C11110715   6.846   6.931   5.284 -0.3658  0.4709  0.7377
   23MOL   C11210716   6.932   6.846   5.208  0.2929  0.3766  0.7935
   23MOL   O11310717   6.795   7.050   5.489 -0.5622 -0.1905 -0.2222
   23MOL   H11410718   7.406   7.121   5.127 -0.9538 -0.0789 -0.2077
   23MOL   H11510719   7.265   6.965   5.249 -0.0757  1.3473 -0.5613
   23MOL   H11610720   7.266   6.701   4.904 -3.0246  1.5698 -0.1253
   23MOL   H11710721   7.444   6.849   4.795  0.0499 -1.3566  2.1138
   23MOL   H11810722   7.169   6.809   5.447  1.1402  1.3797 -0.8296
   23MOL   H11910723   7.017   6.942   5.571 -2.8821  0.5914  0.7832
   23MOL   H12010724   6.753   6.962   5.238  0.0322  1.3116  0.5078
   23MOL   H12110725   6.915   6.826   5.103  0.3289  1.6090  0.5396
   23MOL   C12210726   6.908   7.260   5.509 -0.6392 -0.5932  0.1396
   23MOL   C12310727   6.924   7.391   5.461  0.1164 -0.2016  0.0312
   23MOL   C12410728   6.827   7.450   5.374  0.5570 -0.8276  0.0666
   23MOL   C12510729   6.727   7.367   5.327  0.4146  0.4626  0.4881
   23MOL   C12610730   6.720   7.233   5.363 -0.1129 -0.2773  0.9174
   23MOL   C12710731   6.808   7.181   5.455  0.1693  0.1662  0.0472
   23MOL   S12810732   6.864   7.611   5.301 -0.1456 -0.1132  0.1197
   23MOL   O12910733   6.980   7.603   5.213  0.1583  0.2442 -0.2545
   23MOL   O13010734   6.869   7.707   5.416  0.1292 -0.8038  0.7703
   23MOL   C13110735   6.724   7.658   5.196  0.1313 -0.3876 -0.0468
   23MOL   C13210736   6.708   7.597   5.071  0.0515 -0.0806  0.0402
   23MOL   C13310737   6.585   7.620   5.007  0.5314 -0.7256  0.3629
   23MOL   C13410738   6.494   7.715   5.055  0.8910  0.4889 -0.1112
   23MOL   C13510739   6.523   7.790   5.173 -1.2545  0.3422 -0.0657
   23MOL   C13610740   6.631   7.750   5.254  0.2200  0.5598  0.2593
   23MOL   O13710741   6.390   7.748   4.978 -0.4128  0.0463  0.1008
   23MOL   H13810742   6.984   7.228   5.579 -0.2513 -1.3138 -0.5921
   23MOL   H13910743   6.999   7.457   5.501 -0.4750 -0.0643  0.9443
   23MOL   H14010744   6.663   7.411   5.253  0.8809 -1.2718 -0.9940
   23MOL   H14110745   6.645   7.172   5.315  1.6394 -1.3009 -0.6411
   23MOL   H14210746   6.781   7.532   5.026  0.6226  0.1759  0.5963
   23MOL   H14310747   6.576   7.563   4.916 -0.7229 -0.0308  0.0449
   23MOL   H14410748   6.455   7.867   5.209  1.8601  2.5081  1.3781
   23MOL   H14510749   6.643   7.804   5.347  2.1054  1.1960 -0.3198
   23MOL   C14610750   6.214   7.906   5.015 -0.2029  0.6965 -0.1963
   23MOL   C14710751   6.164   8.031   5.011  0.0568 -0.2760 -0.0957
   23MOL   C14810752   6.240   8.137   4.977 -0.0131 -0.2813 -0.1638
   23MOL   C14910753   6.375   8.116   4.929 -0.0381 -0.5101  0.2677
   23MOL   C15010754   6.417   7.984   4.919  0.6553  0.1362  0.1581
   23MOL   C15110755   6.340   7.876   4.965 -0.3278  0.1935 -0.9641
   23MOL   S15210756   6.182   8.294   5.033  0.1649  0.1400  0.3804
   23MOL   O15310757   6.038   8.309   5.001  0.4280  0.0204 -0.2346
   23MOL   O15410758   6.276   8.400   4.991  0.4674  0.0590  0.5409
   23MOL   C15510759   6.194   8.291   5.212  0.1629 -0.6516 -0.6138
   23MOL   C15610760   6.124   8.386   5.288  0.3821  0.7995  0.0484
   23MOL   C15710761   6.124   8.377   5.430  0.4636  0.1558 -0.0626
   23MOL   C15810762   6.196   8.269   5.492  0.1304 -0.0681  0.1301
   23MOL   C15910763   6.277   8.185   5.420 -0.6326  0.0998  0.4926
   23MOL   C16010764   6.277   8.195   5.281 -1.1096 -0.4193 -0.5953
   23MOL   O16110765   6.214   8.260   5.629  0.1232  0.1905  0.2607
   23MOL   H16210766   6.152   7.832   5.063 -0.2448  0.8704  0.0169
   23MOL   H16310767   6.060   8.049   5.036  0.7304  2.4883  0.9228
   23MOL   H16410768   6.441   8.200   4.912  3.4195 -3.2021 -0.1486
   23MOL   H16510769   6.519   7.960   4.891 -0.1000 -0.5737 -2.0729
   23MOL   H16610770   6.075   0.043   5.238 -0.0462  1.0252  0.8319
   23MOL   H16710771   6.064   0.024   5.483  0.7478  0.1954  0.2053
   23MOL   H16810772   6.347   8.124   5.476  0.5733 -0.0204 -1.1052
   23MOL   H16910773   6.348   8.143   5.218 -2.6522 -0.8330 -2.0527
   23MOL   C17010774   6.038   8.365   5.766  0.2765  0.2471  0.1674
   23MOL   C17110775   5.920   8.360   5.845  0.3739 -0.2548 -0.0592
   23MOL   C17210776   5.864   8.234   5.868  0.0926 -0.3423 -0.0139
   23MOL   C17310777   5.926   8.117   5.813 -0.4652 -0.0552  0.3749
   23MOL   C17410778   6.041   8.129   5.737  0.0822 -0.3417  0.7265
   23MOL   C17510779   6.099   8.255   5.708 -0.6091  0.4126  0.8405
   23MOL   S17610780   5.728   8.209   5.980 -0.0200 -0.1106 -0.1010
   23MOL   O17710781   5.673   8.079   5.972 -0.0200  0.2964  0.3509
   23MOL   O17810782   5.627   8.313   5.952 -0.2844  0.3905 -0.1626
   23MOL   C17910783   5.780   8.253   6.141  1.2410  0.1517  0.2370
   23MOL   C18010784   5.681   8.234   6.236  0.3540 -0.4533 -0.5266
   23MOL   C18110785   5.697   8.294   6.362  0.5349 -0.1025  0.3975
   23MOL   C18210786   5.809   8.371   6.390  0.6240 -0.6955  0.4181
   23MOL   C18310787   5.909   8.389   6.293 -0.4198  0.4934 -0.3904
   23MOL   C18410788   5.898   8.324   6.167  0.0199 -0.2935  0.0304
   23MOL   O18510789   5.817   0.004   6.513  0.2864 -0.1181  0.2217
   23MOL   H18610790   6.079   0.035   5.732 -1.6724 -0.2105 -3.7007
   23MOL   H18710791   5.875   0.025   5.885 -1.6193 -0.8603 -0.9183
   23MOL   H18810792   5.892   8.019   5.842  1.7502 -1.0100 -0.1196
   23MOL   H18910793   6.088   8.043   5.692  0.4708 -0.8061  1.9988
   23MOL   H19010794   5.596   8.171   6.213  0.3746 -1.4066  1.8973
   23MOL   H19110795   5.623   8.278   6.439  0.0843  1.2251  0.2701
   23MOL   H19210796   5.982   0.037   6.322  1.7875 -1.9352  0.3825
   23MOL   H19310797   5.981   8.325   6.097 -3.1866 -0.6501 -3.9724
   23MOL   C19410798   6.024   0.069   6.613  0.1071 -0.2534  0.4523
   23MOL   C19510799   6.138   0.042   6.693  0.2410  0.2251  0.5797
   23MOL   C19610800   6.167   8.336   6.732 -0.1417  0.1776  0.0405
   23MOL   C19710801   6.077   8.230   6.694  1.0380 -0.1360  0.4375
   23MOL   C19810802   5.954   8.268   6.628 -0.3070 -0.1050 -0.5933
   23MOL   C19910803   5.926   8.397   6.587  0.4209 -0.6848  0.5462
   23MOL   S20010804   6.310   8.284   6.819 -0.1229  0.0585  0.1276
   23MOL   O20110805   6.323   8.138   6.813 -0.3170 -0.4567  1.0095
   23MOL   O20210806   6.319   8.348   6.951 -0.2167  0.5376  0.3549
   23MOL   C20310807   6.437   8.355   6.711  0.4607  0.4072  0.4176
   23MOL   C20410808   6.459   8.298   6.587 -0.1498 -0.5379  0.4695
   23MOL   C20510809   6.561   8.342   6.508 -0.0961 -0.0505  0.8781
   23MOL   C20610810   6.642   0.024   6.549 -0.0734  0.6323  0.2469
   23MOL   C20710811   6.610   0.090   6.667 -0.7750 -0.3466 -0.0892
   23MOL   C20810812   6.505   0.046   6.748 -0.2670 -0.1717 -0.0773
   23MOL   O20910813   6.754   0.048   6.483 -0.6414 -0.0017  0.3847
   23MOL   H21010814   6.022   0.173   6.582 -1.5635 -0.4523 -0.1738
   23MOL   H21110815   6.206   0.123   6.719  1.4810 -1.0153  1.2725
   23MOL   H21210816   6.096   8.125   6.710 -0.2766 -0.3218  0.8791
   23MOL   H21310817   5.890   8.182   6.611  0.9808 -1.2434  0.2775
   23MOL   H21410818   6.417   8.198   6.576 -0.3024 -0.6403  1.7813
   23MOL   H21510819   6.581   8.285   6.419 -0.8809 -1.3052  1.4931
   23MOL   H21610820   6.663   0.179   6.696 -0.7310  0.0970 -1.4869
   23MOL   H21710821   6.487   0.092   6.844 -1.2875 -1.8757  0.5713
   23MOL   C21810822   6.919   0.216   6.471 -0.7107 -0.2803  0.4844
   23MOL   C21910823   6.964   0.346   6.437  0.6069  0.0076  0.0152
   23MOL   C22010824   6.875   0.437   6.374  0.5623 -0.1663 -0.4498
   23MOL   C22110825   6.743   0.395   6.339 -0.6133  0.8538  0.0195
   23MOL   C22210826   6.705   0.264   6.382 -0.5828  0.3587  0.2950
   23MOL   C22310827   6.790   0.175   6.445  1.1063  0.3134 -0.3440
   23MOL   S22410828   6.921   0.598   6.312 -0.7136  0.0807  0.0325
   23MOL   O22510829   6.799   0.681   6.310  0.7616  0.5555 -0.2398
   23MOL   O22610830   6.998   0.581   6.186  0.1818  0.5228 -0.1591
   23MOL   C22710831   7.027   0.660   6.441  0.1339 -0.2896  0.0224
   23MOL   C22810832   7.155   0.700   6.416  0.5872 -0.3164  0.4530
   23MOL   C22910833   7.242   0.742   6.521 -0.1208  0.1810 -0.0710
   23MOL   C23010834   7.203   0.737   6.651  0.1005  0.0696  0.2860
   23MOL   C23110835   7.074   0.698   6.677 -0.1248  0.5052  0.4840
   23MOL   C23210836   6.984   0.666   6.573 -0.8219 -0.5759 -0.1634
   23MOL   O23310837   7.282   0.765   6.760 -0.4472  0.0344  0.3842
   23MOL   H23410838   6.982   0.138   6.509  2.5965  2.1347  0.1649
   23MOL   H23510839   7.064   0.384   6.453  0.9727 -0.9619  0.0605
   23MOL   H23610840   6.678   0.464   6.288  0.4352  3.0170  1.5474
   23MOL   H23710841   6.606   0.227   6.357  0.1248 -1.1239 -0.3766
   23MOL   H23810842   7.189   0.696   6.314 -0.3820  0.9451  0.0781
   23MOL   H23910843   7.342   0.775   6.497 -0.8732  0.6715 -2.7586
   23MOL   H24010844   7.026   0.699   6.773  0.3277  1.5729  0.6991
   23MOL   H24110845   6.884   0.630   6.592 -1.1323  0.8616  1.0149
   23MOL   C24210846   7.409   0.563   6.795 -0.6380  0.1193 -0.3303
   23MOL   C24310847   7.531   0.493   6.796  0.0729 -0.0732  0.4155
   23MOL   C24410848   7.649   0.575   6.765 -0.1991  0.4770 -0.4760
   23MOL   C24510849   7.647   0.714   6.740  0.4850  0.5911  0.0625
   23MOL   C24610850   7.515   0.770   6.724 -0.2554 -0.7170  0.9146
   23MOL   C24710851   7.400   0.699   6.759 -0.7654  0.2039 -0.0821
   23MOL   S24810852   7.800   0.497   6.806 -0.1584 -0.1204 -0.1551
   23MOL   O24910853   7.792   0.456   6.950 -0.2323 -0.1179 -0.5356
   23MOL   O25010854   7.908   0.590   6.767  0.3778 -0.0049  0.0069
   23MOL   C25110855   7.816   0.346   6.701 -0.1217 -0.0542  0.1291
   23MOL   C25210856   7.823   0.219   6.765 -0.2784 -0.1596  0.4404
   23MOL   C25310857   7.851   0.103   6.690 -0.4883  1.5176  0.5663
   23MOL   C25410858   7.852   0.117   6.548 -0.0891  1.0145  0.0393
   23MOL   C25510859   7.836   0.242   6.481 -0.0029  0.4927  0.1408
   23MOL   C25610860   7.823   0.357   6.564 -0.2369  0.2800 -0.2785
   23MOL   O25710861   7.863   8.423   6.476 -0.0661  0.0804 -0.0851
   23MOL   H25810862   7.327   0.503   6.832 -1.7519  1.1658 -1.0949
   23MOL   H25910863   7.548   0.395   6.840  1.5818  0.9304  2.1470
   23MOL   H26010864   7.735   0.775   6.733  1.0664 -0.2642 -0.1167
   23MOL   H26110865   7.516   0.875   6.698  1.8375 -0.4433  1.9889
   23MOL   H26210866   7.816   0.222   6.873  1.1080 -0.4655  0.5454
   23MOL   H26310867   7.869   0.012   6.745 -0.2540  1.8073  0.9677
   23MOL   H26410868   7.854   0.252   6.375 -0.5302 -2.9433 -0.3486
   23MOL   H26510869   7.833   0.453   6.516 -1.7844 -0.6094 -2.4547
   23MOL   C26610870   8.028   8.266   6.567  0.6819 -0.1325 -0.0879
   23MOL   C26710871   8.160   8.233   6.573  0.1008 -0.0298 -0.6284
   23MOL   C26810872   8.256   8.297   6.491 -1.3589  0.2167 -0.4332
   23MOL   C26910873   8.216   8.396   6.395  0.0109  0.6572 -0.7780
   23MOL   C27010874   8.081   0.003   6.383  0.1328  0.2544 -0.1700
   23MOL   C27110875   7.991   8.370   6.470  0.5198  0.3067 -0.2919
   23MOL   S27210876   0.001   8.253   6.505 -0.1799  0.2010  0.1984
   23MOL   O27310877   0.023   8.212   6.644 -0.2536  0.0511  0.3419
   23MOL   O27410878   0.077   8.365   6.452  0.1688  0.2919  0.2324
   23MOL   C27510879   0.011   8.110   6.399 -0.5443  0.8074  0.5233
   23MOL   C27610880   0.131   8.088   6.325  0.0839 -0.1904 -0.1063
   23MOL   C27710881   0.136   7.986   6.233 -1.0050 -0.1594 -0.1269
   23MOL   C27810882   0.031   7.893   6.213  0.1103 -0.3379 -0.1786
   23MOL   C27910883   8.339   7.916   6.282  0.1683 -0.3167  0.4388
   23MOL   C28010884   8.330   8.017   6.382  0.2102  0.2183  0.0232
   23MOL   O28110885   0.030   7.790   6.120 -0.0545  0.2400 -0.3745
   23MOL   H28210886   7.955   8.219   6.630 -1.0634  0.3439 -1.6973
   23MOL   H28310887   8.191   8.161   6.647  1.6593  2.3957  1.1498
   23MOL   H28410888   8.283   0.012   6.322 -0.8384 -1.4067 -2.7675
   23MOL   H28510889   8.055   0.084   6.316 -0.3556  1.0157  0.9097
   23MOL   H28610890   0.213   8.156   6.343  0.7427 -1.4275  1.6632
   23MOL   H28710891   0.236   7.968   6.195 -1.0487 -1.8280  0.5009
   23MOL   H28810892   8.254   7.850   6.273  0.0014 -0.1095  0.4863
   23MOL   H28910893   8.233   8.035   6.427  0.3923 -0.3989  0.6610
   23MOL   C29010894   0.118   7.895   5.920  0.3412 -0.4303 -0.3811
   23MOL   C29110895   0.108   7.917   5.783 -0.5558  0.5434  0.3935
   23MOL   C29210896   8.424   7.863   5.714  0.1247  0.3774  0.2635
   23MOL   C29310897   8.320   7.793   5.776 -0.2794  0.0680  0.1599
   23MOL   C29410898   8.321   7.786   5.919  0.2419  0.2498 -0.5544
   23MOL   C29510899   0.015   7.826   5.989  0.1077  0.1093 -0.8628
   23MOL   S29610900   8.421   7.872   5.529  0.0470  0.3648  0.5745
   23MOL   O29710901   0.069   7.991   5.485 -0.2712 -0.6859  0.5474
   23MOL   O29810902   8.283   7.857   5.483  0.3015 -0.0471 -0.3439
   23MOL   C29910903   0.086   7.726   5.476 -0.3105  0.0954  0.1785
   23MOL   C30010904   0.153   7.737   5.352 -0.7691 -0.5026  0.0540
   23MOL   C30110905   0.235   7.630   5.315 -0.3269 -0.0984  0.0766
   23MOL   C30210906   0.241   7.510   5.382 -0.3538  0.3690  0.2625
   23MOL   C30310907   0.160   7.489   5.493 -0.3850 -0.8223 -0.0185
   23MOL   C30410908   0.088   7.606   5.542  0.4347 -0.1736 -0.6833
   23MOL   O30510909   0.332   7.424   5.322  0.1103  0.0470  0.1367
   23MOL   H30610910   0.215   7.909   5.966  0.6237 -1.5580 -0.6170
   23MOL   H30710911   0.191   7.973   5.741 -0.6783  0.3793 -0.0710
   23MOL   H30810912   8.242   7.748   5.716 -0.5205 -0.1144  0.6117
   23MOL   H30910913   8.255   7.728   5.982  0.7355  0.2082 -0.0788
   23MOL   H31010914   0.153   7.831   5.299  0.1869 -1.0151 -0.8668
   23MOL   H31110915   0.296   7.639   5.226  0.1726 -4.2714 -0.1151
   23MOL   H31210916   0.153   7.397   5.548 -1.3771 -1.7943 -1.7386
   23MOL   H31310917   0.034   7.602   5.635 -0.6119  0.4551 -1.2447
   23MOL   C31410918   0.551   7.510   5.307 -0.4659 -1.0390 -0.4405
   23MOL   C31510919   0.674   7.545   5.373 -0.1829  0.1030 -0.2470
   23MOL   C31610920   0.690   7.508   5.509 -0.0618  0.1406  0.0091
   23MOL   C31710921   0.597   7.428   5.564 -0.2289  0.4195 -0.2611
   23MOL   C31810922   0.484   7.391   5.500 -0.4434  0.7444 -0.2463
   23MOL   C31910923   0.456   7.436   5.374  0.4505  0.4409 -0.8582
   23MOL   S32010924   0.838   7.563   5.593  0.1740 -0.2113 -0.1447
   23MOL   O32110925   0.817   7.586   5.741  0.7221 -0.0753 -0.3907
   23MOL   O32210926   0.878   7.675   5.504 -0.2117  0.0349 -0.1546
   23MOL   C32310927   0.965   7.437   5.585 -0.7297  0.5982  0.0370
   23MOL   C32410928   1.045   7.418   5.697  0.6496 -0.2567 -0.1357
   23MOL   C32510929   1.134   7.309   5.698  0.6877 -0.5204 -0.1024
   23MOL   C32610930   1.146   7.220   5.591 -0.3950 -0.8120 -0.1584
   23MOL   C32710931   1.064   7.238   5.481  0.0247 -0.2764 -0.3394
   23MOL   C32810932   0.975   7.344   5.477  0.3607  0.5255 -0.7613
   23MOL   O32910933   1.231   7.113   5.594 -0.3297 -0.3075  0.3556
   23MOL   H33010934   0.514   7.541   5.210 -0.8944 -0.8812 -0.2303
   23MOL   H33110935   0.750   7.602   5.320 -0.0312  0.9529  0.8553
   23MOL   H33210936   0.618   7.400   5.666 -0.1564  1.0520 -0.0960
   23MOL   H33310937   0.410   7.332   5.552  0.0661  0.3850  0.0607
   23MOL   H33410938   1.040   7.495   5.772 -0.2020  1.6099 -2.0297
   23MOL   H33510939   1.206   7.304   5.778  1.2482  0.7978 -0.5007
   23MOL   H33610940   1.087   7.179   5.393 -0.8527 -0.1072 -0.6855
   23MOL   H33710941   0.912   7.350   5.389 -1.1153 -0.6427  0.2015
   23MOL   C33810942   1.367   7.043   5.414 -0.5806 -0.1999  0.7738
   23MOL   C33910943   1.474   7.065   5.332 -0.1381 -0.2547 -0.2961
   23MOL   C34010944   1.568   7.165   5.356  0.2319 -0.2874 -0.8926
   23MOL   C34110945   1.555   7.245   5.471 -0.1386 -0.6177  0.0860
   23MOL   C34210946   1.443   7.224   5.556 -0.0864 -0.8057 -0.3220
   23MOL   C34310947   1.349   7.125   5.527  0.2716  0.0027  0.0721
   23MOL   S34410948   1.701   7.187   5.235  0.1679 -0.0901 -0.2849
   23MOL   O34510949   1.657   7.144   5.104 -0.0281 -0.3477 -0.2799
   23MOL   O34610950   1.830   7.141   5.285 -0.0258 -0.2404  0.2605
   23MOL   C34710951   1.720   7.374   5.208  0.5024  0.4190  0.3011
   23MOL   C34810952   1.795   7.452   5.299  0.3672  0.1339 -0.7398
   23MOL   C34910953   1.798   7.593   5.283 -0.4786  0.5485  0.3481
   23MOL   C35010954   1.741   7.661   5.174  0.2867  0.3713 -0.4317
   23MOL   C35110955   1.659   7.576   5.087  0.2799 -0.2039 -0.9440
   23MOL   C35210956   1.652   7.439   5.100 -0.3172 -0.7500  0.2462
   23MOL   O35310957   1.746   7.796   5.161  0.2301  0.0575  0.1352
   23MOL   H35410958   1.285   6.976   5.392 -1.2299  0.8762 -0.1606
   23MOL   H35510959   1.468   7.022   5.233  2.9098  1.4352 -1.2964
   23MOL   H35610960   1.614   7.334   5.490  0.5803 -1.5123  2.1221
   23MOL   H35710961   1.419   7.290   5.638  1.0191 -1.1335  0.2825
   23MOL   H35810962   1.844   7.412   5.386 -1.6255  1.1476  0.8871
   23MOL   H35910963   1.855   7.653   5.353  1.4231 -1.8470  0.9159
   23MOL   H36010964   1.609   7.629   5.007  2.0931 -1.5744 -3.0382
   23MOL   H36110965   1.587   7.384   5.033  0.8783 -0.9230 -0.7929
   23MOL   C36210966   1.891   7.980   5.220 -0.0474 -0.4493  0.4245
   23MOL   C36310967   2.012   8.045   5.221 -0.0837 -0.4024  0.5000
   23MOL   C36410968   2.129   7.977   5.170 -0.5989  0.2610  0.7448
   23MOL   C36510969   2.116   7.844   5.121 -0.5041 -0.2627  0.3080
   23MOL   C36610970   1.985   7.786   5.109 -0.1436 -0.6257 -0.2450
   23MOL   C36710971   1.874   7.853   5.163  0.5621  0.1224 -0.4445
   23MOL   S36810972   2.281   8.052   5.167 -0.1124  0.0680  0.4797
   23MOL   O36910973   2.295   8.108   5.299  0.1327  0.6442  0.1336
   23MOL   O37010974   2.287   8.132   5.041  0.1768  0.2523 -0.4697
   23MOL   C37110975   2.410   7.923   5.154  0.5803  0.0967 -0.0779
   23MOL   C37210976   2.475   7.874   5.269  0.1376  0.2125  0.0147
   23MOL   C37310977   2.578   7.777   5.256 -0.6479  0.3969  0.2431
   23MOL   C37410978   2.617   7.718   5.133 -0.8118 -0.5092 -0.2321
   23MOL   C37510979   2.552   7.772   5.024 -1.0032 -0.0605 -0.0435
   23MOL   C37610980   2.456   7.876   5.029  0.3383  0.3673 -0.0367
   23MOL   O37710981   2.702   7.614   5.131 -0.0186  0.2012  0.7022
   23MOL   H37810982   1.799   8.024   5.256  0.0891  1.7582 -1.7895
   23MOL   H37910983   2.011   8.147   5.256 -1.8848 -0.2325 -0.0041
   23MOL   H38010984   2.201   7.795   5.077 -0.8009  1.6634 -2.5435
   23MOL   H38110985   1.970   7.695   5.053 -0.1467 -0.0262 -1.2310
   23MOL   H38210986   2.444   7.906   5.367 -0.8132  0.3106 -0.3136
   23MOL   H38310987   2.612   7.739   5.352  0.3699  2.0394  0.5655
   23MOL   H38410988   2.583   7.737   4.926  0.2645 -1.2156  0.7490
   23MOL   H38510989   2.405   7.905   4.938  1.0592  0.5168 -0.3989
   23MOL   C38610990   2.880   7.712   5.002  0.8368 -0.6130 -0.2369
   23MOL   C38710991   2.983   7.691   4.910 -0.2495  0.1739 -0.8862
   23MOL   C38810992   3.011   7.567   4.848 -0.0739 -0.3363 -0.6683
   23MOL   C38910993   2.928   7.453   4.883  0.4906  0.6445  0.4813
   23MOL   C39010994   2.825   7.474   4.974 -0.1483  0.3770 -0.3893
   23MOL   C39110995   2.797   7.604   5.030 -0.9085  1.0991 -0.1166
   23MOL   S39210996   3.127   7.559   4.713  0.0578  0.0047 -0.4275
   23MOL   O39310997   3.214   7.442   4.730 -0.6453 -0.1944  0.1283
   23MOL   O39410998   3.193   7.689   4.700  0.5782 -0.0226  0.4178
   23MOL   C39510999   3.029   7.525   4.572  1.1343 -0.1435  0.1229
   23MOL   C39611000   2.951   7.622   4.505 -0.4879 -0.8184 -0.4390
   23MOL   C39711001   2.879   7.593   4.386  0.1997 -0.1826 -0.4547
   23MOL   C39811002   2.875   7.460   4.340 -0.6036  0.0869 -0.4515
   23MOL   C39911003   2.940   7.356   4.411  0.2180 -0.3437  0.2813
   23MOL   C40011004   3.022   7.391   4.521 -0.2326 -0.3337 -0.0359
   23MOL   O40111005   2.801   7.444   4.230 -0.0338 -0.4999  0.0045
   23MOL   H40211006   2.861   7.804   5.055  1.7368  0.4264 -1.6953
   23MOL   H40311007   3.053   7.771   4.889 -0.2407  0.4566  0.1837
   23MOL   H40411008   2.957   7.354   4.852 -0.6381  0.3715  0.3044
   23MOL   H40511009   2.759   7.393   5.001  0.2971  0.2471  0.3232
   23MOL   H40611010   2.957   7.728   4.525 -1.4638 -0.6050 -1.2351
   23MOL   H40711011   2.831   7.665   4.321  1.3005  1.8404  0.9070
   23MOL   H40811012   2.934   7.253   4.379 -2.5935  0.5485 -2.2878
   23MOL   H40911013   3.087   7.316   4.564  1.5519  0.8170 -0.6814
   23MOL   C41011014   2.724   7.255   4.112 -0.4383 -0.2022 -0.5660
   23MOL   C41111015   2.742   7.168   4.005  0.1953 -0.3678  0.2145
   23MOL   C41211016   2.859   7.169   3.927 -0.3480  0.4654 -0.4024
   23MOL   C41311017   2.966   7.247   3.961  0.8020 -0.4840 -0.0772
   23MOL   C41411018   2.951   7.338   4.072 -0.5850  1.0886  0.3037
   23MOL   C41511019   2.831   7.345   4.143 -0.0029  0.3397 -0.2939
   23MOL   S41611020   2.865   7.052   3.784  0.1256 -0.2785 -0.0863
   23MOL   O41711021   2.837   6.912   3.816 -0.1744 -0.3774 -0.5011
   23MOL   O41811022   2.994   7.077   3.711  0.2961  0.5858 -0.1680
   23MOL   C41911023   2.723   7.116   3.691  0.3572 -0.4036  0.0260
   23MOL   C42011024   2.731   7.245   3.632 -0.0217 -0.1891  0.0295
   23MOL   C42111025   2.621   7.280   3.553  0.0927  0.1367  0.2032
   23MOL   C42211026   2.510   7.195   3.534  0.7207  0.4031  0.3644
   23MOL   C42311027   2.499   7.077   3.598 -0.1990  0.4069 -0.2721
   23MOL   C42411028   2.606   7.035   3.679 -0.3322 -0.4889 -0.2725
   23MOL   O42511029   2.407   7.245   3.459  0.4817 -0.2905  0.0834
   23MOL   H42611030   2.625   7.265   4.155 -0.3871  0.9215 -0.6764
   23MOL   H42711031   2.661   7.104   3.974  1.0448 -0.8910 -1.0129
   23MOL   H42811032   3.057   7.235   3.905  0.5283 -0.8365 -0.4444
   23MOL   H42911033   3.031   7.406   4.094  0.5613 -0.0163 -0.3776
   23MOL   H43011034   2.815   7.311   3.650  0.2282  0.0028 -1.8033
   23MOL   H43111035   2.622   7.377   3.506  2.9978  0.5061  0.8816
   23MOL   H43211036   2.408   7.019   3.587 -0.7133  1.3002 -0.7776
   23MOL   H43311037   2.593   6.938   3.724  1.1244 -1.2933 -1.5740
   23MOL   C43411038   2.455   7.374   3.265 -0.3880  0.0254  0.6938
   23MOL   C43511039   2.484   7.387   3.122 -0.3537 -0.3331 -0.3489
   23MOL   C43611040   2.497   7.264   3.049  0.2250  0.3038 -0.1651
   23MOL   C43711041   2.465   7.141   3.105 -0.6160  0.3161  0.0842
   23MOL   C43811042   2.434   7.138   3.245  0.3209 -0.2231  0.2059
   23MOL   C43911043   2.429   7.248   3.322  0.4798 -0.6414  0.0841
   23MOL   S44011044   2.552   7.262   2.875  0.0931  0.0325  0.0993
   23MOL   O44111045   2.624   7.137   2.863  0.0836 -0.2351  0.0366
   23MOL   O44211046   2.624   7.390   2.842 -0.7593 -0.6673  0.6153
   23MOL   C44311047   2.407   7.252   2.774  0.2971 -0.2340 -0.1724
   23MOL   C44411048   2.290   7.176   2.819 -0.2674 -0.3238  0.6654
   23MOL   C44511049   2.175   7.182   2.735 -1.2535 -0.0390  0.4019
   23MOL   C44611050   2.175   7.255   2.616  0.1730 -0.0298 -0.2761
   23MOL   C44711051   2.285   7.332   2.577 -0.0590  0.3683 -0.2226
   23MOL   C44811052   2.404   7.327   2.655 -0.1391  0.4577 -0.0247
   23MOL   O44911053   2.051   7.279   2.560 -0.5898  0.3943 -0.1848
   23MOL   H45011054   2.434   7.468   3.315 -2.1613 -0.2457  0.4998
   23MOL   H45111055   2.502   7.481   3.072  0.6574 -0.3767 -0.0798
   23MOL   H45211056   2.476   7.057   3.038 -1.5480  0.8183 -0.7131
   23MOL   H45311057   2.409   7.047   3.296 -1.9921  0.1902 -0.1052
   23MOL   H45411058   2.294   7.121   2.911  0.4784  2.0426  2.0810
   23MOL   H45511059   2.086   7.125   2.754 -0.6736 -0.6644  1.3131
   23MOL   H45611060   2.275   7.388   2.485 -0.5626 -1.4182 -1.2823
   23MOL   H45711061   2.487   7.390   2.627 -0.5772  1.7278  1.4444
   23MOL   C45811062   1.856   7.162   2.469 -0.7113 -0.1611  0.7389
   23MOL   C45911063   1.798   7.084   2.370  0.8399 -0.3687 -0.1220
   23MOL   C46011064   1.884   7.017   2.278 -0.2207  0.0598  0.5084
   23MOL   C46111065   2.024   7.018   2.298 -0.6947 -0.3040 -0.3425
   23MOL   C46211066   2.081   7.099   2.398  0.1507  0.0314  0.0944
   23MOL   C46311067   1.996   7.180   2.481 -0.1972 -0.6655  0.0789
   23MOL   S46411068   1.820   6.929   2.134 -0.0796 -0.0067  0.2782
   23MOL   O46511069   1.697   6.851   2.168  0.4316  0.1800  0.2371
   23MOL   O46611070   1.936   6.863   2.072 -0.7710  0.7098  0.6103
   23MOL   C46711071   1.777   7.061   2.023 -0.3104 -0.6538 -0.8529
   23MOL   C46811072   1.660   7.067   1.948  0.1860 -0.1354 -0.7319
   23MOL   C46911073   1.641   7.171   1.857  0.1678 -0.1719 -0.3780
   23MOL   C47011074   1.739   7.267   1.832 -0.0813  0.4075 -0.4538
   23MOL   C47111075   1.855   7.265   1.912 -0.6230 -0.3389 -0.7372
   23MOL   C47211076   1.873   7.162   2.000 -0.7059 -0.0422 -0.1884
   23MOL   O47311077   1.718   7.370   1.742 -0.9703  0.8902 -0.2917
   23MOL   H47411078   1.807   7.235   2.531  0.2326  2.3223 -1.3255
   23MOL   H47511079   1.693   7.091   2.349  0.6317  1.9746  1.4634
   23MOL   H47611080   2.098   6.960   2.244  0.3408  0.8655 -0.2180
   23MOL   H47711081   2.189   7.107   2.398  0.2745 -1.3215  1.6530
   23MOL   H47811082   1.589   6.988   1.968  0.3219 -0.0611  0.0904
   23MOL   H47911083   1.553   7.170   1.795  0.8218 -0.4718 -1.3194
   23MOL   H48011084   1.933   7.339   1.902 -0.9329  0.1664  0.5277
   23MOL   H48111085   1.957   7.166   2.068 -1.0982 -3.2026  0.5428
   23MOL   H48211086   1.637   7.377   1.693 -0.0180 -0.0021 -2.0606
   24MOL     C111087   0.822   5.361   1.391  0.2183 -0.1803 -0.2895
   24MOL     C211088   0.916   5.264   1.358  0.6313 -0.2398 -0.5680
   24MOL     C311089   0.878   5.143   1.297 -0.3193  0.4342  0.3517
   24MOL     C411090   0.737   5.115   1.271 -0.0877  0.6731 -0.1881
   24MOL     C511091   0.645   5.212   1.311 -0.2839 -0.6036  0.2594
   24MOL     C611092   0.682   5.336   1.367  0.3570  1.3866  0.1140
   24MOL     S711093   0.994   5.016   1.264 -0.0090  0.4147 -0.1764
   24MOL     O811094   0.935   4.885   1.293  0.2210 -0.2999  0.0403
   24MOL     O911095   1.115   5.040   1.330 -0.2053  0.1765  0.1230
   24MOL    C1011096   1.017   5.010   1.081 -0.1165 -0.8997  0.3593
   24MOL    C1111097   1.055   4.888   1.023 -0.3112  0.5894  0.5038
   24MOL    C1211098   1.087   4.877   0.885  0.9278  0.1134 -0.1449
   24MOL    C1311099   1.060   4.992   0.807 -0.3786 -0.7303  0.8815
   24MOL    C1411100   1.025   5.113   0.863  0.6475 -0.5957 -0.5633
   24MOL    C1511101   1.006   5.127   1.000 -0.0306 -0.5994 -0.4206
   24MOL    O1611102   1.102   4.984   0.678 -0.0002  0.1087  0.3745
   24MOL    H1711103   0.851   5.453   1.439 -1.3726 -1.5635  3.5501
   24MOL    H1811104   1.019   5.283   1.384  0.4629  0.3866 -0.3606
   24MOL    H1911105   0.701   5.023   1.228 -1.2345 -0.7476  3.6126
   24MOL    H2011106   0.544   5.183   1.287 -1.2161  1.3163  1.7630
   24MOL    H2111107   1.078   4.798   1.079  0.8696  0.5579 -0.0059
   24MOL    H2211108   1.132   4.793   0.833  0.7223 -0.0186 -0.1142
   24MOL    H2311109   1.027   5.193   0.791 -0.1605  0.5476  0.6563
   24MOL    H2411110   0.971   5.221   1.041 -1.4808 -1.2022 -0.2639
   24MOL    H2511111   0.612   5.411   1.402 -0.0363  0.0101  2.3509
   24MOL    C2611112   0.885   5.008   0.569 -0.2357  0.3284 -0.1925
   24MOL    C2711113   0.811   4.981   0.454  0.0946 -0.7082  0.2487
   24MOL    C2811114   0.870   4.907   0.347  0.5496  0.7310 -0.2687
   24MOL    C2911115   0.996   4.849   0.359  0.7690  0.7410  0.0793
   24MOL    C3011116   1.069   4.877   0.475  0.3154  0.1736  0.7132
   24MOL    C3111117   1.014   4.956   0.575 -0.7127  0.5365  0.5082
   24MOL    S3211118   0.775   4.878   0.198 -0.0547 -0.0773  0.0394
   24MOL    O3311119   0.797   4.990   0.106  0.4232  0.8208 -0.1450
   24MOL    O3411120   0.640   4.849   0.248  0.3638 -0.8572  0.1568
   24MOL    C3511121   0.838   4.731   0.125 -0.0634  0.4745 -1.0864
   24MOL    C3611122   0.916   4.743   0.010  0.3387  0.6243  0.0012
   24MOL    C3711123   0.992   4.632   8.390 -0.1197 -0.6607  0.4149
   24MOL    C3811124   0.965   4.505   0.027  0.7023 -1.1433  0.7300
   24MOL    C3911125   0.875   4.498   0.134 -0.8402  0.1001 -0.0875
   24MOL    C4011126   0.819   4.615   0.192  0.2022 -0.6459 -0.3260
   24MOL    O4111127   1.046   4.404   8.408 -0.0063  0.3219 -0.1262
   24MOL    H4211128   0.846   5.076   0.643  0.2719 -0.3758  0.7472
   24MOL    H4311129   0.714   5.024   0.432  0.4636  0.0813  0.1552
   24MOL    H4411130   1.050   4.797   0.282  0.8195  0.2840  0.4156
   24MOL    H4511131   1.166   4.832   0.493  0.0568 -0.6917 -0.0438
   24MOL    H4611132   0.920   4.843   8.395  0.1043  0.6082 -0.0666
   24MOL    H4711133   1.059   4.642   8.306 -0.6872  0.9196  0.1269
   24MOL    H4811134   0.840   4.400   0.166  0.4733 -0.5797 -0.7053
   24MOL    H4911135   0.765   4.601   0.284  0.0601 -1.5858 -0.5420
   24MOL    C5011136   1.153   4.216   0.087 -0.4632  0.0607 -0.2040
   24MOL    C5111137   1.226   4.161   0.189 -0.4160  0.1796 -0.7321
   24MOL    C5211138   1.295   4.240   0.280 -0.3296  0.2434  0.0039
   24MOL    C5311139   1.288   4.377   0.263 -0.4112 -0.4788  0.0492
   24MOL    C5411140   1.208   4.437   0.163  0.6882 -0.0341  0.0184
   24MOL    C5511141   1.138   4.352   0.076  0.0744  0.0735  0.6022
   24MOL    S5611142   1.406   4.174   0.402  0.0530 -0.3955 -0.1061
   24MOL    O5711143   1.331   4.143   0.526 -0.4474  0.8478 -0.1035
   24MOL    O5811144   1.524   4.258   0.416 -0.2666 -0.2402  0.6351
   24MOL    C5911145   1.461   4.004   0.339 -0.5127 -0.0665 -0.5860
   24MOL    C6011146   1.379   3.892   0.361  0.3303 -0.4046  1.0643
   24MOL    C6111147   1.414   3.761   0.304 -0.6424  0.1818 -0.0112
   24MOL    C6211148   1.542   3.756   0.231 -0.1246  0.2571 -0.7145
   24MOL    C6311149   1.631   3.870   0.226  0.5194  0.8661 -0.0911
   24MOL    C6411150   1.586   3.996   0.278 -0.3359 -0.5671 -0.2579
   24MOL    O6511151   1.577   3.641   0.163  0.3827  0.3139 -0.4674
   24MOL    H6611152   1.108   4.159   0.007  1.8210 -0.7465 -0.9327
   24MOL    H6711153   1.236   4.054   0.190  1.9229  0.3746 -0.1578
   24MOL    H6811154   1.342   4.440   0.332 -1.2146  1.6491 -1.2150
   24MOL    H6911155   1.198   4.544   0.150  0.3024 -0.1864 -1.0599
   24MOL    H7011156   1.281   3.901   0.406 -0.8424  1.1473 -1.6662
   24MOL    H7111157   1.345   3.678   0.310  0.8171 -1.0554 -0.0445
   24MOL    H7211158   1.721   3.860   0.168  0.7395  0.7417  0.2760
   24MOL    H7311159   1.637   4.091   0.269 -2.7550  0.9882  2.0999
   24MOL    C7411160   1.706   3.491   0.289 -0.3481 -0.4871 -0.6411
   24MOL    C7511161   1.821   3.410   0.310  0.0664 -1.2537  0.2650
   24MOL    C7611162   1.921   3.420   0.207  0.1455  0.1034 -0.1274
   24MOL    C7711163   1.916   3.507   0.101  0.1644  0.2419  0.1615
   24MOL    C7811164   1.794   3.580   0.076 -1.4932  0.2388 -0.0446
   24MOL    C7911165   1.695   3.579   0.179  0.6476  0.1888  0.3012
   24MOL    S8011166   2.054   3.303   0.213  0.1926 -0.0341 -0.2077
   24MOL    O8111167   2.028   3.208   0.324  0.1634 -0.5801  0.6430
   24MOL    O8211168   2.178   3.378   0.210 -0.1681 -0.8148 -0.3938
   24MOL    C8311169   2.058   3.206   0.057 -0.0254 -0.6587 -0.2777
   24MOL    C8411170   1.948   3.223   8.391 -0.4753  0.2695 -0.7956
   24MOL    C8511171   1.952   3.160   8.268 -0.5370  0.5254  0.1744
   24MOL    C8611172   2.060   3.069   8.244 -0.0447 -0.1749  0.0179
   24MOL    C8711173   2.165   3.057   8.335 -0.4560  0.6504 -0.5841
   24MOL    C8811174   2.172   3.130   0.030 -0.0569 -0.8756  0.1510
   24MOL    O8911175   2.064   2.994   8.134  0.2442  0.0983 -0.1406
   24MOL    H9011176   1.621   3.481   0.354  0.9197 -0.5541  1.0284
   24MOL    H9111177   1.829   3.340   0.391  0.4265  1.6891  2.8697
   24MOL    H9211178   1.998   3.509   0.031 -1.9402 -0.2161 -2.4037
   24MOL    H9311179   1.776   3.637   8.411  1.3254 -2.1202 -2.2099
   24MOL    H9411180   1.865   3.281   0.003  0.4947 -0.0975  2.0453
   24MOL    H9511181   1.871   3.168   8.196 -0.7983 -1.0964  0.2693
   24MOL    H9611182   2.250   2.991   8.321 -2.0659 -1.4466 -0.7808
   24MOL    H9711183   2.255   3.131   0.099  1.1292  2.9983 -1.1991
   24MOL    C9811184   1.892   3.035   7.970  0.8253 -0.1509  1.0798
   24MOL    C9911185   1.765   3.002   7.912  0.5886  0.0405  0.3167
   24MOL   C10011186   1.698   2.890   7.968  0.2882  0.4196 -0.1581
   24MOL   C10111187   1.759   2.806   8.070  0.9990  0.0878 -0.4582
   24MOL   C10211188   1.881   2.842   8.122 -0.1750  0.0443  0.5390
   24MOL   C10311189   1.947   2.958   8.078  0.2567 -0.6300 -0.1080
   24MOL   S10411190   1.536   2.849   7.909  0.4208 -0.4041 -0.3066
   24MOL   O10511191   1.477   2.740   7.990  0.5603  0.0680  0.5725
   24MOL   O10611192   1.544   2.826   7.764 -0.2362 -0.4481  0.5918
   24MOL   C10711193   1.432   2.990   7.922  0.3003 -0.1987  0.3024
   24MOL   C10811194   1.435   3.087   7.824  0.3141 -0.5145 -0.2504
   24MOL   C10911195   1.347   3.197   7.822 -0.1268  0.0678  0.7483
   24MOL   C11011196   1.256   3.224   7.931 -0.4968 -0.0746  0.3601
   24MOL   C11111197   1.257   3.121   8.035 -0.3189 -0.1077  0.1223
   24MOL   C11211198   1.345   3.007   8.030 -0.4850 -0.0761 -0.2821
   24MOL   O11311199   1.164   3.322   7.929  0.8891  0.4779 -0.0999
   24MOL   H11411200   1.949   3.118   7.932 -0.5371 -0.2081 -1.1427
   24MOL   H11511201   1.722   3.057   7.830 -0.0964  0.1435  0.7463
   24MOL   H11611202   1.703   2.725   8.113  0.0127  2.1466  2.3534
   24MOL   H11711203   1.937   2.788   8.197  1.1863 -2.1415 -1.9412
   24MOL   H11811204   1.506   3.065   7.747  1.4068  0.8630  0.3384
   24MOL   H11911205   1.354   3.256   7.732 -2.4085  0.1983  0.6470
   24MOL   H12011206   1.188   3.122   8.117 -1.6755 -0.3799 -1.0038
   24MOL   H12111207   1.360   2.937   8.111  1.2186  2.5606  1.7743
   24MOL   C12211208   1.066   3.513   8.033 -0.2695  0.1052  0.1617
   24MOL   C12311209   1.081   3.650   8.085 -0.1895  0.4598 -0.0368
   24MOL   C12411210   1.212   3.692   8.104 -0.4297 -0.3410 -0.7175
   24MOL   C12511211   1.322   3.618   8.072 -0.0133  0.2406  0.3673
   24MOL   C12611212   1.307   3.493   8.018 -0.1351 -0.6673 -0.1912
   24MOL   C12711213   1.182   3.438   7.993 -0.3899  0.9831  0.1186
   24MOL   S12811214   1.251   3.851   8.183  0.1576 -0.0475 -0.0406
   24MOL   O12911215   1.358   3.832   8.279  0.2391  0.0279  0.0703
   24MOL   O13011216   1.121   3.907   8.229  0.0377 -0.2799 -0.1017
   24MOL   C13111217   1.316   3.959   8.057 -0.1580  0.3022  0.8472
   24MOL   C13211218   1.250   3.977   7.938  0.0812  1.4492  0.5958
   24MOL   C13311219   1.299   4.060   7.835  0.6696  0.2794 -0.6971
   24MOL   C13411220   1.409   4.145   7.863  0.0022  0.4191  0.0185
   24MOL   C13511221   1.477   4.130   7.988 -0.2191  0.6981 -0.2692
   24MOL   C13611222   1.434   4.033   8.084  0.7219  0.5441 -0.6065
   24MOL   O13711223   1.466   4.216   7.759  0.2239 -0.1751  0.1819
   24MOL   H13811224   0.967   3.479   8.005 -1.4121  3.2058  0.2062
   24MOL   H13911225   1.001   3.717   8.114 -1.1826 -0.4576 -0.6223
   24MOL   H14011226   1.420   3.661   8.082 -0.3237  1.8438 -2.7151
   24MOL   H14111227   1.397   3.444   7.987 -0.6248 -1.9054  0.2902
   24MOL   H14211228   1.162   3.919   7.916  1.3738 -0.0840 -0.6313
   24MOL   H14311229   1.252   4.061   7.737 -0.9386 -0.3271  0.0491
   24MOL   H14411230   1.557   4.196   8.019  0.3760 -0.5982  0.9938
   24MOL   H14511231   1.499   4.022   8.169  0.9494  2.6082 -0.4840
   24MOL   C14611232   1.457   4.446   7.812 -0.4604  0.1332  0.2182
   24MOL   C14711233   1.512   4.563   7.864 -0.4674 -0.4922 -0.9866
   24MOL   C14811234   1.650   4.563   7.887  0.6057  0.2170  0.9698
   24MOL   C14911235   1.727   4.449   7.866 -0.5226  0.1984  1.0539
   24MOL   C15011236   1.671   4.329   7.816 -0.7749  0.2461  0.7762
   24MOL   C15111237   1.532   4.330   7.790 -0.8449 -0.5865 -0.8545
   24MOL   S15211238   1.737   4.702   7.943  0.0456 -0.3074 -0.0387
   24MOL   O15311239   1.646   4.813   7.923  0.1021  0.3921  0.2286
   24MOL   O15411240   1.869   4.697   7.877 -0.0024  0.2114 -0.2717
   24MOL   C15511241   1.781   4.703   8.117 -0.5866  0.0958  0.7242
   24MOL   C15611242   1.761   4.825   8.189  0.5540  1.2602 -0.1037
   24MOL   C15711243   1.795   4.822   8.325 -0.5485 -0.3224 -0.2526
   24MOL   C15811244   1.863   4.715   8.386 -0.1045  0.3137  0.3890
   24MOL   C15911245   1.898   4.603   8.311 -0.5099  0.4145  0.0656
   24MOL   C16011246   1.847   4.594   8.180 -0.7431  0.3860 -0.3010
   24MOL   O16111247   1.877   4.718   0.097  0.1184  0.0639  0.2523
   24MOL   H16211248   1.351   4.459   7.799 -0.6957 -0.5055  1.3954
   24MOL   H16311249   1.448   4.646   7.890  0.9177  0.2967 -0.0944
   24MOL   H16411250   1.832   4.438   7.887 -0.0125  1.2153 -0.8663
   24MOL   H16511251   1.733   4.241   7.805  0.4214  0.7605  3.1370
   24MOL   H16611252   1.713   4.907   8.138  1.1969  0.9293 -1.2676
   24MOL   H16711253   1.761   4.897   8.395 -0.0760  0.0241 -0.3882
   24MOL   H16811254   1.951   4.519   8.353  0.8055  0.9081 -0.5847
   24MOL   H16911255   1.874   4.507   8.123 -2.1003 -0.5448  0.4371
   24MOL   C17011256   2.122   4.718   0.142 -0.0662  0.5185  0.3416
   24MOL   C17111257   2.239   4.789   0.191 -0.1134  0.1943 -0.5139
   24MOL   C17211258   2.226   4.917   0.236  0.1724 -0.4627  0.2097
   24MOL   C17311259   2.096   4.981   0.255  0.3177 -0.2739 -0.4325
   24MOL   C17411260   1.980   4.915   0.202  0.4632 -0.5775  0.4687
   24MOL   C17511261   1.992   4.786   0.143  0.2561  0.2337  0.0376
   24MOL   S17611262   2.381   5.011   0.284 -0.4368 -0.1720 -0.5074
   24MOL   O17711263   2.332   5.133   0.350 -0.0833 -0.3645  0.2309
   24MOL   O17811264   2.484   5.019   0.175 -0.1433 -0.1463 -0.0751
   24MOL   C17911265   2.458   4.920   0.415  0.2664 -0.2725 -0.3033
   24MOL   C18011266   2.438   4.959   0.549 -0.0277  0.4983  0.4506
   24MOL   C18111267   2.533   4.919   0.646 -0.6748  0.5893 -0.0004
   24MOL   C18211268   2.631   4.816   0.616 -0.4354 -0.2282 -0.1773
   24MOL   C18311269   2.641   4.770   0.487  0.2772 -0.1086 -0.4590
   24MOL   C18411270   2.555   4.820   0.387  0.3550  0.3344 -0.1326
   24MOL   O18511271   2.731   4.787   0.705 -0.8031 -0.0963 -0.2833
   24MOL   H18611272   2.116   4.619   0.100 -1.3421  1.1520 -1.0171
   24MOL   H18711273   2.339   4.749   0.194 -0.2570 -0.0905  1.2306
   24MOL   H18811274   2.086   5.081   0.295 -1.3234 -0.1556 -1.0687
   24MOL   H18911275   1.891   4.975   0.197 -0.1583 -1.6352 -3.2840
   24MOL   H19011276   2.362   5.031   0.576 -0.5718 -0.6496  2.0863
   24MOL   H19111277   2.514   4.965   0.742 -2.5083 -0.3520  0.0966
   24MOL   H19211278   2.711   4.692   0.463  1.6060  1.1816 -0.8764
   24MOL   H19311279   2.557   4.780   0.287  1.1613  3.5705 -1.4387
   24MOL   C19411280   2.808   5.011   0.746 -0.1500 -0.3912  0.4628
   24MOL   C19511281   2.907   5.095   0.802  0.2770  0.9299 -0.0048
   24MOL   C19611282   3.029   5.043   0.830  0.0167 -0.3740 -0.2695
   24MOL   C19711283   3.060   4.905   0.801 -0.0050 -0.0174  0.0227
   24MOL   C19811284   2.961   4.817   0.753 -0.2075 -0.2271 -0.4522
   24MOL   C19911285   2.833   4.873   0.726 -0.0197  0.4976 -0.7855
   24MOL   S20011286   3.163   5.152   0.870  0.3374 -0.2856 -0.0257
   24MOL   O20111287   3.114   5.283   0.830  0.0222 -0.5345 -0.3249
   24MOL   O20211288   3.289   5.107   0.810 -0.4073  0.1901  0.1644
   24MOL   C20311289   3.165   5.149   1.042  0.8085  0.4692  0.1370
   24MOL   C20411290   3.289   5.139   1.109  0.3463  0.4587  0.1686
   24MOL   C20511291   3.293   5.111   1.244  0.8189  0.9300  0.0212
   24MOL   C20611292   3.173   5.095   1.317  0.0901  1.2053 -0.0982
   24MOL   C20711293   3.045   5.112   1.255 -0.0392 -0.4924  0.2129
   24MOL   C20811294   3.042   5.128   1.113 -0.3249 -0.2526  0.8696
   24MOL   O20911295   3.174   5.061   1.454 -0.1526  0.9387  0.0319
   24MOL   H21011296   2.709   5.046   0.723  1.0799  3.6275  0.9259
   24MOL   H21111297   2.895   5.202   0.801 -0.8591  0.8011 -1.0369
   24MOL   H21211298   3.163   4.873   0.808  0.3516  0.8894 -1.0717
   24MOL   H21311299   2.977   4.710   0.743  0.5166 -0.1350 -0.3231
   24MOL   H21411300   3.382   5.145   1.053  0.1983 -0.2543 -0.1603
   24MOL   H21511301   3.388   5.090   1.289 -0.4825  0.7343  2.7625
   24MOL   H21611302   2.951   5.108   1.309 -0.6657  1.2201 -0.6903
   24MOL   H21711303   2.948   5.120   1.060  0.2421  0.6271 -0.2764
   24MOL   C21811304   3.093   4.831   1.402 -0.1390 -0.2558  0.0826
   24MOL   C21911305   3.002   4.730   1.417  0.0768 -0.3541  0.1535
   24MOL   C22011306   2.905   4.740   1.527  0.5811  0.1088 -0.2987
   24MOL   C22111307   2.907   4.853   1.610 -0.1624 -0.1056 -0.3273
   24MOL   C22211308   3.003   4.956   1.587  0.1393 -0.3619 -0.4380
   24MOL   C22311309   3.099   4.949   1.482  0.4020 -0.2048  0.4296
   24MOL   S22411310   2.793   4.599   1.550  0.3623 -0.2354 -0.0850
   24MOL   O22511311   2.858   4.472   1.499 -0.2277 -0.2427  0.0130
   24MOL   O22611312   2.662   4.641   1.494  0.3805  0.1646  0.9160
   24MOL   C22711313   2.757   4.577   1.723 -0.2811 -0.7464  0.0483
   24MOL   C22811314   2.849   4.501   1.796 -0.2582  0.9245 -0.2541
   24MOL   C22911315   2.825   4.476   1.936 -0.7024  0.1822 -0.1728
   24MOL   C23011316   2.716   4.545   1.993  0.3627  0.4650 -1.1145
   24MOL   C23111317   2.617   4.615   1.923 -0.6231 -0.0311 -0.3678
   24MOL   C23211318   2.640   4.626   1.784 -0.4100 -0.6362 -0.0104
   24MOL   O23311319   2.693   4.535   2.131 -0.2225  0.3856  0.1548
   24MOL   H23411320   3.163   4.822   1.320 -0.8677 -1.7910 -0.3816
   24MOL   H23511321   3.004   4.645   1.351 -1.9258 -1.1966  1.1309
   24MOL   H23611322   2.832   4.856   1.688  0.1316 -3.0196  0.1173
   24MOL   H23711323   2.988   5.039   1.653  0.2786 -0.8148  0.1704
   24MOL   H23811324   2.937   4.458   1.751  0.5274 -0.7518  2.7727
   24MOL   H23911325   2.891   4.407   1.986  0.8086  1.7045 -0.0254
   24MOL   H24011326   2.529   4.665   1.960 -1.0441  0.5706 -2.1192
   24MOL   H24111327   2.568   4.682   1.726  1.1477 -0.6815 -2.0675
   24MOL   C24211328   2.867   4.643   2.263 -0.2921  0.0291 -0.1049
   24MOL   C24311329   2.904   4.751   2.347 -0.4471  0.2301  0.1931
   24MOL   C24411330   2.823   4.861   2.364 -0.1220  0.3784  0.3310
   24MOL   C24511331   2.695   4.860   2.300 -0.1761 -0.2281  0.5364
   24MOL   C24611332   2.654   4.755   2.215 -0.3361 -0.0947  0.5045
   24MOL   C24711333   2.740   4.641   2.206 -0.4962 -0.0106 -0.1469
   24MOL   S24811334   2.873   4.998   2.464  0.0866  0.7955  0.1200
   24MOL   O24911335   2.984   4.949   2.550  1.2510 -0.0052  0.0794
   24MOL   O25011336   2.751   5.052   2.528 -0.4229  0.0249 -0.2500
   24MOL   C25111337   2.945   5.119   2.363 -0.2373  0.3844  0.1433
   24MOL   C25211338   3.057   5.195   2.400 -0.1539  0.7863  0.0739
   24MOL   C25311339   3.122   5.294   2.320 -0.2413 -0.0461 -0.0385
   24MOL   C25411340   3.060   5.319   2.197  0.0596 -0.0268  0.1328
   24MOL   C25511341   2.946   5.245   2.158  0.5801  0.6775  0.4621
   24MOL   C25611342   2.891   5.148   2.241  0.5094 -0.0925  0.5934
   24MOL   O25711343   3.106   5.407   2.106 -0.3626 -0.5370 -0.1719
   24MOL   H25811344   2.936   4.562   2.246 -3.7162 -3.2159  0.8135
   24MOL   H25911345   3.003   4.749   2.392  0.3938 -1.2845 -1.6534
   24MOL   H26011346   2.627   4.943   2.313 -0.1189  0.2211 -1.7595
   24MOL   H26111347   2.557   4.754   2.168 -0.5396  2.0864  0.8483
   24MOL   H26211348   3.108   5.180   2.494  1.2232  0.9933 -0.6287
   24MOL   H26311349   3.205   5.345   2.367 -0.2780 -2.2056  2.5350
   24MOL   H26411350   2.899   5.263   2.063  1.0855  1.7908  0.4124
   24MOL   H26511351   2.814   5.091   2.191 -1.1630  1.0780  1.7970
   24MOL   C26611352   3.333   5.340   2.056  0.2954  0.1191 -0.3763
   24MOL   C26711353   3.424   5.275   1.967  0.0035 -0.2033  0.0347
   24MOL   C26811354   3.379   5.231   1.842 -0.6554 -0.3327  0.0944
   24MOL   C26911355   3.251   5.264   1.796 -0.5234  0.8711  0.1039
   24MOL   C27011356   3.158   5.327   1.885 -0.3008  0.4596 -0.1185
   24MOL   C27111357   3.198   5.353   2.018  0.1201  0.3024 -0.4003
   24MOL   S27211358   3.509   5.151   1.743 -0.1888  0.3198  0.1698
   24MOL   O27311359   3.467   5.011   1.733  0.2926 -0.0783  0.7173
   24MOL   O27411360   3.638   5.178   1.806 -0.5870  0.8178  0.1888
   24MOL   C27511361   3.519   5.210   1.574 -0.6518 -0.2909  0.5671
   24MOL   C27611362   3.614   5.137   1.499 -0.0603 -0.5400 -0.1535
   24MOL   C27711363   3.632   5.168   1.363  0.1580 -0.3540  0.6597
   24MOL   C27811364   3.576   5.284   1.313 -0.6169  0.3521 -0.1101
   24MOL   C27911365   3.489   5.365   1.386 -0.0502 -0.0423  0.0578
   24MOL   C28011366   3.453   5.323   1.520  0.2915 -0.5429  0.1447
   24MOL   O28111367   3.610   5.327   1.188  0.2172 -0.5620 -0.5971
   24MOL   H28211368   3.355   5.376   2.156 -3.4968  0.9122  0.2571
   24MOL   H28311369   3.525   5.255   2.001  0.1887 -0.5436 -0.7262
   24MOL   H28411370   3.218   5.228   1.700  1.4407  0.9941 -0.6256
   24MOL   H28511371   3.056   5.355   1.863  0.6003  2.2608 -2.2204
   24MOL   H28611372   3.665   5.056   1.548  2.7672  1.2982  0.0353
   24MOL   H28711373   3.704   5.118   1.301 -0.1430  1.6410 -1.3527
   24MOL   H28811374   3.457   5.459   1.345 -1.6658 -0.4824  0.2529
   24MOL   H28911375   3.383   5.387   1.572  0.5697  1.5538 -1.9758
   24MOL   C29011376   3.671   5.550   1.137 -0.4239 -0.0193 -0.5581
   24MOL   C29111377   3.764   5.653   1.142  0.4896  0.2646 -0.3839
   24MOL   C29211378   3.894   5.628   1.194  0.3607 -0.8992  0.3747
   24MOL   C29311379   3.934   5.500   1.223  0.3244 -0.7251  0.1550
   24MOL   C29411380   3.842   5.393   1.222 -0.5989 -0.2222  0.2146
   24MOL   C29511381   3.710   5.421   1.181 -0.1968 -0.0943  0.1105
   24MOL   S29611382   4.017   5.750   1.235 -0.0155  0.0529 -0.1676
   24MOL   O29711383   4.119   5.740   1.131  0.3735  0.4427 -0.2573
   24MOL   O29811384   4.049   5.735   1.378 -0.2181 -0.6595  0.3647
   24MOL   C29911385   3.939   5.914   1.216 -0.0068  0.0758 -0.1792
   24MOL   C30011386   3.852   5.954   1.315 -0.3920  0.3044 -0.0041
   24MOL   C30111387   3.793   6.079   1.302 -0.7680  0.6936 -0.8917
   24MOL   C30211388   3.826   6.173   1.194  0.7179  0.8055 -0.4874
   24MOL   C30311389   3.928   6.131   1.113 -0.2945  0.7999  0.9112
   24MOL   C30411390   3.988   6.000   1.120  0.5548 -0.2108  0.4219
   24MOL   O30511391   3.744   6.280   1.174  0.3731  0.4429  0.6232
   24MOL   H30611392   3.568   5.564   1.107 -0.0416  1.7625 -1.0812
   24MOL   H30711393   3.730   5.752   1.115 -2.5117 -0.0481  2.0156
   24MOL   H30811394   4.031   5.472   1.261  0.2993 -2.0031 -0.6859
   24MOL   H30911395   3.871   5.292   1.245 -0.6779  0.0963  1.8024
   24MOL   H31011396   3.813   5.893   1.395  0.4597 -1.7286 -1.0954
   24MOL   H31111397   3.724   6.117   1.375  0.7502 -0.3811  1.1782
   24MOL   H31211398   3.952   6.189   1.025  1.5650 -2.0594 -0.5538
   24MOL   H31311399   4.070   5.972   1.055  3.4191 -0.6306  4.0820
   24MOL   C31411400   3.892   6.444   1.252 -0.2202 -0.3424  0.7913
   24MOL   C31511401   3.913   6.560   1.330  0.1781  0.7740  0.6487
   24MOL   C31611402   3.803   6.635   1.376 -0.2511 -0.5671  0.4705
   24MOL   C31711403   3.673   6.597   1.346  0.4471 -0.1240 -0.2975
   24MOL   C31811404   3.653   6.476   1.275  0.2330  0.0189 -0.3568
   24MOL   C31911405   3.763   6.400   1.231  0.4458 -0.2932 -0.5877
   24MOL   S32011406   3.839   6.776   1.485 -0.0640  0.0554 -0.1219
   24MOL   O32111407   3.731   6.876   1.482 -0.2395 -0.2719  0.0897
   24MOL   O32211408   3.983   6.815   1.471 -0.4882  0.5810  0.4184
   24MOL   C32311409   3.821   6.690   1.648  0.4488 -0.8531 -0.8099
   24MOL   C32411410   3.698   6.698   1.711  0.3655 -0.2921 -0.6234
   24MOL   C32511411   3.683   6.629   1.839  0.0286 -0.6406 -0.2858
   24MOL   C32611412   3.797   6.567   1.901 -0.6504 -0.8604 -0.3962
   24MOL   C32711413   3.923   6.580   1.839 -0.4328  0.6925 -0.4740
   24MOL   C32811414   3.933   6.633   1.710 -0.1075 -0.6130  0.6408
   24MOL   O32911415   3.785   6.483   2.015 -0.0455 -0.2020  0.0849
   24MOL   H33011416   3.972   6.377   1.227  2.7582  2.3396  2.8087
   24MOL   H33111417   4.015   6.592   1.349  0.3279  2.1902 -2.2301
   24MOL   H33211418   3.588   6.653   1.384 -0.3004 -0.3246 -1.6540
   24MOL   H33311419   3.557   6.428   1.265  1.0230 -2.0479  1.5948
   24MOL   H33411420   3.616   6.751   1.664  0.6770 -0.3278 -1.2078
   24MOL   H33511421   3.590   6.627   1.894 -0.8014 -1.1345 -1.6833
   24MOL   H33611422   3.991   6.514   1.890 -1.7520 -0.6171 -0.3818
   24MOL   H33711423   4.025   6.615   1.657  0.1717 -0.0527  0.9201
   24MOL   C33811424   3.637   6.359   2.146  0.3936 -0.1376 -0.3583
   24MOL   C33911425   3.544   6.254   2.164  0.0230 -0.4705  0.1121
   24MOL   C34011426   3.503   6.184   2.052  0.0843  0.1725  0.0797
   24MOL   C34111427   3.554   6.210   1.926 -0.6165  0.3443 -0.0374
   24MOL   C34211428   3.652   6.309   1.910 -0.1401  0.8527 -0.9332
   24MOL   C34311429   3.690   6.387   2.023 -0.4629  0.6977 -0.5699
   24MOL   S34411430   3.369   6.068   2.073 -0.5028  0.2995  0.3802
   24MOL   O34511431   3.259   6.130   1.994  0.2076  0.4257 -0.1963
   24MOL   O34611432   3.355   6.038   2.213  0.1540  0.3123 -0.4378
   24MOL   C34711433   3.414   5.922   1.984 -0.0801 -0.2046  0.9418
   24MOL   C34811434   3.423   5.809   2.065 -0.6790  0.6368  0.1985
   24MOL   C34911435   3.448   5.689   1.997 -0.0927 -0.5660  0.5538
   24MOL   C35011436   3.473   5.689   1.855  0.4339  0.3725 -0.1688
   24MOL   C35111437   3.464   5.805   1.780 -0.4136  0.2932 -0.9767
   24MOL   C35211438   3.420   5.922   1.841 -0.9439  0.0540  0.1089
   24MOL   O35311439   3.505   5.570   1.796 -0.4640 -0.5331  0.4948
   24MOL   H35411440   3.684   6.416   2.225 -0.7206 -0.1649  0.3455
   24MOL   H35511441   3.514   6.227   2.264 -1.4924  1.4140  0.1840
   24MOL   H35611442   3.518   6.161   1.837 -1.6856 -0.9450  1.0838
   24MOL   H35711443   3.690   6.336   1.812 -0.8044  0.1894 -1.3826
   24MOL   H35811444   3.415   5.810   2.172  0.2801  0.5440  0.2793
   24MOL   H35911445   3.450   5.595   2.050 -1.7930 -0.8929  0.0823
   24MOL   H36011446   3.474   5.808   1.672 -1.8346 -0.7103 -1.1537
   24MOL   H36111447   3.395   6.008   1.781  0.4062 -0.2166 -0.8745
   24MOL   C36211448   3.697   5.468   1.871  1.0114  0.2590  0.4665
   24MOL   C36311449   3.828   5.440   1.854 -0.0066 -0.0394  0.0568
   24MOL   C36411450   3.904   5.495   1.748 -0.5660 -0.1465 -0.2208
   24MOL   C36511451   3.843   5.586   1.653 -0.2248  1.4565 -0.0250
   24MOL   C36611452   3.708   5.602   1.672 -0.7268 -0.4645  0.7030
   24MOL   C36711453   3.633   5.542   1.775 -0.2850  0.6027 -0.1904
   24MOL   S36811454   4.082   5.461   1.742  0.2364 -0.1322  0.2135
   24MOL   O36911455   4.101   5.363   1.849  0.0775  0.1347 -0.1596
   24MOL   O37011456   4.153   5.589   1.736 -0.2723  0.0422  0.4164
   24MOL   C37111457   4.120   5.380   1.588 -0.5963 -0.2478  0.3045
   24MOL   C37211458   4.229   5.427   1.514 -0.2561  0.3246  0.4446
   24MOL   C37311459   4.254   5.365   1.390  0.7834 -0.6618  1.3534
   24MOL   C37411460   4.182   5.248   1.353  0.2775 -0.0634  0.0052
   24MOL   C37511461   4.087   5.196   1.439 -0.2906 -0.2648  0.2468
   24MOL   C37611462   4.052   5.259   1.559  0.2407  0.1281  0.1824
   24MOL   O37711463   4.208   5.193   1.231 -0.0564  0.5092 -0.1114
   24MOL   H37811464   3.655   5.432   1.964  1.3476 -0.1967  0.4477
   24MOL   H37911465   3.876   5.375   1.926  0.4452 -0.1739 -0.3603
   24MOL   H38011466   3.890   5.623   1.564 -0.4353 -0.5080 -0.9761
   24MOL   H38111467   3.652   5.661   1.602  0.4705 -0.7173 -0.4843
   24MOL   H38211468   4.274   5.523   1.535  0.8858 -0.2979  0.8849
   24MOL   H38311469   4.339   5.407   1.338  0.3581  0.7678  1.7816
   24MOL   H38411470   4.047   5.101   1.406  1.8427 -1.5037  1.1312
   24MOL   H38511471   3.981   5.228   1.634 -0.6342  0.2599 -0.5901
   24MOL   C38611472   4.436   5.123   1.268  0.0789 -0.0553  0.0449
   24MOL   C38711473   4.571   5.121   1.230 -0.4274  0.3665  0.0933
   24MOL   C38811474   4.601   5.195   1.114  0.5730 -0.5729 -0.7952
   24MOL   C38911475   4.509   5.273   1.052 -0.7134  0.5438  0.0571
   24MOL   C39011476   4.376   5.269   1.088  0.4902  0.2787  0.3175
   24MOL   C39111477   4.335   5.189   1.193 -1.1061  1.0677  1.1108
   24MOL   S39211478   4.777   5.181   1.051  0.2135  0.4755 -0.2642
   24MOL   O39311479   4.841   5.051   1.075 -0.4984  0.1470  0.1897
   24MOL   O39411480   4.835   5.301   1.102 -0.1512  0.6448 -0.0008
   24MOL   C39511481   4.759   5.203   0.866  0.2736 -0.5025 -0.2312
   24MOL   C39611482   4.755   5.339   0.815  0.4793  0.1021  1.2839
   24MOL   C39711483   4.730   5.361   0.672 -1.5933  0.2740 -0.3138
   24MOL   C39811484   4.706   5.251   0.588 -0.0504  0.4511 -0.5059
   24MOL   C39911485   4.711   5.119   0.635 -0.8682 -0.1458 -0.2909
   24MOL   C40011486   4.733   5.099   0.773  0.5242  0.0404 -0.9358
   24MOL   O40111487   4.692   5.275   0.456 -0.0238  0.1895 -0.1559
   24MOL   H40211488   4.399   5.060   1.347 -0.0272 -0.6064 -0.4416
   24MOL   H40311489   4.645   5.062   1.282 -1.5821 -0.4927  0.8056
   24MOL   H40411490   4.533   5.333   0.965 -0.5984 -0.4670 -0.6213
   24MOL   H40511491   4.304   5.325   1.031  1.9364 -0.2670 -2.1208
   24MOL   H40611492   4.760   5.424   0.880 -0.9255  0.7857  0.5320
   24MOL   H40711493   4.724   5.458   0.626  0.1631  2.6155  4.0961
   24MOL   H40811494   4.692   5.035   0.569  2.8817 -1.1240 -0.2500
   24MOL   H40911495   4.732   5.002   0.820 -2.1468  0.5119  0.0597
   24MOL   C41011496   4.726   5.111   0.285 -0.1668  0.0668  0.0511
   24MOL   C41111497   4.821   5.052   0.195  0.1553 -0.4673 -0.3138
   24MOL   C41211498   4.958   5.091   0.183  0.3836 -0.4973 -0.4818
   24MOL   C41311499   5.002   5.193   0.271 -0.4597  0.1140  0.4138
   24MOL   C41411500   4.912   5.258   0.364  0.3964 -0.1659  0.7145
   24MOL   C41511501   4.776   5.215   0.369  0.1732  0.1964  0.4409
   24MOL   S41611502   5.071   5.007   0.080  0.6409 -0.0498  0.0245
   24MOL   O41711503   5.200   5.036   0.135  0.1605 -0.1209 -0.6306
   24MOL   O41811504   5.042   5.039   8.365  0.1129 -0.3652 -0.5622
   24MOL   C41911505   5.022   4.838   0.099  0.6210  0.2225  0.5534
   24MOL   C42011506   5.039   4.751   8.415  0.0205  0.6097  0.3989
   24MOL   C42111507   4.991   4.620   0.004 -0.2949 -0.0359 -0.6532
   24MOL   C42211508   4.952   4.567   0.130 -0.4052 -0.3036 -0.0481
   24MOL   C42311509   4.953   4.653   0.243 -0.9781  0.3572 -0.7384
   24MOL   C42411510   4.991   4.789   0.229  0.4429  0.6471  0.4273
   24MOL   O42511511   4.912   4.432   0.129 -0.1544 -0.3664 -0.5919
   24MOL   H42611512   4.626   5.072   0.288  0.3720 -1.3450  0.1004
   24MOL   H42711513   4.791   4.967   0.136 -0.8293 -0.0084 -0.4753
   24MOL   H42811514   5.104   5.230   0.267 -0.6223  0.6692  1.3260
   24MOL   H42911515   4.936   5.338   0.432  0.2457  0.0307  0.5387
   24MOL   H43011516   5.061   4.782   8.314 -1.0932  0.2302  0.0263
   24MOL   H43111517   4.979   4.561   8.339  0.8442  1.9639 -2.1621
   24MOL   H43211518   4.932   4.613   0.341  2.1831  3.3402  1.2678
   24MOL   H43311519   4.992   4.850   0.318  1.6550  1.1538  0.0750
   24MOL   C43411520   4.858   4.259   0.283  0.3184 -1.0025 -1.2087
   24MOL   C43511521   4.897   4.175   0.386  0.2373  0.3327  0.1289
   24MOL   C43611522   5.028   4.174   0.436 -0.5671  0.4125 -0.1578
   24MOL   C43711523   5.119   4.267   0.381 -0.7475  0.5043 -0.0824
   24MOL   C43811524   5.085   4.352   0.281 -0.1683 -0.2094  0.5813
   24MOL   C43911525   4.955   4.351   0.232 -0.1162  0.1320  0.5521
   24MOL   S44011526   5.089   4.040   0.547  0.1063  0.1248 -0.2707
   24MOL   O44111527   5.164   3.944   0.459  0.4398  0.5879 -0.1801
   24MOL   O44211528   4.979   3.994   0.631 -0.7138 -0.2647 -0.2063
   24MOL   C44311529   5.212   4.128   0.650  0.4808 -0.2458 -0.5735
   24MOL   C44411530   5.351   4.109   0.642  0.7261 -0.1232  0.7149
   24MOL   C44511531   5.436   4.191   0.711 -0.5891 -1.1149 -0.2853
   24MOL   C44611532   5.383   4.287   0.802 -0.5274 -0.3027  0.3935
   24MOL   C44711533   5.242   4.299   0.809  0.2090  0.4601 -0.4058
   24MOL   C44811534   5.155   4.218   0.739 -0.0468  0.3786  0.5149
   24MOL   O44911535   5.462   4.382   0.868  0.1886  0.3040  0.1024
   24MOL   H45011536   4.759   4.254   0.239 -1.2950  0.4910  2.0820
   24MOL   H45111537   4.829   4.102   0.428  0.2486  0.1997 -0.0880
   24MOL   H45211538   5.225   4.258   0.401 -0.6803 -1.0567 -0.9880
   24MOL   H45311539   5.157   4.422   0.240  0.7773 -1.0990  0.7011
   24MOL   H45411540   5.389   4.041   0.567  0.3511 -0.1412  0.5388
   24MOL   H45511541   5.543   4.190   0.698 -0.5225  0.5619  0.0206
   24MOL   H45611542   5.201   4.370   0.879 -1.4933  0.7449 -1.6673
   24MOL   H45711543   5.048   4.213   0.752 -0.1857  2.2038  0.2292
   24MOL   C45811544   5.607   4.487   0.703 -0.5362  0.1512 -0.0594
   24MOL   C45911545   5.735   4.502   0.634 -0.4074 -0.5934 -0.1846
   24MOL   C46011546   5.841   4.424   0.675  0.2595 -0.9628  0.1806
   24MOL   C46111547   5.822   4.336   0.782 -0.1769 -0.1398  0.6042
   24MOL   C46211548   5.697   4.321   0.859  0.0807  0.0457 -0.3024
   24MOL   C46311549   5.587   4.403   0.819  0.5533  0.6997 -0.2599
   24MOL   S46411550   5.993   4.412   0.592 -0.0871 -0.1064 -0.1982
   24MOL   O46511551   6.020   4.276   0.546 -0.6336 -0.0999  0.2803
   24MOL   O46611552   6.095   4.475   0.676  0.8499  0.5211 -0.0401
   24MOL   C46711553   5.985   4.515   0.444 -0.9600 -0.0514 -0.2865
   24MOL   C46811554   5.958   4.457   0.326  0.0145 -0.1272  0.4834
   24MOL   C46911555   5.978   4.531   0.204  0.0409 -0.4732 -0.7650
   24MOL   C47011556   6.008   4.665   0.216 -1.2318 -0.4849  1.8613
   24MOL   C47111557   6.013   4.730   0.342 -0.8785 -0.1911 -0.4379
   24MOL   C47211558   5.999   4.655   0.459  0.0788 -0.0144 -0.4295
   24MOL   O47311559   6.033   4.733   0.101 -0.3885  0.1946  0.2983
   24MOL   H47411560   5.522   4.543   0.667 -0.6771  0.4213  0.6964
   24MOL   H47511561   5.746   4.566   0.547  1.6278  0.7372  1.0241
   24MOL   H47611562   5.915   4.285   0.802  0.9156  0.7357 -2.0454
   24MOL   H47711563   5.681   4.248   0.937  0.0486 -0.2750 -0.6066
   24MOL   H47811564   5.947   4.350   0.311  1.5303 -0.1239 -0.6764
   24MOL   H47911565   5.978   4.479   0.109 -0.5868  0.8994 -1.5305
   24MOL   H48011566   6.044   4.832   0.354 -1.3067 -0.0273 -0.7341
   24MOL   H48111567   6.006   4.691   0.560 -3.1562  0.9131 -0.4915
   24MOL   H48211568   5.988   4.693   0.028  0.0666  1.8072 -0.8751
   25MOL     C111569   3.938   0.129   1.991  0.2251 -0.6514 -1.2667
   25MOL     C211570   3.907   0.162   1.862 -0.5905 -0.5374 -0.2559
   25MOL     C311571   4.004   0.153   1.758  0.3801 -0.6468  0.3353
   25MOL     C411572   4.127   0.089   1.782  0.2157 -0.3646  0.0432
   25MOL     C511573   4.153   0.051   1.913  0.4672 -0.2556  0.2770
   25MOL     C611574   4.068   0.083   2.022  0.3314  0.5921 -0.1011
   25MOL     S711575   3.965   0.205   1.595 -0.1123  0.3600  0.3283
   25MOL     O811576   4.076   0.277   1.533  0.0330  0.3419  0.3012
   25MOL     O911577   3.835   0.274   1.596  0.3696  0.4027 -0.1596
   25MOL    C1011578   3.953   0.049   1.498 -0.6829  0.2157  0.6865
   25MOL    C1111579   3.922   0.063   1.360 -0.2225  0.8488  0.0596
   25MOL    C1211580   3.933   8.376   1.275  0.0123 -0.2630 -0.9737
   25MOL    C1311581   3.942   8.248   1.333 -0.2920  0.0639  0.6403
   25MOL    C1411582   3.959   8.231   1.474 -0.1694 -0.3542 -0.0939
   25MOL    C1511583   3.972   8.345   1.556 -0.1002 -0.0626 -0.0387
   25MOL    O1611584   3.931   8.137   1.251 -0.4353  0.1462 -0.1503
   25MOL    H1711585   3.878   0.150   2.079  1.5012  0.3064 -0.6154
   25MOL    H1811586   3.813   0.211   1.839 -0.1237 -0.0867 -1.2728
   25MOL    H1911587   4.197   0.075   1.702 -0.3597 -0.0024 -0.5324
   25MOL    H2011588   4.253   0.017   1.932  1.4616  0.6591 -2.9667
   25MOL    H2111589   3.878   0.153   1.318  1.9903  1.2851 -1.3951
   25MOL    H2211590   3.923   8.390   1.169  0.2421 -0.7051 -1.0547
   25MOL    H2311591   3.956   8.129   1.510 -1.1711 -0.2248  0.2084
   25MOL    H2411592   4.003   8.339   1.659 -1.3687 -0.2926  0.3423
   25MOL    H2511593   4.108   0.066   2.121  3.3381  0.3512 -1.3056
   25MOL    C2611594   4.031   8.101   1.030 -0.1903  0.2997  0.0709
   25MOL    C2711595   4.143   8.061   0.950  0.2790  0.2642 -0.1252
   25MOL    C2811596   4.263   8.023   1.016  0.4564  0.6904 -0.0706
   25MOL    C2911597   4.270   8.032   1.156 -0.9254  0.2064  0.9371
   25MOL    C3011598   4.163   8.064   1.231  0.0246  0.0161 -0.4246
   25MOL    C3111599   4.040   8.100   1.172  0.3754  0.1149 -0.0830
   25MOL    S3211600   4.414   7.977   0.926 -0.0271 -0.4654 -0.0701
   25MOL    O3311601   4.510   8.090   0.934  0.4004  0.0750  0.2298
   25MOL    O3411602   4.364   7.939   0.793  0.0909  0.2612 -0.4973
   25MOL    C3511603   4.483   7.827   1.005  0.4795  0.5139  0.0235
   25MOL    C3611604   4.584   7.839   1.104 -0.4869 -0.2518  0.2272
   25MOL    C3711605   4.644   7.717   1.149 -0.8616 -0.4082  0.3363
   25MOL    C3811606   4.595   7.589   1.113 -0.2686  0.1532  0.2772
   25MOL    C3911607   4.494   7.581   1.016  0.1225  0.3827 -0.2011
   25MOL    C4011608   4.435   7.700   0.966  0.7381 -0.2475  0.1945
   25MOL    O4111609   4.642   7.473   1.165  0.1258  0.4373  0.2811
   25MOL    H4211610   3.931   8.131   1.000 -0.8658  0.3194  2.2046
   25MOL    H4311611   4.149   8.065   0.842 -0.8530  1.4609 -0.1476
   25MOL    H4411612   4.367   8.016   1.201  0.1636 -0.2712 -1.4840
   25MOL    H4511613   4.173   8.053   1.338 -1.3982  1.6363 -0.1105
   25MOL    H4611614   4.624   7.938   1.116 -4.0970  1.2946  0.1218
   25MOL    H4711615   4.722   7.721   1.225  0.2389  2.5589 -0.8694
   25MOL    H4811616   4.451   7.487   0.984 -3.6540  1.6736  0.8960
   25MOL    H4911617   4.354   7.698   0.895  0.6264 -0.0205  0.3159
   25MOL    C5011618   4.709   7.294   1.013 -0.0894  0.9641  0.3131
   25MOL    C5111619   4.811   7.232   0.939  0.8402  0.6443 -0.1261
   25MOL    C5211620   4.938   7.285   0.932  0.0717  0.1254 -0.4642
   25MOL    C5311621   4.968   7.399   1.010 -0.1185 -0.4628 -0.2434
   25MOL    C5411622   4.867   7.473   1.081  0.0897  0.8872 -0.1315
   25MOL    C5511623   4.737   7.414   1.084  0.4851 -0.1375  0.4311
   25MOL    S5611624   5.070   7.195   0.845 -0.2635 -0.0986 -0.3845
   25MOL    O5711625   5.024   7.062   0.807 -0.0477 -0.1106 -0.2509
   25MOL    O5811626   5.184   7.199   0.941  0.0171  0.3136  0.1118
   25MOL    C5911627   5.117   7.288   0.698  0.6414  0.5290 -0.0926
   25MOL    C6011628   5.158   7.424   0.710 -0.0608 -0.2466 -0.1131
   25MOL    C6111629   5.163   7.501   0.590  0.1952  0.8602  0.1004
   25MOL    C6211630   5.129   7.444   0.460 -0.3375 -0.0641 -0.2647
   25MOL    C6311631   5.103   7.309   0.457  0.4160 -0.5154  0.2685
   25MOL    C6411632   5.098   7.230   0.572  0.4031  0.1697  0.2423
   25MOL    O6511633   5.139   7.522   0.345 -0.0104  0.9362 -0.1726
   25MOL    H6611634   4.610   7.254   1.029 -0.8302  2.7115  0.2557
   25MOL    H6711635   4.785   7.136   0.897 -1.2486  1.2206 -0.1853
   25MOL    H6811636   5.071   7.432   1.015 -0.4300  0.9653 -2.7622
   25MOL    H6911637   4.894   7.555   1.146  0.2883 -1.3993  2.7169
   25MOL    H7011638   5.174   7.473   0.805 -1.4018  0.2599 -0.1363
   25MOL    H7111639   5.178   7.608   0.598 -2.3242  1.1333  1.8005
   25MOL    H7211640   5.079   7.266   0.361  0.7403  0.0564 -0.0666
   25MOL    H7311641   5.077   7.124   0.564 -2.9296  0.7004  1.1646
   25MOL    C7411642   5.316   7.480   0.179 -0.5015 -0.3053 -0.1590
   25MOL    C7511643   5.455   7.493   0.136  0.0384  0.0777 -0.0036
   25MOL    C7611644   5.538   7.583   0.206  0.0012 -0.1540 -0.3414
   25MOL    C7711645   5.484   7.662   0.310  0.5181  0.0757 -0.7380
   25MOL    C7811646   5.351   7.637   0.357  0.4922 -0.5451 -0.7951
   25MOL    C7911647   5.268   7.546   0.292 -0.1163 -0.0457  1.1718
   25MOL    S8011648   5.713   7.600   0.161  0.1985 -0.2112  0.6521
   25MOL    O8111649   5.787   7.697   0.248  0.4756  0.1805  0.1835
   25MOL    O8211650   5.718   7.616   0.015  0.1845 -0.3182 -0.3716
   25MOL    C8311651   5.787   7.435   0.186  0.6625 -0.6401 -0.1771
   25MOL    C8411652   5.922   7.418   0.148  0.5426  0.4834 -0.2796
   25MOL    C8511653   5.982   7.296   0.173  0.1832 -0.4510 -0.0799
   25MOL    C8611654   5.919   7.193   0.242  1.1264  0.2810 -0.4327
   25MOL    C8711655   5.784   7.217   0.284  0.0613 -0.4992 -0.3701
   25MOL    C8811656   5.717   7.332   0.246  0.0013  0.2013  0.4753
   25MOL    O8911657   5.977   7.071   0.268  0.3345  0.5620  0.1463
   25MOL    H9011658   5.253   7.409   0.128 -1.0354  0.5229 -0.6619
   25MOL    H9111659   5.494   7.420   0.067  1.8220  1.0733 -0.0730
   25MOL    H9211660   5.541   7.738   0.360 -0.0908 -0.0690  0.1909
   25MOL    H9311661   5.317   7.697   0.440 -2.1728 -3.7270  0.5330
   25MOL    H9411662   5.977   7.498   0.101 -1.9810  0.6924 -3.0392
   25MOL    H9511663   6.082   7.277   0.138  0.0305  1.3594 -1.5958
   25MOL    H9611664   5.727   7.142   0.336 -2.9116  1.6629 -0.3786
   25MOL    H9711665   5.615   7.342   0.280  0.2882 -0.0515  1.4325
   25MOL    C9811666   6.181   6.980   0.221 -0.1080  0.2352  0.0477
   25MOL    C9911667   6.254   6.890   0.144 -0.3651  0.3348 -0.6283
   25MOL   C10011668   6.195   6.820   0.041  0.2080 -0.7623 -0.0919
   25MOL   C10111669   6.065   6.845   8.423 -0.0074 -0.0378  0.6529
   25MOL   C10211670   5.990   6.938   0.062 -0.1262 -0.2567  1.1466
   25MOL   C10311671   6.048   7.003   0.175 -0.5988 -0.2208  0.6005
   25MOL   S10411672   6.299   6.698   8.392  0.0539 -0.0010  0.0412
   25MOL   O10511673   6.321   6.596   0.077 -0.0121 -0.0238 -0.0009
   25MOL   O10611674   6.410   6.777   8.332  0.3961 -0.1612  0.1975
   25MOL   C10711675   6.205   6.626   8.255  0.4387 -0.3108  0.2944
   25MOL   C10811676   6.189   6.702   8.136  0.2808  0.1199  0.3905
   25MOL   C10911677   6.130   6.642   8.025  0.4281  0.1229  0.3611
   25MOL   C11011678   6.108   6.501   8.022  0.3232 -0.0176 -0.9922
   25MOL   C11111679   6.125   6.432   8.145 -0.1962  0.5549 -0.2286
   25MOL   C11211680   6.178   6.489   8.255 -0.0194 -0.0588  0.0365
   25MOL   O11311681   6.060   6.440   7.907  0.1722 -0.0294 -0.6382
   25MOL   H11411682   6.228   7.026   0.307  0.9982  1.7126 -1.3138
   25MOL   H11511683   6.348   6.855   0.183 -1.1614 -0.7603  0.3502
   25MOL   H11611684   6.017   6.791   8.343  2.9981 -0.5629 -0.8641
   25MOL   H11711685   5.885   6.946   0.037 -1.1443 -0.5227  4.9431
   25MOL   H11811686   6.215   6.807   8.141  3.2255 -0.5299 -0.5359
   25MOL   H11911687   6.103   6.701   7.939  2.3923  1.7542  0.8080
   25MOL   H12011688   6.113   6.324   8.145  1.3423  0.3796 -0.7173
   25MOL   H12111689   6.210   6.437   8.344 -1.3739 -0.3471  0.3693
   25MOL   C12211690   6.183   6.244   7.861 -0.5327 -0.2054 -0.0800
   25MOL   C12311691   6.286   6.178   7.793  0.0087 -0.1530  0.1165
   25MOL   C12411692   6.365   6.243   7.704 -0.0631 -0.2212  0.5258
   25MOL   C12511693   6.345   6.385   7.691 -0.2272 -0.3896 -0.0165
   25MOL   C12611694   6.243   6.457   7.756  0.0340  0.3682 -0.2233
   25MOL   C12711695   6.161   6.378   7.838  0.6456  0.2867 -0.0245
   25MOL   S12811696   6.505   6.163   7.621 -0.1806 -0.2261  0.5334
   25MOL   O12911697   6.605   6.269   7.617 -0.3916 -0.5687 -0.3742
   25MOL   O13011698   6.463   6.113   7.489 -0.1007  0.3537 -0.0941
   25MOL   C13111699   6.567   6.030   7.729 -0.9029 -0.8364  0.7025
   25MOL   C13211700   6.522   5.899   7.714 -0.1150 -0.2509 -0.2500
   25MOL   C13311701   6.572   5.795   7.794  0.1347  0.4961  0.0831
   25MOL   C13411702   6.663   5.818   7.894 -0.4644 -0.1087 -0.2561
   25MOL   C13511703   6.718   5.949   7.907  0.3632  0.0824  0.0933
   25MOL   C13611704   6.669   6.055   7.828 -0.4388 -0.4506  0.7776
   25MOL   O13711705   6.719   5.717   7.977  0.3114  0.2832  0.0020
   25MOL   H13811706   6.115   6.181   7.917  0.4567 -0.5439  0.7665
   25MOL   H13911707   6.301   6.072   7.808 -0.9821 -0.6308 -2.0403
   25MOL   H14011708   6.414   6.444   7.632 -1.7090  0.3421 -1.0400
   25MOL   H14111709   6.220   6.562   7.745 -0.2825  0.2284 -0.9109
   25MOL   H14211710   6.449   5.880   7.637  1.5125 -0.5862 -1.7239
   25MOL   H14311711   6.537   5.695   7.773 -0.0787  0.4075  0.8505
   25MOL   H14411712   6.801   5.963   7.974 -1.0826 -0.6105  2.0877
   25MOL   H14511713   6.705   6.155   7.849 -1.3496 -0.2660  1.5106
   25MOL   C14611714   6.734   5.623   8.198 -0.0276 -0.1933  0.1235
   25MOL   C14711715   6.700   5.609   8.335  0.1717 -0.9071 -0.2594
   25MOL   C14811716   6.582   5.673   8.380 -0.1662 -0.5547  0.3908
   25MOL   C14911717   6.505   5.750   8.294  0.5457  0.7347 -0.3578
   25MOL   C15011718   6.550   5.765   8.164 -0.3981 -0.0654 -0.7412
   25MOL   C15111719   6.673   5.714   8.112  0.1129  1.1571  0.3263
   25MOL   S15211720   6.525   5.652   0.125 -0.3080  0.1064 -0.0661
   25MOL   O15311721   6.469   5.792   0.160 -0.2096 -0.1186 -0.0987
   25MOL   O15411722   6.630   5.603   0.208  0.7289  0.4858 -0.2682
   25MOL   C15511723   6.389   5.527   0.121 -0.4888 -0.1070  0.1044
   25MOL   C15611724   6.269   5.541   0.043 -1.0223  0.0358 -0.6170
   25MOL   C15711725   6.170   5.439   0.049 -0.4498 -0.3478  0.2516
   25MOL   C15811726   6.178   5.330   0.134  0.5328 -0.4043 -0.1903
   25MOL   C15911727   6.295   5.322   0.215  0.3121  0.0619 -0.7500
   25MOL   C16011728   6.399   5.413   0.203  0.4907 -0.0047 -0.0180
   25MOL   O16111729   6.078   5.239   0.147  0.2117 -0.4796  0.5930
   25MOL   H16211730   6.809   5.561   8.152 -3.0413 -3.0381 -1.1204
   25MOL   H16311731   6.747   5.536   8.399 -0.3291 -3.2125 -2.4725
   25MOL   H16411732   6.412   5.791   8.333  0.2246  0.9492 -1.3486
   25MOL   H16511733   6.493   5.826   8.096 -1.5762  1.4587  1.5603
   25MOL   H16611734   6.262   5.635   8.416 -1.6963  1.0324  1.2090
   25MOL   H16711735   6.079   5.441   8.415 -1.4453  0.6302  1.7939
   25MOL   H16811736   6.301   5.238   0.283  1.2836  0.7277 -0.0134
   25MOL   H16911737   6.483   5.388   0.266  0.0596 -0.7503  0.2677
   25MOL   C17011738   5.942   5.108   0.296 -0.9629 -0.6512  0.2816
   25MOL   C17111739   5.867   5.103   0.416 -0.0631  0.2847 -0.2080
   25MOL   C17211740   5.864   5.215   0.496 -0.4435 -0.3596  0.0986
   25MOL   C17311741   5.911   5.337   0.462  1.1793 -0.5229  0.2724
   25MOL   C17411742   5.986   5.346   0.347  0.0910 -0.3609 -1.0930
   25MOL   C17511743   6.006   5.229   0.270 -0.0293 -0.6780 -0.3507
   25MOL   S17611744   5.793   5.192   0.655  0.5126 -0.1425  0.2381
   25MOL   O17711745   5.653   5.158   0.623  0.0431  0.4840 -0.0235
   25MOL   O17811746   5.836   5.306   0.741  0.1535  0.8423 -0.5413
   25MOL   C17911747   5.879   5.044   0.719  0.0244 -0.0715 -0.1703
   25MOL   C18011748   6.012   5.061   0.765  0.6983 -0.3987  0.1056
   25MOL   C18111749   6.079   4.949   0.824 -0.1012 -0.7129 -0.0287
   25MOL   C18211750   6.016   4.828   0.816  0.3922  0.2911 -0.6207
   25MOL   C18311751   5.884   4.812   0.776  0.2277  0.2535 -0.3096
   25MOL   C18411752   5.813   4.921   0.723  0.9222 -0.3078  0.7389
   25MOL   O18511753   6.083   4.716   0.865 -0.5008  0.2217 -0.3581
   25MOL   H18611754   5.959   5.026   0.228 -0.9601 -2.0643  1.9586
   25MOL   H18711755   5.826   5.009   0.449  1.7658 -0.7076 -0.7074
   25MOL   H18811756   5.905   5.422   0.528  0.3014 -1.6273  1.6363
   25MOL   H18911757   6.034   5.437   0.314  1.1003  1.1602  4.2050
   25MOL   H19011758   6.063   5.154   0.747  1.7503 -0.5316  2.2349
   25MOL   H19111759   6.176   4.960   0.871  0.5453 -0.6355 -1.3839
   25MOL   H19211760   5.854   4.708   0.772 -0.9044  0.5798 -0.4695
   25MOL   H19311761   5.714   4.912   0.681  0.7328  2.3799  0.5583
   25MOL   C19411762   6.030   4.576   1.036  0.1282  0.0965 -0.1867
   25MOL   C19511763   6.045   4.527   1.172  0.2185  0.1786 -0.6599
   25MOL   C19611764   6.116   4.608   1.265 -0.3256  0.2366 -0.0676
   25MOL   C19711765   6.180   4.727   1.225  0.2869 -1.0305  0.0372
   25MOL   C19811766   6.168   4.767   1.090 -0.4034 -0.0625 -0.8239
   25MOL   C19911767   6.094   4.693   0.998 -0.0252 -0.0287  0.2543
   25MOL   S20011768   6.114   4.568   1.441 -0.3012  0.0475 -0.2679
   25MOL   O20111769   5.980   4.530   1.483  0.6596 -0.2389 -0.4627
   25MOL   O20211770   6.179   4.678   1.509 -0.0028 -0.2538 -0.7465
   25MOL   C20311771   6.216   4.421   1.467  0.7965  0.0108 -0.0031
   25MOL   C20411772   6.344   4.433   1.531 -0.0977  1.0801  0.4573
   25MOL   C20511773   6.420   4.312   1.535  0.8363  0.2033 -0.1785
   25MOL   C20611774   6.362   4.187   1.498 -0.3708  0.1117  0.0125
   25MOL   C20711775   6.225   4.186   1.450 -0.7941  0.2192 -0.0931
   25MOL   C20811776   6.158   4.300   1.428  0.5917 -0.4348  0.2910
   25MOL   O20911777   6.437   4.073   1.513  0.4240  0.4305  0.0491
   25MOL   H21011778   5.987   4.503   0.969  2.3909 -1.9471  0.5037
   25MOL   H21111779   6.000   4.433   1.201 -1.8248  1.4426  0.3733
   25MOL   H21211780   6.220   4.793   1.300 -0.9713  0.3976 -0.5342
   25MOL   H21311781   6.212   4.861   1.060 -0.5678 -0.4455 -2.3311
   25MOL   H21411782   6.378   4.532   1.556 -1.2004  1.5091  0.2322
   25MOL   H21511783   6.520   4.289   1.570 -0.3197 -1.1282  2.3809
   25MOL   H21611784   6.176   4.091   1.432 -0.1399  0.5010 -3.7351
   25MOL   H21711785   6.062   4.296   1.379  0.6370 -1.4291  0.2614
   25MOL   C21811786   6.485   3.974   1.306  0.4126 -0.0225  0.3938
   25MOL   C21911787   6.576   3.935   1.203 -0.3393  0.0012  0.5708
   25MOL   C22011788   6.708   3.997   1.202 -0.6167 -0.6290  1.1590
   25MOL   C22111789   6.750   4.065   1.314 -0.9130  0.5420 -0.1904
   25MOL   C22211790   6.666   4.092   1.423 -0.5569  0.1548 -0.0545
   25MOL   C22311791   6.533   4.045   1.416  0.2949  0.2489 -0.0959
   25MOL   S22411792   6.812   3.975   1.068  0.2499 -0.5276  0.6077
   25MOL   O22511793   6.720   3.965   0.950 -0.3543  0.0007 -0.8255
   25MOL   O22611794   6.907   3.866   1.105  0.1804  0.0037  1.0418
   25MOL   C22711795   6.902   4.121   1.035 -0.3333 -0.6177 -0.2236
   25MOL   C22811796   6.875   4.249   1.088  0.1070  0.0367 -0.2591
   25MOL   C22911797   6.960   4.360   1.067 -0.8040  0.6473 -0.6542
   25MOL   C23011798   7.083   4.344   0.998 -0.0725 -0.3532  0.2434
   25MOL   C23111799   7.118   4.213   0.952  0.3454  0.0296 -0.6119
   25MOL   C23211800   7.028   4.103   0.972 -0.3054  0.5476  0.0212
   25MOL   O23311801   7.153   4.452   0.964  0.2475  0.1906 -0.1296
   25MOL   H23411802   6.387   3.930   1.309 -0.1967  1.2298 -0.6921
   25MOL   H23511803   6.533   3.871   1.128 -2.4130 -0.7138  2.3162
   25MOL   H23611804   6.851   4.102   1.308 -0.7496  0.0144 -0.6688
   25MOL   H23711805   6.691   4.155   1.508 -0.5297  1.6607 -1.1532
   25MOL   H23811806   6.778   4.269   1.133 -0.0499  0.8168 -0.9435
   25MOL   H23911807   6.934   4.457   1.107  1.3966  0.3664  1.5671
   25MOL   H24011808   7.213   4.197   0.903 -1.4091 -1.3738 -3.7161
   25MOL   H24111809   7.056   4.004   0.941 -0.6893  1.1193 -2.2396
   25MOL   C24211810   7.307   4.631   1.024 -0.5782 -0.2576  0.3191
   25MOL   C24311811   7.404   4.690   1.111 -0.0568  0.0272 -0.5014
   25MOL   C24411812   7.432   4.617   1.228 -0.2630  0.5863 -0.2065
   25MOL   C24511813   7.375   4.498   1.261  0.3903 -0.5148 -0.2985
   25MOL   C24611814   7.278   4.437   1.180 -0.3113 -0.3743  0.3965
   25MOL   C24711815   7.242   4.508   1.051 -0.7271 -0.2219 -0.4676
   25MOL   S24811816   7.523   4.697   1.357 -0.5733  0.2343 -0.1435
   25MOL   O24911817   7.429   4.721   1.467 -0.4982 -0.0906  0.1182
   25MOL   O25011818   7.603   4.806   1.303  0.0433 -0.3061  0.5467
   25MOL   C25111819   7.635   4.581   1.423 -0.9291 -0.0955  0.0863
   25MOL   C25211820   7.665   4.569   1.561 -0.5093  0.6698 -0.2870
   25MOL   C25311821   7.767   4.484   1.610  0.2887 -0.2865 -0.4326
   25MOL   C25411822   7.836   4.403   1.525 -0.1570  0.6572 -0.0797
   25MOL   C25511823   7.815   4.415   1.385 -0.1238  0.1239 -0.3985
   25MOL   C25611824   7.716   4.504   1.335 -1.0665 -0.2024  0.3079
   25MOL   O25711825   7.938   4.321   1.574  0.3768  0.3153  0.0153
   25MOL   H25811826   7.276   4.691   0.940  1.5829 -0.3908 -0.6125
   25MOL   H25911827   7.449   4.785   1.083 -1.4322  1.2630  1.3324
   25MOL   H26011828   7.392   4.453   1.357  1.2881 -0.0326 -0.2269
   25MOL   H26111829   7.236   4.340   1.202 -0.2747 -0.2901  0.8322
   25MOL   H26211830   7.597   4.612   1.634 -2.8680 -2.7338 -0.3307
   25MOL   H26311831   7.776   4.479   1.718 -1.7753 -2.1443 -0.3012
   25MOL   H26411832   7.879   4.360   1.318  1.3556 -0.8920  1.7543
   25MOL   H26511833   7.709   4.512   1.228  0.3355 -0.2582  0.2038
   25MOL   C26611834   8.011   4.328   1.799  0.3414  0.1664 -0.2845
   25MOL   C26711835   8.001   4.282   1.928  0.2935 -0.2364  0.1381
   25MOL   C26811836   7.930   4.164   1.958  0.4066 -0.4056 -0.1033
   25MOL   C26911837   7.857   4.094   1.855 -0.8213  0.3787  0.0722
   25MOL   C27011838   7.861   4.145   1.727  0.5238 -0.1507  0.0340
   25MOL   C27111839   7.930   4.271   1.699  0.5892  0.5103  0.1558
   25MOL   S27211840   7.954   4.093   2.118  0.3313 -0.3470  0.0698
   25MOL   O27311841   7.823   4.033   2.159  0.9146  0.0035 -0.2947
   25MOL   O27411842   8.007   4.200   2.204 -0.0392  1.1086 -0.4978
   25MOL   C27511843   8.078   3.965   2.088 -0.2157 -0.5404 -1.0181
   25MOL   C27611844   8.063   3.834   2.142 -0.1513 -1.4492  0.7673
   25MOL   C27711845   8.160   3.739   2.115  0.4057 -1.0109 -0.1537
   25MOL   C27811846   8.267   3.769   2.032  0.1284  0.1039  0.2088
   25MOL   C27911847   8.285   3.896   1.976  0.1500  0.9934 -0.1331
   25MOL   C28011848   8.186   4.000   2.007 -0.2782  0.5944 -0.0281
   25MOL   O28111849   8.357   3.673   1.992  0.2983  0.2413  0.2282
   25MOL   H28211850   8.074   4.413   1.780 -0.7629  0.8465 -0.8775
   25MOL   H28311851   8.064   4.327   2.003 -0.3858  1.3032 -0.1780
   25MOL   H28411852   7.810   3.998   1.869  1.5223 -0.8420 -0.2398
   25MOL   H28511853   7.814   4.095   1.643  1.6398 -1.4393  0.1580
   25MOL   H28611854   7.973   3.811   2.198 -0.7676  1.0441  0.8557
   25MOL   H28711855   8.146   3.641   2.157 -0.6873 -0.7040  0.2084
   25MOL   H28811856   8.360   3.927   1.906  1.4281  1.0705  1.2581
   25MOL   H28911857   8.200   4.096   1.960 -1.0295 -0.1353 -1.7769
   25MOL   C29011858   0.013   3.669   1.762 -0.8118 -0.0276  0.5345
   25MOL   C29111859   8.410   3.634   1.633  0.0041 -0.4051  0.3471
   25MOL   C29211860   8.294   3.549   1.608  0.2734  0.0356  0.0665
   25MOL   C29311861   8.211   3.498   1.716 -0.1516 -0.1078  0.2637
   25MOL   C29411862   8.243   3.539   1.843  0.0189 -1.3025  0.9736
   25MOL   C29511863   8.347   3.631   1.860  0.5109  0.0546 -0.0435
   25MOL   S29611864   8.252   3.503   1.439 -0.2222  0.5218 -0.3864
   25MOL   O29711865   8.105   3.496   1.428 -0.0527  0.1576  0.4320
   25MOL   O29811866   8.333   3.386   1.408 -0.7571  1.0284 -0.1579
   25MOL   C29911867   8.308   3.626   1.323 -0.6458  0.1379 -0.9567
   25MOL   C30011868   8.300   3.582   1.192  0.5241  0.1907  0.6444
   25MOL   C30111869   8.350   3.658   1.082 -0.1000  0.3531 -0.1300
   25MOL   C30211870   8.386   3.794   1.111 -0.7410 -0.1931 -0.5689
   25MOL   C30311871   8.397   3.841   1.246 -0.5069  0.7787  0.5834
   25MOL   C30411872   8.358   3.758   1.356  1.2108  0.0056 -0.1893
   25MOL   O30511873   8.425   3.874   1.007 -0.6530 -0.6062  0.1316
   25MOL   H30611874   0.097   3.735   1.783  0.6850 -1.2285 -1.4557
   25MOL   H30711875   0.055   3.670   1.558  3.3687 -3.8455  1.6620
   25MOL   H30811876   8.119   3.445   1.694 -1.7349  2.6517 -0.0760
   25MOL   H30911877   8.178   3.522   1.927 -1.9701 -2.2332 -0.7278
   25MOL   H31011878   8.273   3.480   1.168 -0.8834  1.0868 -1.8223
   25MOL   H31111879   8.345   3.625   0.980  1.2495  2.5621 -0.9227
   25MOL   H31211880   0.018   3.937   1.261 -3.7371  2.5925 -0.6222
   25MOL   H31311881   8.355   3.801   1.455  0.8943 -1.0370  0.2565
   25MOL   C31411882   0.175   3.763   0.875  0.6099 -0.1256  1.0272
   25MOL   C31511883   0.309   3.766   0.840  0.0866  0.3011  0.2790
   25MOL   C31611884   0.402   3.857   0.897  0.3027 -0.4667  0.2541
   25MOL   C31711885   0.361   3.948   0.993 -0.9486 -0.1078 -0.2405
   25MOL   C31811886   0.224   3.949   1.025  0.1335  0.3374  0.2691
   25MOL   C31911887   0.130   3.861   0.967  0.0408 -0.0941 -0.0662
   25MOL   S32011888   0.569   3.867   0.842 -0.1416  0.2965 -0.0180
   25MOL   O32111889   0.658   3.901   0.956  0.1154  0.0121  1.1855
   25MOL   O32211890   0.585   3.942   0.720 -0.2440  0.2000  0.0852
   25MOL   C32311891   0.614   3.692   0.808 -0.3247 -1.0903  0.2614
   25MOL   C32411892   0.603   3.635   0.680  0.1160  0.4802 -0.2726
   25MOL   C32511893   0.620   3.494   0.671  0.3240 -0.0950 -0.9543
   25MOL   C32611894   0.654   3.419   0.784  0.2913  0.3754 -0.6196
   25MOL   C32711895   0.658   3.480   0.915  0.2558 -0.4350 -0.7656
   25MOL   C32811896   0.638   3.619   0.924 -0.2726  0.6751 -0.1146
   25MOL   O32911897   0.662   3.284   0.768  0.0366 -0.6633 -0.7762
   25MOL   H33011898   0.112   3.689   0.826  2.5308 -0.9519 -0.2775
   25MOL   H33111899   0.331   3.698   0.760 -1.4180 -2.6061  2.2181
   25MOL   H33211900   0.426   4.017   1.045 -1.0603 -0.8361  0.8792
   25MOL   H33311901   0.184   4.018   1.098  1.8677  2.5630 -0.8461
   25MOL   H33411902   0.576   3.712   0.610 -0.5748 -0.2531 -0.8197
   25MOL   H33511903   0.602   3.449   0.575 -0.8668  0.7222 -1.1312
   25MOL   H33611904   0.676   3.429   1.009 -0.0779 -0.5980 -0.7872
   25MOL   H33711905   0.634   3.670   1.019 -0.1089 -0.2662  0.3988
   25MOL   C33811906   0.529   3.134   0.908  0.3241 -0.0694 -0.7374
   25MOL   C33911907   0.511   3.031   0.999  0.9634  0.0865  0.3494
   25MOL   C34011908   0.628   2.988   1.062  0.5328  0.3834  0.7692
   25MOL   C34111909   0.756   3.039   1.021 -0.2321 -0.2524 -0.4916
   25MOL   C34211910   0.771   3.148   0.935 -0.0749 -0.7627  0.1617
   25MOL   C34311911   0.653   3.198   0.874  0.7031 -0.1356  0.1417
   25MOL   S34411912   0.634   2.859   1.181  0.5940 -0.0986 -0.2459
   25MOL   O34511913   0.767   2.796   1.170 -0.7753  0.1773  0.5070
   25MOL   O34611914   0.511   2.780   1.164 -0.2436  0.3221 -0.7141
   25MOL   C34711915   0.637   2.949   1.341 -0.1654 -0.0979 -0.4526
   25MOL   C34811916   0.765   2.986   1.396  0.2517  0.1203 -0.3957
   25MOL   C34911917   0.766   3.050   1.524 -0.0305  0.2449  0.5741
   25MOL   C35011918   0.643   3.075   1.593 -0.6727  0.2261 -0.2752
   25MOL   C35111919   0.517   3.043   1.536  0.2358 -0.2978 -0.1186
   25MOL   C35211920   0.516   2.980   1.410 -0.5564 -0.1640  0.3279
   25MOL   O35311921   0.649   3.140   1.712 -0.1413  0.5227  0.2301
   25MOL   H35411922   0.445   3.161   0.844  1.1793  1.7695 -1.1303
   25MOL   H35511923   0.415   2.990   1.027  0.9268  0.0611  0.1876
   25MOL   H35611924   0.845   3.011   1.074 -1.1987 -1.0984  0.7361
   25MOL   H35711925   0.868   3.188   0.905 -0.7590 -0.3399 -1.5814
   25MOL   H35811926   0.857   2.957   1.348 -0.0759 -0.2994 -0.7808
   25MOL   H35911927   0.863   3.074   1.563  0.4148 -1.0823  0.2951
   25MOL   H36011928   0.425   3.055   1.591  0.2499 -1.2936  0.1274
   25MOL   H36111929   0.421   2.959   1.364  1.0635 -1.2225 -2.7440
   25MOL   C36211930   0.640   2.933   1.836 -1.1871  0.3898  0.4304
   25MOL   C36311931   0.685   2.857   1.944  0.2456  0.1936 -0.0496
   25MOL   C36411932   0.780   2.911   2.032 -0.0768 -0.1169 -0.3157
   25MOL   C36511933   0.831   3.042   2.016  0.1905  0.0131 -0.2613
   25MOL   C36611934   0.783   3.119   1.908 -0.3630 -0.0622  0.5477
   25MOL   C36711935   0.686   3.061   1.822 -0.1414 -0.4026  0.0191
   25MOL   S36811936   0.838   2.812   2.169  0.0306 -0.2080 -0.0996
   25MOL   O36911937   0.969   2.758   2.135 -0.1566 -0.2120  0.4289
   25MOL   O37011938   0.730   2.722   2.197 -0.2807  0.5252 -0.1309
   25MOL   C37111939   0.850   2.912   2.318  0.1099 -0.4130 -0.2490
   25MOL   C37211940   0.963   2.997   2.335  0.0879  0.7363  0.0391
   25MOL   C37311941   0.979   3.060   2.463  0.1649 -0.4128 -0.0398
   25MOL   C37411942   0.900   3.032   2.573  0.2375 -1.4596  0.6790
   25MOL   C37511943   0.780   2.954   2.550 -0.3540  0.5329  0.3846
   25MOL   C37611944   0.760   2.890   2.422  0.2043 -0.3856 -1.1367
   25MOL   O37711945   0.929   3.084   2.696  0.1633  0.3571  0.0779
   25MOL   H37811946   0.555   2.893   1.782 -0.1737  1.1788 -1.8068
   25MOL   H37911947   0.641   2.760   1.958  1.5268 -0.4956 -0.7013
   25MOL   H38011948   0.902   3.089   2.082  0.8164 -0.9252 -0.2694
   25MOL   H38111949   0.817   3.219   1.887 -0.0582 -0.3574 -0.3602
   25MOL   H38211950   1.029   3.021   2.253 -0.3710  2.5678  0.1770
   25MOL   H38311951   1.059   3.132   2.473  0.2240 -0.4932  0.0718
   25MOL   H38411952   0.714   2.937   2.635  1.4920 -0.7780  1.5971
   25MOL   H38511953   0.689   2.812   2.397  0.8270 -0.6209 -2.2189
   25MOL   C38611954   0.778   3.222   2.835 -0.8097  0.4957 -0.0359
   25MOL   C38711955   0.690   3.225   2.944  0.5013  0.0514  0.6536
   25MOL   C38811956   0.661   3.103   3.015  0.5521  0.0138  0.2407
   25MOL   C38911957   0.727   2.984   2.984  0.2554  0.3878  1.5380
   25MOL   C39011958   0.808   2.982   2.870 -0.1559  0.2800  0.9703
   25MOL   C39111959   0.834   3.096   2.795  0.3200 -0.8586 -0.8260
   25MOL   S39211960   0.537   3.103   3.143  0.1701 -0.1221 -0.1519
   25MOL   O39311961   0.586   3.008   3.243 -0.1018  0.3619  0.4401
   25MOL   O39411962   0.411   3.082   3.073 -0.4381  0.4060 -0.2720
   25MOL   C39511963   0.531   3.269   3.213 -0.0264 -1.2764  0.1314
   25MOL   C39611964   0.628   3.299   3.315  0.4612  0.0446  0.1516
   25MOL   C39711965   0.629   3.422   3.380  0.6435  0.1432 -0.0975
   25MOL   C39811966   0.547   3.525   3.331 -0.1175 -0.3164 -0.0464
   25MOL   C39911967   0.454   3.499   3.225  0.1531  0.0287  0.4148
   25MOL   C40011968   0.453   3.374   3.161  0.5831 -0.6161  0.1663
   25MOL   O40111969   0.554   3.647   3.388  0.2756 -0.3652  0.1156
   25MOL   H40211970   0.811   3.313   2.788  0.5583  0.9752  1.7969
   25MOL   H40311971   0.666   3.325   2.977  1.7601  0.3844  0.5773
   25MOL   H40411972   0.700   2.899   3.045 -2.1167  0.8987  1.2286
   25MOL   H40511973   0.847   2.886   2.838 -1.0874  0.3892 -0.5723
   25MOL   H40611974   0.694   3.218   3.339 -0.0319  0.1960  2.0428
   25MOL   H40711975   0.706   3.437   3.455 -0.2549 -0.0575  0.8868
   25MOL   H40811976   0.394   3.585   3.200  1.3959  0.5782 -0.7631
   25MOL   H40911977   0.387   3.351   3.078  2.4961  0.5595 -1.7498
   25MOL   C41011978   0.487   3.852   3.299 -0.1291  0.2890 -0.5499
   25MOL   C41111979   0.510   3.976   3.238  0.3918  0.4940  0.4907
   25MOL   C41211980   0.638   3.989   3.181 -0.5603 -0.8495  0.5836
   25MOL   C41311981   0.740   3.891   3.199 -0.0139  0.0932  0.3639
   25MOL   C41411982   0.711   3.771   3.265 -0.2409 -0.4393  0.4114
   25MOL   C41511983   0.584   3.752   3.317 -0.1217  0.1591  1.3961
   25MOL   S41611984   0.676   4.140   3.096 -0.4424  0.2192  0.4084
   25MOL   O41711985   0.823   4.152   3.092 -0.0615 -0.1523  0.4462
   25MOL   O41811986   0.613   4.242   3.170 -0.2113  0.4840 -0.2943
   25MOL   C41911987   0.615   4.131   2.927 -0.1284 -0.6939  0.1370
   25MOL   C42011988   0.614   4.004   2.865 -0.3678 -0.7112  0.5950
   25MOL   C42111989   0.577   3.998   2.727 -0.6005  0.4091  1.0641
   25MOL   C42211990   0.557   4.112   2.651  0.8183  0.2959 -0.6276
   25MOL   C42311991   0.565   4.239   2.714  0.8818  0.4155 -0.0989
   25MOL   C42411992   0.584   4.249   2.854 -0.7988 -0.5005 -0.3137
   25MOL   O42511993   0.534   4.099   2.520  0.0781  0.3891 -0.0345
   25MOL   H42611994   0.387   3.839   3.338  1.1940 -0.1364  2.8448
   25MOL   H42711995   0.432   4.049   3.221 -0.2980 -0.0200  1.4040
   25MOL   H42811996   0.845   3.902   3.177 -0.0729 -0.6255 -0.3062
   25MOL   H42911997   0.784   3.701   3.302  0.4364  0.1326  0.1666
   25MOL   H43011998   0.640   3.914   2.917  2.2740 -0.8943 -0.9831
   25MOL   H43111999   0.573   3.902   2.677  1.6766  0.5986  0.4713
   25MOL   H43212000   0.569   4.325   2.649 -2.1266 -0.6888 -1.8681
   25MOL   H43312001   0.596   4.350   2.889  0.7974 -0.2880 -1.4310
   25MOL   C43412002   0.322   4.207   2.469  0.2558 -0.8022  0.9372
   25MOL   C43512003   0.181   4.202   2.447  0.1999 -0.0751 -0.3933
   25MOL   C43612004   0.121   4.078   2.446  0.0478 -0.2459  0.3963
   25MOL   C43712005   0.194   3.963   2.473  0.0555  0.3120  0.0742
   25MOL   C43812006   0.329   3.973   2.492 -0.3117  0.1095  0.2780
   25MOL   C43912007   0.399   4.095   2.493  0.8256 -0.7717 -0.1925
   25MOL   S44012008   8.372   4.052   2.424 -0.3964 -0.4367 -0.4306
   25MOL   O44112009   8.307   4.049   2.558  0.2960  0.2652 -0.0783
   25MOL   O44212010   8.350   3.943   2.329  0.3471 -0.4308  0.1506
   25MOL   C44312011   8.319   4.204   2.342  0.0291  0.0020  0.4376
   25MOL   C44412012   8.239   4.293   2.411 -0.8573 -0.2571  0.8179
   25MOL   C44512013   8.197   4.416   2.351  0.2816  0.2891 -0.5543
   25MOL   C44612014   8.240   4.450   2.221 -0.5564  0.5309 -0.2136
   25MOL   C44712015   8.321   4.359   2.149 -0.7338 -0.0342  0.6501
   25MOL   C44812016   8.348   4.233   2.210  0.2001 -0.1346  0.5072
   25MOL   O44912017   8.200   4.576   2.173  0.2875  0.2868 -0.0204
   25MOL   H45012018   0.363   4.306   2.482 -1.5841  0.0357  0.6417
   25MOL   H45112019   0.124   4.294   2.445 -1.9114 -1.3738 -1.2587
   25MOL   H45212020   0.154   3.864   2.460  0.6702  0.2681 -1.7174
   25MOL   H45312021   0.382   3.879   2.490  0.4283  0.5131  0.7958
   25MOL   H45412022   8.214   4.274   2.514 -0.5714 -2.7812  0.4510
   25MOL   H45512023   8.127   4.479   2.404 -0.1470 -0.5441 -0.1316
   25MOL   H45612024   8.355   4.383   2.050 -0.1058 -0.1811  0.8253
   25MOL   H45712025   8.404   4.164   2.147  2.2554  1.1730  0.8349
   25MOL   C45812026   8.379   4.688   2.054  0.5910 -0.3783  0.2685
   25MOL   C45912027   0.004   4.719   1.933 -0.0920  0.0777 -0.4861
   25MOL   C46012028   8.352   4.714   1.817  0.6983 -0.1646  0.2953
   25MOL   C46112029   8.221   4.669   1.818  0.2557 -0.3516  0.1965
   25MOL   C46212030   8.166   4.619   1.938  0.6843 -0.2910 -0.8852
   25MOL   C46312031   8.250   4.621   2.055 -0.2806  0.3141  0.2923
   25MOL   S46412032   0.007   4.748   1.654  0.1606  0.2929 -0.2929
   25MOL   O46512033   0.054   4.882   1.645 -0.5842 -0.0383 -0.0699
   25MOL   O46612034   8.336   4.697   1.555 -0.7750 -0.7228  0.0547
   25MOL   C46712035   0.147   4.633   1.636 -0.7678  0.2544  0.0900
   25MOL   C46812036   0.247   4.654   1.538  0.4197  0.3663  0.1316
   25MOL   C46912037   0.334   4.545   1.507 -0.5200 -0.4620  0.2977
   25MOL   C47012038   0.332   4.430   1.588  0.5677 -0.0916 -0.2119
   25MOL   C47112039   0.246   4.413   1.694  0.3195 -0.3876  0.0798
   25MOL   C47212040   0.149   4.511   1.709 -0.0073 -0.0766  0.0868
   25MOL   O47312041   0.402   4.317   1.560  0.1711  0.4756 -0.0953
   25MOL   H47412042   0.021   4.704   2.137 -1.1181  0.0002  1.5934
   25MOL   H47512043   0.108   4.745   1.934 -0.0455  0.2734  4.9680
   25MOL   H47612044   8.159   4.665   1.730  3.2248 -3.8158 -1.9225
   25MOL   H47712045   8.064   4.587   1.952  0.9353 -0.7050  0.0310
   25MOL   H47812046   0.251   4.740   1.474  1.8237  1.9813  2.3343
   25MOL   H47912047   0.404   4.558   1.426  0.9306  0.9358  1.7483
   25MOL   H48012048   0.241   4.320   1.748 -0.2042  1.0625  2.5705
   25MOL   H48112049   0.070   4.490   1.780 -2.9661 -0.9598 -3.3027
   25MOL   H48212050   0.437   4.307   1.473 -1.1136  0.1103 -0.5786
   26MOL     C112051   5.929   5.955   4.774  0.2126 -0.4626  0.7125
   26MOL     C212052   6.051   5.964   4.707 -0.3635  0.7573  0.5083
   26MOL     C312053   6.149   6.054   4.754  0.3112  0.5775  0.0998
   26MOL     C412054   6.139   6.116   4.879 -0.4792 -0.7452  0.2108
   26MOL     C512055   6.020   6.099   4.955  0.3182  0.0385  0.1357
   26MOL     C612056   5.917   6.021   4.902  0.2000  0.6212  0.1793
   26MOL     S712057   6.292   6.058   4.647 -0.7236 -0.5259 -0.1305
   26MOL     O812058   6.253   6.134   4.526  0.2132  0.3875  0.0887
   26MOL     O912059   6.342   5.922   4.623  0.5055 -0.6253  0.0499
   26MOL    C1012060   6.423   6.141   4.737 -0.2240  0.3244  0.6449
   26MOL    C1112061   6.455   6.278   4.729 -0.1415 -0.5704 -0.1447
   26MOL    C1212062   6.563   6.331   4.806 -0.0978 -0.0587 -0.0957
   26MOL    C1312063   6.636   6.238   4.884  0.3479 -0.2115 -0.4374
   26MOL    C1412064   6.607   6.106   4.890  0.0533 -0.4716 -0.6162
   26MOL    C1512065   6.506   6.058   4.813  0.3987 -0.4700  0.1087
   26MOL    O1612066   6.741   6.281   4.957 -0.0418 -0.3164  0.0086
   26MOL    H1712067   5.849   5.887   4.748 -0.9234  2.4141 -4.0202
   26MOL    H1812068   6.069   5.916   4.612  0.7704  0.8767  0.6534
   26MOL    H1912069   6.221   6.174   4.919  1.5773 -2.9313 -0.7466
   26MOL    H2012070   6.013   6.139   5.055  1.1216 -2.9616  1.4623
   26MOL    H2112071   6.384   6.338   4.672 -1.0754 -0.8873  0.6791
   26MOL    H2212072   6.588   6.435   4.815  0.5368  0.0166 -2.3275
   26MOL    H2312073   6.656   6.046   4.965 -1.2050 -1.5914 -0.6716
   26MOL    H2412074   6.477   5.953   4.811 -1.5137  0.0509 -1.2157
   26MOL    H2512075   5.828   6.014   4.963 -0.2726  2.7040 -0.2565
   26MOL    C2612076   6.690   6.263   5.197 -0.3737 -0.4464  0.2273
   26MOL    C2712077   6.661   6.338   5.314  0.2766  0.0883  0.0971
   26MOL    C2812078   6.685   6.474   5.317  0.8748 -0.0939 -0.1537
   26MOL    C2912079   6.745   6.543   5.210 -0.0672  0.5538 -0.3288
   26MOL    C3012080   6.759   6.475   5.090  0.0181  0.3370  0.5733
   26MOL    C3112081   6.727   6.337   5.082  0.6059 -0.7089 -0.4133
   26MOL    S3212082   6.640   6.564   5.463 -0.0192 -0.0853  0.3807
   26MOL    O3312083   6.743   6.663   5.498  0.7166 -0.8882 -0.0011
   26MOL    O3412084   6.606   6.460   5.565  0.5745 -0.0997  0.2773
   26MOL    C3512085   6.494   6.655   5.439  0.2363  0.4795 -0.1944
   26MOL    C3612086   6.492   6.748   5.334  0.1817 -0.2316  0.7077
   26MOL    C3712087   6.364   6.806   5.302 -0.0683 -0.3710 -0.0311
   26MOL    C3812088   6.251   6.791   5.386 -0.5637  0.9446 -0.4066
   26MOL    C3912089   6.260   6.707   5.494 -0.9650  0.7993  0.1055
   26MOL    C4012090   6.378   6.633   5.524 -0.4654  0.0228  1.2004
   26MOL    O4112091   6.131   6.847   5.348  0.4090 -0.4255  0.0240
   26MOL    H4212092   6.681   6.155   5.197  2.8550 -0.8039  2.0983
   26MOL    H4312093   6.624   6.285   5.401  0.0400 -0.4674 -0.3449
   26MOL    H4412094   6.779   6.644   5.225  0.8899  0.4817 -1.8812
   26MOL    H4512095   6.790   6.525   4.999  1.8268 -0.4690  0.7186
   26MOL    H4612096   6.577   6.766   5.271  0.3916 -2.7460  0.2318
   26MOL    H4712097   6.362   6.876   5.219 -2.2679 -0.8254 -0.4005
   26MOL    H4812098   6.177   6.697   5.563  0.2436 -1.5554  1.2467
   26MOL    H4912099   6.381   6.563   5.606 -0.6727  0.6735  1.7695
   26MOL    C5012100   6.028   6.713   5.174 -1.0625  0.4486 -0.4109
   26MOL    C5112101   5.928   6.620   5.136 -0.3566 -0.6874 -0.6571
   26MOL    C5212102   5.842   6.567   5.238 -0.2951  0.4046 -0.4005
   26MOL    C5312103   5.858   6.610   5.371 -0.2607  0.1983 -0.1561
   26MOL    C5412104   5.949   6.701   5.411 -0.1240  0.8536 -0.5157
   26MOL    C5512105   6.033   6.754   5.307  0.3963 -0.0546 -0.4696
   26MOL    S5612106   5.723   6.433   5.200  0.2174 -0.6121  0.2866
   26MOL    O5712107   5.758   6.312   5.272 -0.1821 -1.0236  0.0933
   26MOL    O5812108   5.701   6.430   5.051 -0.2752  0.1425 -0.2798
   26MOL    C5912109   5.569   6.477   5.268  0.8612 -0.1429 -0.1142
   26MOL    C6012110   5.525   6.613   5.284 -0.4314  0.8422  0.2560
   26MOL    C6112111   5.394   6.636   5.325  0.0923  0.6739 -0.3144
   26MOL    C6212112   5.318   6.529   5.379  0.5421 -0.4205  0.0577
   26MOL    C6312113   5.370   6.400   5.378 -0.8034  0.5641  0.3541
   26MOL    C6412114   5.495   6.373   5.321 -0.0124  1.3491 -0.3090
   26MOL    O6512115   5.196   6.560   5.431 -0.4798 -0.3338 -0.0082
   26MOL    H6612116   6.099   6.764   5.111  1.2729 -2.5575 -0.3283
   26MOL    H6712117   5.910   6.600   5.032 -1.4790  0.8328 -0.7643
   26MOL    H6812118   5.802   6.558   5.447  1.5949 -0.5750  0.6989
   26MOL    H6912119   5.952   6.719   5.518  1.7299 -2.8296  0.1216
   26MOL    H7012120   5.585   6.694   5.245 -0.0765 -0.7357 -2.5946
   26MOL    H7112121   5.354   6.736   5.321 -0.9727  0.2751 -0.0474
   26MOL    H7212122   5.317   6.315   5.418  1.4488 -1.1744 -0.2468
   26MOL    H7312123   5.524   6.269   5.326 -0.2148  1.3138  0.1670
   26MOL    C7412124   5.249   6.623   5.657  0.3108 -0.0422  0.0297
   26MOL    C7512125   5.216   6.599   5.794  0.6157 -0.2870 -0.1009
   26MOL    C7612126   5.137   6.486   5.836  0.3215 -0.6598 -0.0597
   26MOL    C7712127   5.094   6.397   5.736  0.9159 -0.1180 -0.6327
   26MOL    C7812128   5.125   6.417   5.597  0.5772  0.5217  0.1187
   26MOL    C7912129   5.184   6.538   5.563  0.3685 -0.8144 -1.0256
   26MOL    S8012130   5.102   6.439   5.999 -0.1280 -0.3208  0.4631
   26MOL    O8112131   5.233   6.409   6.058  0.3092 -0.5508  0.2161
   26MOL    O8212132   5.003   6.333   6.000  0.0401  0.1914 -0.0717
   26MOL    C8312133   5.041   6.570   6.088 -0.2880 -0.3662 -0.4221
   26MOL    C8412134   5.002   6.692   6.027  0.3209 -0.0996 -0.4687
   26MOL    C8512135   4.948   6.793   6.103  0.4532  0.8055  0.1600
   26MOL    C8612136   4.922   6.768   6.241  0.4348 -0.2107  0.1228
   26MOL    C8712137   4.965   6.651   6.304 -0.0866 -0.1969 -0.3723
   26MOL    C8812138   5.029   6.559   6.224  0.3191  0.3203 -0.7423
   26MOL    O8912139   4.849   6.853   6.318 -0.0852 -0.1343  0.5376
   26MOL    H9012140   5.298   6.714   5.626 -2.4109  0.8944 -1.6896
   26MOL    H9112141   5.267   6.661   5.866  0.1308  0.0976 -0.0857
   26MOL    H9212142   5.049   6.304   5.769 -3.7885  2.6187  1.1242
   26MOL    H9312143   5.084   6.349   5.524  1.1617  0.9452 -0.6179
   26MOL    H9412144   5.010   6.704   5.920  0.1686 -2.2895 -0.7350
   26MOL    H9512145   4.917   6.884   6.053 -3.8966 -0.6031  0.1111
   26MOL    H9612146   4.958   6.634   6.411  2.6667  0.2103 -0.0884
   26MOL    H9712147   5.061   6.470   6.276  0.7648  1.0009  0.1653
   26MOL    C9812148   5.024   6.999   6.397  0.9273  0.4549 -0.2921
   26MOL    C9912149   5.070   7.131   6.422 -0.0975 -0.4608 -0.4177
   26MOL   C10012150   4.998   7.241   6.370  0.2311  0.0595  0.7573
   26MOL   C10112151   4.885   7.225   6.289  0.0833 -0.1532 -0.2029
   26MOL   C10212152   4.833   7.093   6.273  0.5910  0.3524  0.0005
   26MOL   C10312153   4.901   6.982   6.325 -0.2899  0.3818 -0.6434
   26MOL   S10412154   5.060   7.411   6.419 -0.1733 -0.1833 -0.1850
   26MOL   O10512155   5.161   7.390   6.528  0.0881 -0.2019 -0.2636
   26MOL   O10612156   4.950   7.512   6.422  0.1075  0.2194 -0.3371
   26MOL   C10712157   5.155   7.453   6.273  0.4269 -0.2331  0.2150
   26MOL   C10812158   5.275   7.377   6.242  0.4104  0.4959 -0.2328
   26MOL   C10912159   5.354   7.398   6.128 -0.1531 -0.2523  0.1107
   26MOL   C11012160   5.313   7.494   6.032  0.3521  0.3598  0.4072
   26MOL   C11112161   5.196   7.565   6.064  0.5073  0.2144 -0.0279
   26MOL   C11212162   5.118   7.554   6.180 -0.4948  0.0325 -0.1971
   26MOL   O11312163   5.371   7.503   5.914  0.2114  0.0915  0.8523
   26MOL   H11412164   5.078   6.915   6.439 -0.1813  0.2700  0.7944
   26MOL   H11512165   5.164   7.148   6.472  0.0100  0.2260 -0.8369
   26MOL   H11612166   4.836   7.312   6.247  1.0493  0.5253  0.0483
   26MOL   H11712167   4.738   7.079   6.222 -0.1622 -0.2147  1.5190
   26MOL   H11812168   5.295   7.291   6.304 -0.3112  1.1977  0.9976
   26MOL   H11912169   5.450   7.349   6.120 -1.4761 -3.1842  1.2938
   26MOL   H12012170   5.143   7.634   5.999 -0.5319  0.1556  0.7532
   26MOL   H12112171   5.024   7.607   6.186 -1.5619 -1.9195  0.4440
   26MOL   C12212172   5.218   7.364   5.785  0.3072  0.7178  1.2778
   26MOL   C12312173   5.199   7.263   5.690 -0.8726  0.5175  0.6027
   26MOL   C12412174   5.305   7.196   5.631 -0.7556  0.4912 -0.2320
   26MOL   C12512175   5.435   7.243   5.666  0.2617 -0.4839  0.0012
   26MOL   C12612176   5.457   7.341   5.758  0.1692 -0.4819 -0.1401
   26MOL   C12712177   5.352   7.408   5.821  1.6813  0.4135  0.3918
   26MOL   S12812178   5.288   7.054   5.515  0.0434  0.4208 -0.2286
   26MOL   O12912179   5.401   6.962   5.541 -0.7245 -0.1741 -0.4075
   26MOL   O13012180   5.279   7.119   5.382  0.2587  0.2372  0.9203
   26MOL   C13112181   5.139   6.964   5.545 -0.2588 -0.6571 -0.5823
   26MOL   C13212182   5.072   6.921   5.430  0.2775 -0.2994 -0.1164
   26MOL   C13312183   4.961   6.840   5.444  0.3190  0.2093 -0.0319
   26MOL   C13412184   4.904   6.820   5.573 -0.2111 -0.1561 -0.1306
   26MOL   C13512185   4.971   6.871   5.688  0.2389 -0.5974  0.6329
   26MOL   C13612186   5.093   6.946   5.678  0.1741  0.3435 -0.1639
   26MOL   O13712187   4.784   6.758   5.581  0.3603 -0.2405 -0.1243
   26MOL   H13812188   5.139   7.420   5.833  0.0390  0.0967  1.5629
   26MOL   H13912189   5.101   7.229   5.658  0.0354 -1.6125  0.0127
   26MOL   H14012190   5.516   7.205   5.606 -0.6032 -1.6917 -0.4218
   26MOL   H14112191   5.562   7.359   5.778 -0.1012  1.0737 -0.0614
   26MOL   H14212192   5.119   6.938   5.334  0.5781 -0.6933 -0.0409
   26MOL   H14312193   4.925   6.808   5.347 -2.3501 -1.8109  1.5640
   26MOL   H14412194   4.929   6.862   5.787 -0.3869 -0.8636  0.3415
   26MOL   H14512195   5.139   6.999   5.760  1.9552  2.4628 -2.4618
   26MOL   C14612196   4.751   6.616   5.781 -0.6384 -0.8098  0.1477
   26MOL   C14712197   4.679   6.587   5.897 -0.5787  0.6006 -0.0758
   26MOL   C14812198   4.566   6.663   5.929 -0.0763  0.2439 -0.1462
   26MOL   C14912199   4.531   6.777   5.855 -0.3882  0.4908 -0.3621
   26MOL   C15012200   4.616   6.819   5.746 -0.3021 -0.2197 -0.4507
   26MOL   C15112201   4.724   6.734   5.702  0.5284  1.1142  0.1824
   26MOL   S15212202   4.465   6.611   6.068 -0.2645 -0.3589 -0.2576
   26MOL   O15312203   4.547   6.513   6.140 -0.5586  0.4255 -0.4089
   26MOL   O15412204   4.344   6.564   6.006  0.0713 -0.4147 -0.3804
   26MOL   C15512205   4.441   6.755   6.168  0.2568  0.7703 -0.5150
   26MOL   C15612206   4.330   6.833   6.134 -0.4206  0.7151 -0.4449
   26MOL   C15712207   4.313   6.952   6.207  0.2200  0.1597 -0.4959
   26MOL   C15812208   4.408   6.997   6.297 -0.7514 -0.7293  0.4621
   26MOL   C15912209   4.512   6.907   6.338  0.4388  0.2402  0.1371
   26MOL   C16012210   4.525   6.789   6.273  0.3928 -0.6730 -0.1319
   26MOL   O16112211   4.390   7.122   6.351  0.2450 -0.0046  0.4188
   26MOL   H16212212   4.827   6.541   5.765 -2.0450 -1.7967 -2.2798
   26MOL   H16312213   4.708   6.504   5.960  0.0790 -0.6707 -1.9803
   26MOL   H16412214   4.446   6.835   5.886  0.1377  0.9761  0.1921
   26MOL   H16512215   4.590   6.900   5.680 -1.6763 -0.8850 -0.7434
   26MOL   H16612216   4.258   6.804   6.059  0.6890  0.4787 -1.4488
   26MOL   H16712217   4.227   7.015   6.194  0.5886  0.4442 -1.6586
   26MOL   H16812218   4.585   6.944   6.408  0.5336  1.0630 -0.3900
   26MOL   H16912219   4.615   6.733   6.291  1.7787  1.6775  0.4449
   26MOL   C17012220   4.375   7.245   6.553 -0.3039 -1.1928  0.2754
   26MOL   C17112221   4.331   7.265   6.683 -0.2414  0.0097 -0.9944
   26MOL   C17212222   4.248   7.173   6.735 -0.3873  0.3551 -0.2760
   26MOL   C17312223   4.204   7.064   6.658  0.1113 -0.0692  0.2319
   26MOL   C17412224   4.249   7.043   6.532 -0.0895  0.1771 -0.2628
   26MOL   C17512225   4.333   7.140   6.472  0.1368 -0.8641  0.2418
   26MOL   S17612226   4.168   7.206   6.892  0.4346 -0.0741 -0.0677
   26MOL   O17712227   4.259   7.284   6.974  0.3199 -0.3537  0.2893
   26MOL   O17812228   4.128   7.077   6.942 -0.2061  0.2991  0.0243
   26MOL   C17912229   4.024   7.302   6.854  0.4190 -1.0524 -0.2153
   26MOL   C18012230   4.007   7.419   6.934 -0.4063 -0.5654 -0.2859
   26MOL   C18112231   3.888   7.494   6.914  0.3446 -1.2548  0.4473
   26MOL   C18212232   3.790   7.456   6.820  0.7147  0.0485 -0.7011
   26MOL   C18312233   3.803   7.336   6.751  1.0145 -0.3470  0.3760
   26MOL   C18412234   3.927   7.265   6.758  0.4293  0.4858 -1.0196
   26MOL   O18512235   3.678   7.535   6.806  0.4133 -0.9556  0.1733
   26MOL   H18612236   4.435   7.319   6.502 -1.7714 -0.8941 -1.0721
   26MOL   H18712237   4.355   7.355   6.736  0.1203 -0.8511  0.3311
   26MOL   H18812238   4.129   6.994   6.694 -2.7689  1.9637 -1.6512
   26MOL   H18912239   4.203   6.963   6.476  1.8170  0.4427 -2.2905
   26MOL   H19012240   4.085   7.452   7.001 -0.6279 -0.9133  0.1544
   26MOL   H19112241   3.882   7.591   6.963 -2.0647 -1.2993  0.2686
   26MOL   H19212242   3.725   7.305   6.682  1.0550 -0.8436  0.5486
   26MOL   H19312243   3.940   7.173   6.703 -0.5617 -0.4221  0.2410
   26MOL   C19412244   3.481   7.417   6.868  0.2589  0.3196 -0.2859
   26MOL   C19512245   3.378   7.402   6.958  0.3774 -0.2106 -0.7146
   26MOL   C19612246   3.362   7.487   7.068 -0.5953 -0.0474 -0.0750
   26MOL   C19712247   3.459   7.592   7.090  0.2136 -0.5118 -0.2284
   26MOL   C19812248   3.563   7.597   6.999  0.6791 -0.7678  0.2854
   26MOL   C19912249   3.576   7.516   6.889 -0.9319 -0.6120  0.2445
   26MOL   S20012250   3.237   7.457   7.191 -0.2131  0.4492  0.0449
   26MOL   O20112251   3.257   7.315   7.226  0.1968 -0.2832  0.0702
   26MOL   O20212252   3.107   7.493   7.132 -1.2115 -0.9129  0.9519
   26MOL   C20312253   3.280   7.545   7.340  0.1848 -0.3776 -0.6678
   26MOL   C20412254   3.374   7.489   7.429 -0.6904 -0.1848  0.4515
   26MOL   C20512255   3.423   7.572   7.534  0.8603 -0.3369  0.4209
   26MOL   C20612256   3.368   7.703   7.555  0.7226 -0.3410  0.2299
   26MOL   C20712257   3.274   7.754   7.463 -0.0836 -0.1269 -0.5993
   26MOL   C20812258   3.224   7.675   7.356  0.2003 -0.5941 -0.3432
   26MOL   O20912259   3.415   7.791   7.651 -0.6384 -0.2997 -0.4355
   26MOL   H21012260   3.495   7.351   6.784  1.9686 -0.2995  0.4531
   26MOL   H21112261   3.309   7.321   6.942 -0.6587  0.6136 -0.4962
   26MOL   H21212262   3.449   7.660   7.173 -0.3779 -0.6863 -0.1507
   26MOL   H21312263   3.635   7.675   7.021  1.2637 -1.4551  0.8184
   26MOL   H21412264   3.405   7.387   7.416  0.2772 -0.1953  2.6594
   26MOL   H21512265   3.500   7.527   7.596  1.6424 -0.2206 -0.4483
   26MOL   H21612266   3.227   7.851   7.473 -2.0696 -1.1713  0.5249
   26MOL   H21712267   3.150   7.703   7.283  0.6078  0.2791 -0.4269
   26MOL   C21812268   3.628   7.761   7.745 -0.3012  0.7610  0.0491
   26MOL   C21912269   3.705   7.725   7.855  0.4211 -1.0063 -0.0451
   26MOL   C22012270   3.653   7.685   7.979 -0.4775  0.2696 -0.2720
   26MOL   C22112271   3.515   7.676   7.988 -0.5352  0.5661  0.6594
   26MOL   C22212272   3.430   7.709   7.881  0.4603  0.4170 -0.7207
   26MOL   C22312273   3.487   7.748   7.757 -0.2930  0.1052 -0.3589
   26MOL   S22412274   3.764   7.667   8.124  0.3504  0.3697 -0.0127
   26MOL   O22512275   3.898   7.703   8.081 -0.3520  0.0258  0.2612
   26MOL   O22612276   3.734   7.539   8.188  0.3364 -0.4519  0.0659
   26MOL   C22712277   3.715   7.792   8.244  0.5364  0.0749  0.4195
   26MOL   C22812278   3.585   7.847   8.254  0.0212 -0.0497  0.2470
   26MOL   C22912279   3.555   7.950   8.349 -0.3320  0.2934  0.0388
   26MOL   C23012280   3.647   7.992   0.017 -0.5172  0.5617  0.4529
   26MOL   C23112281   3.776   7.931   0.010  0.1640 -0.1335 -0.1532
   26MOL   C23212282   3.808   7.832   8.338  0.2590 -0.5721  0.0626
   26MOL   O23312283   3.621   8.093   0.107 -0.3098 -0.3645 -0.4126
   26MOL   H23412284   3.676   7.794   7.654 -0.7894  0.4784 -0.3142
   26MOL   H23512285   3.812   7.738   7.845  0.4078 -1.2011 -0.4365
   26MOL   H23612286   3.485   7.639   8.085 -1.9744 -3.5870 -1.2114
   26MOL   H23712287   3.324   7.718   7.900  0.5383  0.0219 -0.0923
   26MOL   H23812288   3.509   7.825   8.180  0.1048  0.5055 -0.0110
   26MOL   H23912289   3.463   8.006   8.344 -0.7901 -0.5960 -2.2608
   26MOL   H24012290   3.845   7.956   0.089  0.4336 -0.7862 -0.1792
   26MOL   H24112291   3.910   7.796   8.336  0.4005 -0.3051  2.0525
   26MOL   C24212292   3.771   8.133   0.295 -0.3650 -0.5445 -0.2172
   26MOL   C24312293   3.816   8.094   0.422  0.3099  0.3387  0.1983
   26MOL   C24412294   3.747   7.992   0.491  1.3136 -0.2424 -0.1575
   26MOL   C24512295   3.624   7.933   0.439 -0.6982  0.6084  0.0273
   26MOL   C24612296   3.578   7.975   0.310 -0.7228 -0.1931  0.7534
   26MOL   C24712297   3.657   8.068   0.239 -0.0439  0.6940 -0.4522
   26MOL   S24812298   3.825   7.929   0.647  0.3123  0.3058 -0.0196
   26MOL   O24912299   3.909   8.039   0.707 -0.2790 -0.1804  1.0761
   26MOL   O25012300   3.883   7.796   0.622  0.2193 -0.0800  0.2019
   26MOL   C25112301   3.693   7.904   0.762 -0.2021  0.1053 -0.1506
   26MOL   C25212302   3.701   7.796   0.848  0.1726 -0.0076  0.2073
   26MOL   C25312303   3.609   7.775   0.951 -0.0865 -0.0449 -0.2019
   26MOL   C25412304   3.491   7.864   0.959 -1.1584  0.0925  0.2059
   26MOL   C25512305   3.481   7.959   0.861 -0.0398 -0.3436  0.8962
   26MOL   C25612306   3.586   7.992   0.768  0.4268 -0.8066  0.0415
   26MOL   O25712307   3.392   7.844   1.053  0.0328  0.2527 -0.1031
   26MOL   H25812308   3.832   8.205   0.243 -0.8922 -1.2990 -1.9011
   26MOL   H25912309   3.899   8.148   0.463  0.8902  1.1311 -1.9654
   26MOL   H26012310   3.573   7.854   0.492 -0.2254 -0.6976 -1.3928
   26MOL   H26112311   3.483   7.943   0.269 -0.0109  0.2351 -1.2994
   26MOL   H26212312   3.780   7.724   0.836 -0.0711 -0.0006 -1.7455
   26MOL   H26312313   3.617   7.680   1.001 -1.9799 -0.1367 -0.0431
   26MOL   H26412314   3.397   8.027   0.867 -0.1821 -0.4276 -0.0416
   26MOL   H26512315   3.574   8.080   0.706 -2.1053 -2.1063 -1.3675
   26MOL   C26612316   3.306   7.621   1.057  0.5870 -0.0540  0.1619
   26MOL   C26712317   3.205   7.527   1.020 -0.4183  1.2448 -0.5490
   26MOL   C26812318   3.088   7.568   0.962  0.4097  0.5152 -0.2027
   26MOL   C26912319   3.079   7.703   0.916 -0.4893  0.4838  0.0316
   26MOL   C27012320   3.184   7.794   0.939 -0.4690  0.0301  0.8590
   26MOL   C27112321   3.296   7.755   1.012 -0.0351 -0.3709 -0.4306
   26MOL   S27212322   2.956   7.456   0.912 -0.2718  0.0927 -0.1977
   26MOL   O27312323   2.973   7.421   0.770  0.1902  0.2258  0.1663
   26MOL   O27412324   2.824   7.512   0.958 -0.0174 -0.6399  0.4155
   26MOL   C27512325   2.985   7.305   1.012  0.3564 -0.1560  0.0466
   26MOL   C27612326   3.070   7.202   0.973  0.7509  0.1000 -0.2565
   26MOL   C27712327   3.086   7.092   1.060 -0.1370 -0.6393  0.6721
   26MOL   C27812328   3.034   7.096   1.188  0.5201  0.1820 -0.3086
   26MOL   C27912329   2.963   7.205   1.229  0.5819  0.3006 -0.1976
   26MOL   C28012330   2.927   7.310   1.142  0.3646 -0.5170  0.2870
   26MOL   O28112331   3.052   6.990   1.281 -0.4246  0.4574  0.4027
   26MOL   H28212332   3.399   7.603   1.108  0.8662 -3.5458 -1.4334
   26MOL   H28312333   3.211   7.430   1.067  0.4381  1.4971 -0.1326
   26MOL   H28412334   2.994   7.731   0.856 -1.7126 -0.0208  1.4769
   26MOL   H28512335   3.175   7.896   0.905 -2.3458 -0.0426  1.1204
   26MOL   H28612336   3.118   7.193   0.877 -0.7752  0.6412 -1.0882
   26MOL   H28712337   3.140   7.003   1.033  0.8746 -0.1632  1.0842
   26MOL   H28812338   2.930   7.220   1.331  0.5363 -0.9919 -0.0174
   26MOL   H28912339   2.858   7.389   1.170 -1.8051 -2.3315  0.2263
   26MOL   C29012340   2.926   6.808   1.401 -0.0938 -0.1224 -0.5536
   26MOL   C29112341   2.834   6.704   1.403  0.6829 -0.0158  0.0753
   26MOL   C29212342   2.774   6.662   1.279  0.4129  0.4455 -0.2941
   26MOL   C29312343   2.810   6.736   1.162  0.5533  0.9023  0.2154
   26MOL   C29412344   2.898   6.843   1.162 -0.2624  0.1884 -0.3455
   26MOL   C29512345   2.955   6.889   1.285 -0.6703 -0.6484 -0.4212
   26MOL   S29612346   2.662   6.523   1.287  0.3184 -0.0575 -0.0721
   26MOL   O29712347   2.579   6.541   1.406 -0.0070 -0.1660  0.4087
   26MOL   O29812348   2.738   6.395   1.268 -0.2283  0.0719  1.0675
   26MOL   C29912349   2.559   6.542   1.137  0.6172 -0.8104 -0.3297
   26MOL   C30012350   2.593   6.465   1.026 -1.1006  0.4114 -0.1250
   26MOL   C30112351   2.521   6.466   0.906  0.4711 -0.4588  0.3236
   26MOL   C30212352   2.406   6.544   0.898 -0.7768 -0.4603  0.2524
   26MOL   C30312353   2.370   6.618   1.012 -0.5743 -0.1343 -0.7448
   26MOL   C30412354   2.444   6.612   1.133  0.1394 -0.6041 -0.0779
   26MOL   O30512355   2.321   6.537   0.787  0.2107  0.3036  0.2850
   26MOL   H30612356   2.976   6.826   1.495  1.8911 -1.3269 -1.3640
   26MOL   H30712357   2.805   6.651   1.493 -0.0636  0.0620 -0.1179
   26MOL   H30812358   2.775   6.697   1.068  2.0809 -0.1187  0.0491
   26MOL   H30912359   2.919   6.894   1.069  1.8301 -1.3798 -0.7725
   26MOL   H31012360   2.685   6.409   1.033 -0.9453  0.8408  1.4469
   26MOL   H31112361   2.553   6.394   0.831 -0.1426 -0.7626  0.3445
   26MOL   H31212362   2.276   6.672   1.013 -1.7354 -2.1157 -0.7880
   26MOL   H31312363   2.398   6.667   1.214 -1.3493 -2.4311  0.3398
   26MOL   C31412364   2.437   6.691   0.650  0.4621  0.3257  0.6045
   26MOL   C31512365   2.484   6.724   0.519  0.2163 -0.2474  0.3549
   26MOL   C31612366   2.486   6.628   0.418 -0.3564 -0.1972 -0.0383
   26MOL   C31712367   2.433   6.503   0.441  0.1544  0.0796  0.8738
   26MOL   C31812368   2.371   6.469   0.558 -0.0198 -0.3338 -0.0746
   26MOL   C31912369   2.378   6.567   0.666 -0.2931  0.9469  0.1502
   26MOL   S32012370   2.546   6.679   0.259  0.4133  0.0655 -0.5803
   26MOL   O32112371   2.589   6.561   0.187 -0.2254 -0.4917 -0.0475
   26MOL   O32212372   2.647   6.784   0.283 -0.5355 -0.0008 -0.1395
   26MOL   C32312373   2.397   6.753   0.191  0.1864 -0.6818  0.1274
   26MOL   C32412374   2.306   6.672   0.124  0.5139 -0.0456  0.0241
   26MOL   C32512375   2.199   6.739   0.063 -0.3979 -0.1031 -0.4706
   26MOL   C32612376   2.167   6.874   0.074 -0.0562 -0.5466  0.9579
   26MOL   C32712377   2.257   6.949   0.157  0.1386 -0.4197 -0.2357
   26MOL   C32812378   2.372   6.887   0.210  0.4731  0.4214  0.4341
   26MOL   O32912379   2.064   6.931   0.007 -0.1488  0.7101 -0.8077
   26MOL   H33012380   2.440   6.767   0.726 -0.6833  3.4386 -2.3030
   26MOL   H33112381   2.535   6.818   0.502 -0.7033  0.2317  0.2016
   26MOL   H33212382   2.416   6.427   0.366  0.1776  0.6964  0.2326
   26MOL   H33312383   2.299   6.390   0.566 -0.7353  0.2392 -0.7325
   26MOL   H33412384   2.317   6.565   0.108  0.9259  0.2228 -1.5507
   26MOL   H33512385   2.134   6.670   0.012  0.8347 -0.2855 -1.8260
   26MOL   H33612386   2.235   7.055   0.165  1.0498 -0.3161  1.0028
   26MOL   H33712387   2.429   6.944   0.282  0.2961 -1.1571  1.8586
   26MOL   C33812388   2.083   6.936   8.194  0.3697 -0.0798  0.5139
   26MOL   C33912389   2.108   7.019   8.081  0.4277 -0.4553  0.1221
   26MOL   C34012390   2.152   7.153   8.091 -0.3590  0.2368 -0.4422
   26MOL   C34112391   2.156   7.213   8.216 -0.2181  0.1142 -0.1471
   26MOL   C34212392   2.131   7.132   8.331 -0.3513 -0.0419  0.2200
   26MOL   C34312393   2.094   6.997   8.319 -0.4519  0.5507  0.3247
   26MOL   S34412394   2.181   7.257   7.943  0.0776 -0.1000 -0.1748
   26MOL   O34512395   2.248   7.168   7.848 -0.3097 -0.0419 -0.3734
   26MOL   O34612396   2.249   7.377   7.986  0.8623  0.1306  0.2842
   26MOL   C34712397   2.012   7.283   7.885 -0.3195 -0.2843  0.1291
   26MOL   C34812398   1.949   7.411   7.902  0.4458 -0.1486  0.0753
   26MOL   C34912399   1.816   7.432   7.858  0.2262 -0.4504 -0.5456
   26MOL   C35012400   1.743   7.326   7.797  0.2210  0.5125 -0.2214
   26MOL   C35112401   1.808   7.204   7.790  0.1219  0.0502  0.4757
   26MOL   C35212402   1.938   7.178   7.834  0.0174 -0.0598 -0.3246
   26MOL   O35312403   1.611   7.338   7.750  0.4031 -0.0953 -0.0175
   26MOL   H35412404   2.058   6.834   8.169 -0.7079 -0.0115  1.2968
   26MOL   H35512405   2.108   6.985   7.978  0.1223 -1.4091  0.4267
   26MOL   H35612406   2.182   7.317   8.230 -1.2697  0.3671 -0.0274
   26MOL   H35712407   2.127   7.172   0.006 -3.6561 -0.1985  0.1963
   26MOL   H35812408   2.008   7.491   7.945  1.4224 -1.3564  1.0006
   26MOL   H35912409   1.765   7.526   7.876  2.3086  0.6223 -0.1348
   26MOL   H36012410   1.758   7.123   7.738  0.8212 -0.9067  1.2813
   26MOL   H36112411   1.978   7.081   7.810 -0.7061 -0.5880  0.5463
   26MOL   C36212412   1.606   7.348   7.505  0.3642 -0.5166 -0.1890
   26MOL   C36312413   1.574   7.291   7.381 -0.9190 -0.5972 -0.2168
   26MOL   C36412414   1.537   7.150   7.375 -0.0239 -0.5486 -0.1994
   26MOL   C36512415   1.517   7.087   7.494  0.3096 -0.2990  0.5287
   26MOL   C36612416   1.535   7.147   7.616  0.6929 -0.2664 -0.1367
   26MOL   C36712417   1.579   7.280   7.624  0.1904 -0.8456 -0.7196
   26MOL   S36812418   1.536   7.061   7.216 -0.1369 -0.1341  0.1765
   26MOL   O36912419   1.561   6.916   7.243  0.1398 -0.3015  0.2187
   26MOL   O37012420   1.632   7.140   7.133 -0.3555 -0.1184  0.1925
   26MOL   C37112421   1.379   7.093   7.148 -0.6677 -0.5532  0.5645
   26MOL   C37212422   1.349   7.218   7.083 -0.0425  0.9664 -0.2233
   26MOL   C37312423   1.217   7.247   7.038 -1.2473 -0.1274 -0.1085
   26MOL   C37412424   1.119   7.144   7.042  0.2560 -0.0519 -0.0197
   26MOL   C37512425   1.147   7.018   7.106 -0.4836 -0.8251  0.1317
   26MOL   C37612426   1.274   7.000   7.167 -0.1489  0.2472 -0.3113
   26MOL   O37712427   0.991   7.178   6.987  0.0944 -0.0161 -0.6716
   26MOL   H37812428   1.637   7.451   7.516 -2.6523  0.3212  0.9643
   26MOL   H37912429   1.596   7.351   7.294  1.0012  1.2752  1.5009
   26MOL   H38012430   1.484   6.984   7.488 -3.6575  0.9240 -0.8659
   26MOL   H38112431   1.522   7.093   7.708 -0.0427 -0.6060 -0.4326
   26MOL   H38212432   1.426   7.292   7.065  1.5291 -0.1094  1.7761
   26MOL   H38312433   1.198   7.344   6.994  0.6101  0.1616 -0.3171
   26MOL   H38412434   1.073   6.940   7.116 -0.2592 -0.7561  2.6464
   26MOL   H38512435   1.286   6.904   7.216 -0.3276  0.1268 -0.5025
   26MOL   C38612436   0.859   7.201   7.181  0.1026  0.1223  0.1969
   26MOL   C38712437   0.743   7.168   7.258  0.0062 -0.9927  0.4800
   26MOL   C38812438   0.645   7.079   7.199 -0.7504  0.0317 -0.7540
   26MOL   C38912439   0.672   7.016   7.078  0.0315  0.0305  0.1755
   26MOL   C39012440   0.792   7.044   7.011 -0.0053  0.1354 -0.1703
   26MOL   C39112441   0.882   7.141   7.057  0.5968 -0.0370  0.2280
   26MOL   S39212442   0.480   7.061   7.264  0.2502  0.7168  0.3263
   26MOL   O39312443   0.423   6.936   7.209 -0.4112  0.1443  0.3798
   26MOL   O39412444   0.412   7.190   7.248 -0.0904  0.3760 -0.0785
   26MOL   C39512445   0.494   7.041   7.433 -0.3780  0.0347  0.7113
   26MOL   C39612446   0.542   6.916   7.479 -0.2126 -0.2688  0.0743
   26MOL   C39712447   0.566   6.891   7.619 -0.5314  0.3065 -0.0806
   26MOL   C39812448   0.539   6.993   7.707  0.1587 -0.2480 -0.4528
   26MOL   C39912449   0.498   7.123   7.663 -0.4852  0.4282  1.0271
   26MOL   C40012450   0.470   7.148   7.525 -0.2213  0.3048  0.1386
   26MOL   O40112451   0.552   6.968   7.842 -0.1018  0.7601  0.6431
   26MOL   H40212452   0.926   7.271   7.226 -1.7017  1.7355  0.4409
   26MOL   H40312453   0.722   7.218   7.351 -1.1896 -0.7035  0.0694
   26MOL   H40412454   0.596   6.951   7.035 -0.4139  1.0016 -0.5245
   26MOL   H40512455   0.811   6.991   6.919 -1.9132 -3.5444  1.4503
   26MOL   H40612456   0.571   6.834   7.414 -1.1729 -0.0416 -0.6634
   26MOL   H40712457   0.616   6.801   7.648 -0.9869  0.7719  2.2040
   26MOL   H40812458   0.493   7.203   7.735 -2.5220 -0.2811  1.7190
   26MOL   H40912459   0.430   7.245   7.498 -1.5125  0.2381  1.7695
   26MOL   C41012460   0.321   6.962   7.934 -0.1705  0.0503  0.4242
   26MOL   C41112461   0.213   6.890   7.996 -0.1135  0.4087  0.1723
   26MOL   C41212462   0.233   6.748   8.015 -0.3136  0.7708  0.3431
   26MOL   C41312463   0.361   6.691   7.986 -0.4137  0.3364  0.0159
   26MOL   C41412464   0.467   6.771   7.943  0.6110  0.2090  0.1356
   26MOL   C41512465   0.448   6.902   7.906  0.0752 -0.1809 -0.6880
   26MOL   S41612466   0.098   6.627   8.041  0.2407 -0.0219  0.0238
   26MOL   O41712467   0.160   6.501   8.082 -0.2326 -0.1865 -0.4489
   26MOL   O41812468   0.016   6.634   7.919 -0.4971 -0.2754  0.1334
   26MOL   C41912469   0.007   6.691   8.176 -0.1640 -0.3932 -0.6101
   26MOL   C42012470   0.024   6.636   8.304  0.6018 -0.0056 -0.0645
   26MOL   C42112471   8.392   6.701   8.418  0.0692 -0.3477 -0.0205
   26MOL   C42212472   8.320   6.821   8.395 -0.0060 -0.6511 -0.0861
   26MOL   C42312473   8.286   6.864   8.263 -0.0803 -0.3945  0.2471
   26MOL   C42412474   8.356   6.804   8.153 -0.2816 -0.8054  0.4292
   26MOL   O42512475   8.282   6.900   0.071 -0.3923 -0.4153  0.0071
   26MOL   H42612476   0.304   7.062   7.895  0.9516 -0.1258 -0.5380
   26MOL   H42712477   0.119   6.941   8.013 -0.8762 -1.0183  0.2477
   26MOL   H42812478   0.386   6.586   7.989  0.2821  0.5241  2.4841
   26MOL   H42912479   0.562   6.723   7.923  0.0514 -1.4510  1.4149
   26MOL   H43012480   0.089   6.552   8.325 -1.4831 -1.2125  1.7201
   26MOL   H43112481   8.411   6.662   0.092  1.1202 -0.9537 -0.4484
   26MOL   H43212482   8.204   6.930   8.239 -0.8680 -0.9911  1.2768
   26MOL   H43312483   8.341   6.832   8.050  0.7878 -0.3717  0.3933
   26MOL   C43412484   0.092   6.957   0.138 -0.3724  0.6951 -0.0978
   26MOL   C43512485   0.172   7.052   0.208  0.0439 -0.2652  0.2171
   26MOL   C43612486   0.114   7.159   0.273 -0.0703 -0.2863 -0.0143
   26MOL   C43712487   8.401   7.166   0.282  0.4997 -0.0826  0.1724
   26MOL   C43812488   8.317   7.078   0.218 -0.1030 -0.0820  0.7949
   26MOL   C43912489   8.373   6.974   0.139  0.2990 -0.8256 -0.7441
   26MOL   S44012490   0.219   7.269   0.360 -0.3880  0.2652 -0.0269
   26MOL   O44112491   0.298   7.190   0.454 -0.2270 -0.2980  0.1756
   26MOL   O44212492   0.144   7.379   0.418  0.4501  0.4665 -0.4061
   26MOL   C44312493   0.329   7.328   0.231  0.6025  0.1880 -0.4650
   26MOL   C44412494   0.261   7.392   0.125 -0.2264 -0.1970 -0.2166
   26MOL   C44512495   0.341   7.466   0.032  0.1083 -0.3689 -0.8316
   26MOL   C44612496   0.481   7.466   0.038  0.5259  0.2363  0.2212
   26MOL   C44712497   0.547   7.400   0.143  0.3929 -0.3180 -0.2057
   26MOL   C44812498   0.468   7.314   0.230  0.4514  0.1626  0.0121
   26MOL   O44912499   0.554   7.534   8.364 -0.4038  0.3316 -0.4594
   26MOL   H45012500   0.143   6.888   0.072  2.6971 -0.6168  3.4243
   26MOL   H45112501   0.279   7.038   0.203 -0.0429 -0.4733 -1.3476
   26MOL   H45212502   8.366   7.241   0.351 -1.1779  0.8153 -1.6084
   26MOL   H45312503   8.210   7.088   0.226  0.0750  1.7297  0.9873
   26MOL   H45412504   0.155   7.371   0.125 -0.1542 -0.6626  2.4415
   26MOL   H45512505   0.294   7.512   8.372  0.3472 -0.9127 -1.2622
   26MOL   H45612506   0.654   7.391   0.154  0.1336 -1.0047  2.1116
   26MOL   H45712507   0.518   7.249   0.301 -1.8504 -2.2094 -0.4632
   26MOL   C45812508   0.788   7.582   8.413  0.2197 -0.2209 -0.3402
   26MOL   C45912509   0.929   7.554   8.413  0.4844  0.2135  0.7122
   26MOL   C46012510   0.975   7.437   8.357 -0.1946 -0.3315 -0.3325
   26MOL   C46112511   0.878   7.357   8.288 -0.1058 -0.5525  0.0005
   26MOL   C46212512   0.743   7.392   8.284 -0.1309 -0.3064 -0.4191
   26MOL   C46312513   0.692   7.501   8.354 -0.1104  0.3756  0.2682
   26MOL   S46412514   1.147   7.389   8.351 -0.0681  0.0036 -0.2976
   26MOL   O46512515   1.181   7.339   8.214  0.2846 -0.4543 -0.7662
   26MOL   O46612516   1.161   7.295   0.040 -0.1339 -0.2231  0.1366
   26MOL   C46712517   1.256   7.531   8.390 -0.1433 -0.4553  0.2453
   26MOL   C46812518   1.354   7.522   0.067  0.6947  0.2166 -0.4329
   26MOL   C46912519   1.441   7.631   0.093  0.0950  0.2546  0.3094
   26MOL   C47012520   1.425   7.750   0.022  0.2395  0.7410 -0.7412
   26MOL   C47112521   1.328   7.760   8.347 -0.0680  0.2241  0.1499
   26MOL   C47212522   1.250   7.645   8.312  0.7415 -0.1247  0.6519
   26MOL   O47312523   1.494   7.858   0.068 -0.1592 -0.0489 -0.0802
   26MOL   H47412524   0.773   7.682   0.028 -1.8507 -0.4316 -0.5497
   26MOL   H47512525   1.006   7.616   0.032  1.3156 -0.4189  0.1581
   26MOL   H47612526   0.900   7.266   8.234 -0.3122 -0.2748 -0.5601
   26MOL   H47712527   0.678   7.321   8.235 -3.5835  1.8760  0.8492
   26MOL   H47812528   1.373   7.424   0.108  0.2325  0.4256  0.2870
   26MOL   H47912529   1.520   7.629   0.166  0.5969  1.4763 -0.1874
   26MOL   H48012530   1.327   7.848   8.284 -2.2762  0.2061  0.1091
   26MOL   H48112531   1.176   7.649   8.234  1.7186  1.3736 -0.2012
   26MOL   H48212532   1.556   7.844   0.138  1.1969  1.1197 -1.0148
   27MOL     C112533   2.515   5.009   7.435 -0.0304  0.0389 -1.0086
   27MOL     C212534   2.522   4.927   7.313 -0.4588 -0.2210 -0.0897
   27MOL     C312535   2.415   4.938   7.218 -0.0993  0.2431 -0.1609
   27MOL     C412536   2.304   5.021   7.243  0.1735  0.0266  0.3796
   27MOL     C512537   2.297   5.088   7.365 -0.6561  0.1683  0.4856
   27MOL     C612538   2.397   5.084   7.465 -0.7738 -0.2257  0.6683
   27MOL     S712539   2.438   4.869   7.056 -0.4191  0.4278  0.0208
   27MOL     O812540   2.312   4.810   7.009 -0.2423  0.1675  0.6466
   27MOL     O912541   2.556   4.781   7.056  0.3504 -0.2475 -0.1977
   27MOL    C1012542   2.488   5.002   6.947  0.1229  0.7924 -0.2148
   27MOL    C1112543   2.463   4.998   6.815 -0.0551 -0.3126  0.4816
   27MOL    C1212544   2.500   5.107   6.730 -0.4988 -0.5069 -0.3030
   27MOL    C1312545   2.564   5.217   6.783  0.8019 -0.4201 -0.0942
   27MOL    C1412546   2.573   5.220   6.926  0.0165 -0.3378 -0.5999
   27MOL    C1512547   2.538   5.118   7.010  0.2884 -0.0949  0.1892
   27MOL    O1612548   2.601   5.321   6.705 -0.1878  0.2255  0.0869
   27MOL    H1712549   2.582   5.007   7.520 -0.6799 -0.1884 -0.5006
   27MOL    H1812550   2.606   4.861   7.293 -0.8973 -1.6917  2.6702
   27MOL    H1912551   2.221   5.022   7.174 -1.1142 -0.1670  1.8994
   27MOL    H2012552   2.210   5.149   7.384 -0.1690  0.9915  0.0849
   27MOL    H2112553   2.416   4.914   6.765  0.7138 -0.5251  0.1062
   27MOL    H2212554   2.485   5.094   6.624  2.6696  0.1461 -0.8797
   27MOL    H2312555   2.612   5.313   6.964  0.3847 -1.2018  1.2013
   27MOL    H2412556   2.564   5.127   7.115 -2.4603  1.1152  0.8152
   27MOL    H2512557   2.389   5.138   7.558  0.4452  1.7771 -0.3600
   27MOL    C2612558   2.643   5.552   6.698 -0.3550  0.0726  0.3457
   27MOL    C2712559   2.592   5.681   6.694 -0.4761  0.5739 -0.8253
   27MOL    C2812560   2.458   5.720   6.734  0.5189  0.1353  0.2762
   27MOL    C2912561   2.370   5.611   6.765  0.7856 -0.3289  0.4362
   27MOL    C3012562   2.420   5.478   6.755 -0.0414 -0.3426  1.2557
   27MOL    C3112563   2.557   5.449   6.724 -0.5676 -0.0416  0.3628
   27MOL    S3212564   2.397   5.884   6.707 -0.2468  0.0868 -0.1215
   27MOL    O3312565   2.276   5.901   6.791 -0.2485  0.4597 -0.2983
   27MOL    O3412566   2.387   5.913   6.562  0.2161 -0.3807 -0.1687
   27MOL    C3512567   2.534   5.987   6.770 -0.3085  0.4642 -0.0722
   27MOL    C3612568   2.541   6.003   6.915 -0.0926  0.0748  0.3055
   27MOL    C3712569   2.647   6.085   6.965 -1.0563  1.2816  0.6825
   27MOL    C3812570   2.721   6.163   6.879 -0.0075  0.0810 -0.0022
   27MOL    C3912571   2.712   6.147   6.737 -0.5727  0.3783 -0.2401
   27MOL    C4012572   2.616   6.060   6.683 -0.1276  0.1712  0.6729
   27MOL    O4112573   2.818   6.245   6.930  0.2072 -0.0451 -0.2855
   27MOL    H4212574   2.748   5.542   6.675  0.2542  2.2471  1.9249
   27MOL    H4312575   2.662   5.758   6.664  0.6432 -0.7484 -1.6276
   27MOL    H4412576   2.265   5.624   6.785  0.3275 -1.7865 -0.8393
   27MOL    H4512577   2.350   5.398   6.771  1.2074 -1.8350 -0.5032
   27MOL    H4612578   2.464   5.949   6.967  2.3300 -0.9317  2.9630
   27MOL    H4712579   2.666   6.094   7.071 -3.0476 -0.5784  1.2178
   27MOL    H4812580   2.771   6.210   6.672  0.7205 -1.2616 -0.6937
   27MOL    H4912581   2.617   6.055   6.575  0.5508  0.3301  0.6665
   27MOL    C5012582   2.788   6.478   6.984 -0.0732 -0.0025  0.1041
   27MOL    C5112583   2.798   6.618   6.954  0.2541  0.7701 -0.0562
   27MOL    C5212584   2.884   6.649   6.849  0.0482  0.2152 -0.2248
   27MOL    C5312585   2.945   6.547   6.774  0.2035  0.5196 -0.2154
   27MOL    C5412586   2.908   6.411   6.783 -0.1958  0.3983  0.1102
   27MOL    C5512587   2.833   6.377   6.894  0.4503 -0.4474  0.1546
   27MOL    S5612588   2.936   6.821   6.814 -0.4247 -0.1998 -0.0527
   27MOL    O5712589   2.823   6.903   6.778 -0.4116 -0.0714  0.4157
   27MOL    O5812590   3.048   6.816   6.719 -0.3643  0.0521  0.2549
   27MOL    C5912591   2.994   6.894   6.963  0.4126 -0.0275  0.3249
   27MOL    C6012592   2.993   7.032   6.982 -0.1441  0.2717  0.0315
   27MOL    C6112593   3.049   7.091   7.094 -0.6648 -0.0770  0.7336
   27MOL    C6212594   3.100   7.005   7.185 -0.3085  0.2865 -0.8117
   27MOL    C6312595   3.115   6.864   7.168  0.4157  0.9052 -0.5102
   27MOL    C6412596   3.056   6.808   7.056 -0.2261 -0.0757  0.8406
   27MOL    O6512597   3.145   7.055   7.303  0.0778  0.1651  0.4111
   27MOL    H6612598   2.724   6.450   7.066 -1.3806  0.0465 -0.8780
   27MOL    H6712599   2.752   6.692   7.018  1.6128 -0.1619  2.0377
   27MOL    H6812600   3.016   6.584   6.702 -0.3506  0.6763 -0.6896
   27MOL    H6912601   2.950   6.339   6.715  1.6387  0.0663  1.5622
   27MOL    H7012602   2.938   7.093   6.912 -1.2640 -1.8105 -0.9560
   27MOL    H7112603   3.040   7.198   7.110  1.3952  0.2534 -0.0641
   27MOL    H7212604   3.147   6.790   7.240 -2.2972 -0.1942 -0.3779
   27MOL    H7312605   3.063   6.703   7.031  0.8037  0.6769 -2.2567
   27MOL    C7412606   2.916   7.011   7.391  0.0196 -0.1230  0.0538
   27MOL    C7512607   2.834   7.018   7.504 -0.0357 -0.4373  0.6684
   27MOL    C7612608   2.882   7.072   7.627 -0.6992 -0.7398  0.1942
   27MOL    C7712609   3.009   7.137   7.634  0.1220  0.1555  0.7148
   27MOL    C7812610   3.088   7.134   7.514 -0.4566  0.3823 -0.3943
   27MOL    C7912611   3.049   7.070   7.398  0.2189  0.3541  0.3691
   27MOL    S8012612   2.786   7.052   7.771 -0.0188  0.0796  0.1307
   27MOL    O8112613   2.711   7.175   7.787 -0.0775  0.1365  0.2185
   27MOL    O8212614   2.877   7.011   7.876  0.0587 -0.1649  0.4378
   27MOL    C8312615   2.669   6.922   7.737  0.0246 -0.7170  0.7803
   27MOL    C8412616   2.537   6.962   7.707  0.2075  0.5186  0.7191
   27MOL    C8512617   2.439   6.863   7.683  0.1807 -0.2866  0.4830
   27MOL    C8612618   2.479   6.726   7.688  0.0186 -0.4200  0.8373
   27MOL    C8712619   2.608   6.691   7.719 -0.4318 -0.2160  0.6170
   27MOL    C8812620   2.708   6.787   7.742 -0.2335 -0.0461 -0.4575
   27MOL    O8912621   2.391   6.622   7.671 -0.2491  0.1521 -0.5719
   27MOL    H9012622   2.880   6.966   7.300 -1.2991 -0.9938  0.9881
   27MOL    H9112623   2.730   6.991   7.500 -0.4808  1.1876  1.1034
   27MOL    H9212624   3.051   7.165   7.729 -0.0210  0.8574  0.5763
   27MOL    H9312625   3.187   7.178   7.506  1.1835 -2.8275  1.3941
   27MOL    H9412626   2.501   7.063   7.694  0.7825  0.4079 -2.0742
   27MOL    H9512627   2.338   6.892   7.661  0.2601 -0.0562  0.4183
   27MOL    H9612628   2.639   6.589   7.738 -0.3870 -0.8959 -2.7832
   27MOL    H9712629   2.798   6.754   7.790 -1.8836 -1.8405  1.4835
   27MOL    C9812630   2.204   6.666   7.817  0.4730  0.7950  0.3918
   27MOL    C9912631   2.125   6.630   7.927  0.8994  0.3653 -0.5697
   27MOL   C10012632   2.168   6.522   8.006  0.1209 -0.2120  0.0903
   27MOL   C10112633   2.286   6.451   7.979  0.4327  0.7711  0.1460
   27MOL   C10212634   2.361   6.490   7.866  0.1543 -0.5478 -0.4164
   27MOL   C10312635   2.316   6.592   7.781 -0.1013 -0.3078 -0.0383
   27MOL   S10412636   2.082   6.476   8.156  0.5676 -0.4979  0.3319
   27MOL   O10512637   2.081   6.600   8.239  0.8367  1.3316 -0.6296
   27MOL   O10612638   2.133   6.348   8.207  0.4116 -0.1021  0.4884
   27MOL   C10712639   1.920   6.441   8.100 -0.3721  0.2382 -0.4655
   27MOL   C10812640   1.802   6.503   8.143  0.5016 -0.5964  0.0600
   27MOL   C10912641   1.680   6.460   8.093  0.1153 -0.1171  0.3870
   27MOL   C11012642   1.670   6.351   8.008  0.2835 -0.3906  0.0075
   27MOL   C11112643   1.787   6.284   7.971 -1.0995  0.2083 -0.5565
   27MOL   C11212644   1.912   6.332   8.007  0.1411 -0.0272 -0.6626
   27MOL   O11312645   1.550   6.320   7.950  0.6671 -0.5177  0.2448
   27MOL   H11412646   2.169   6.760   7.775 -1.0948 -0.2072 -0.5689
   27MOL   H11512647   2.034   6.683   7.954  0.0501 -0.4672 -1.7519
   27MOL   H11612648   2.312   6.366   8.040  1.0634  0.0493 -1.1199
   27MOL   H11712649   2.448   6.428   7.848 -0.0626 -1.2210  0.7667
   27MOL   H11812650   1.816   6.588   8.209 -1.6865 -1.4329  1.6686
   27MOL   H11912651   1.595   6.517   8.126 -0.1481  0.4686 -1.2645
   27MOL   H12012652   1.797   6.195   7.911  1.5407  1.3804 -1.9177
   27MOL   H12112653   2.007   6.299   7.968  0.9736  0.3123  0.9808
   27MOL   C12212654   1.541   6.136   7.800  0.5707  0.1650 -0.8007
   27MOL   C12312655   1.547   6.082   7.672 -0.2858 -0.5973  0.2392
   27MOL   C12412656   1.562   6.172   7.563 -0.2721 -0.5379  0.1761
   27MOL   C12512657   1.586   6.303   7.584  0.4156 -0.1567 -0.2922
   27MOL   C12612658   1.567   6.361   7.715 -0.3776  0.2497 -0.5526
   27MOL   C12712659   1.548   6.271   7.823  0.1251  1.0498 -0.3335
   27MOL   S12812660   1.584   6.108   7.402  0.2364 -0.0622 -0.0923
   27MOL   O12912661   1.638   6.214   7.316  0.3929 -0.0519  1.0923
   27MOL   O13012662   1.456   6.049   7.362  1.1501  0.2231  0.5921
   27MOL   C13112663   1.699   5.969   7.401  0.0589 -0.0168 -0.3538
   27MOL   C13212664   1.656   5.846   7.447 -0.2319  0.6677 -0.0735
   27MOL   C13312665   1.741   5.735   7.441 -0.0243 -0.0586 -0.4828
   27MOL   C13412666   1.876   5.752   7.399  0.0460 -0.1695 -0.2222
   27MOL   C13512667   1.919   5.879   7.353 -0.5440  0.8080  0.1841
   27MOL   C13612668   1.831   5.987   7.346 -0.0063  0.1788  0.1792
   27MOL   O13712669   1.968   5.656   7.409 -0.0304  0.2041 -0.0909
   27MOL   H13812670   1.543   6.067   7.883  3.8476  0.9298 -0.1554
   27MOL   H13912671   1.552   5.975   7.656  0.8726 -0.8899  2.3681
   27MOL   H14012672   1.598   6.365   7.497 -2.3405 -1.2594 -1.5068
   27MOL   H14112673   1.580   6.467   7.733  1.5518 -0.1473  0.4979
   27MOL   H14212674   1.552   5.839   7.477  0.2644  1.2462  1.9090
   27MOL   H14312675   1.718   5.635   7.476 -3.5768  0.6872 -0.5116
   27MOL   H14412676   2.019   5.882   7.312 -0.1406 -0.9407  0.9753
   27MOL   H14512677   1.857   6.085   7.310 -1.8431  0.0372 -1.5892
   27MOL   C14612678   1.982   5.423   7.379  0.2291 -0.1844 -0.4694
   27MOL   C14712679   1.954   5.310   7.300  0.2768  0.5146 -0.2584
   27MOL   C14812680   1.919   5.316   7.164  0.4507 -0.1112 -0.4178
   27MOL   C14912681   1.899   5.443   7.109  0.6736  0.2372 -0.3789
   27MOL   C15012682   1.912   5.562   7.190 -0.5005 -0.1649  0.0689
   27MOL   C15112683   1.960   5.549   7.323  0.7213  0.8773  0.1748
   27MOL   S15212684   1.873   5.172   7.069  0.0691  0.2690 -0.3431
   27MOL   O15312685   1.726   5.185   7.059 -0.7815  0.2903 -0.8405
   27MOL   O15412686   1.929   5.049   7.133 -0.5897  0.7119 -0.2648
   27MOL   C15512687   1.946   5.192   6.908 -0.2127  0.1459  0.6272
   27MOL   C15612688   1.862   5.224   6.800  0.3042  0.5737 -0.5321
   27MOL   C15712689   1.918   5.223   6.668 -0.2342 -0.3031  0.0933
   27MOL   C15812690   2.053   5.202   6.643 -0.5222 -0.0148 -0.3876
   27MOL   C15912691   2.133   5.183   6.757 -0.3649 -0.4510  0.2155
   27MOL   C16012692   2.086   5.173   6.885  0.0390  0.1300  0.1178
   27MOL   O16112693   2.097   5.194   6.514  0.5022  0.1262  0.1148
   27MOL   H16212694   2.017   5.413   7.481  3.8998 -1.7564 -1.7859
   27MOL   H16312695   1.978   5.212   7.339  0.1597  0.5060 -0.2081
   27MOL   H16412696   1.858   5.447   7.009  1.2579  1.0473 -0.5853
   27MOL   H16512697   1.880   5.654   7.143 -0.0954  0.5973  1.2718
   27MOL   H16612698   1.757   5.250   6.806  0.6625  2.2426 -1.3191
   27MOL   H16712699   1.849   5.228   6.585 -0.7391 -0.7076  0.4821
   27MOL   H16812700   2.238   5.170   6.736 -0.4362 -0.1605 -0.3349
   27MOL   H16912701   2.143   5.148   6.973  1.0320  0.3233 -0.4540
   27MOL   C17012702   2.171   5.423   6.478  0.5136  0.2198 -0.0453
   27MOL   C17112703   2.267   5.512   6.430  0.9429  0.5569  0.1841
   27MOL   C17212704   2.382   5.468   6.368 -0.5731 -0.3948  0.1838
   27MOL   C17312705   2.407   5.329   6.351 -0.0889  0.5495  0.0086
   27MOL   C17412706   2.316   5.233   6.409 -0.0458  0.2769 -0.3588
   27MOL   C17512707   2.199   5.284   6.471  1.1616  0.6490  0.3747
   27MOL   S17612708   2.496   5.586   6.299  0.1822  0.0795  0.2427
   27MOL   O17712709   2.587   5.513   6.209 -0.4260  0.5209  0.2606
   27MOL   O17812710   2.543   5.669   6.413 -0.1396 -0.4405 -0.1227
   27MOL   C17912711   2.392   5.692   6.200  0.7500 -0.5952 -0.0812
   27MOL   C18012712   2.350   5.659   6.073 -0.1510 -0.2160  0.0216
   27MOL   C18112713   2.283   5.749   5.992 -0.6578  0.6025 -0.0109
   27MOL   C18212714   2.259   5.880   6.031  0.6557  0.0631 -0.1000
   27MOL   C18312715   2.300   5.920   6.161 -0.0127 -0.0256  0.5645
   27MOL   C18412716   2.373   5.827   6.242 -0.0865  0.2190  0.8104
   27MOL   O18512717   2.187   5.959   5.945  0.3224 -0.9965  0.0013
   27MOL   H18612718   2.078   5.461   6.520  1.5739  0.9711  1.6752
   27MOL   H18712719   2.237   5.615   6.442 -0.8354  0.0328  0.4784
   27MOL   H18812720   2.504   5.309   6.307 -1.2967  0.2221 -2.6200
   27MOL   H18912721   2.345   5.129   6.410  0.3513  0.3879  0.5143
   27MOL   H19012722   2.371   5.557   6.044 -2.8016 -0.4506 -1.2090
   27MOL   H19112723   2.253   5.708   5.897 -2.7633 -0.0767  0.9324
   27MOL   H19212724   2.276   6.019   6.196  1.1435  0.2501  0.5846
   27MOL   H19312725   2.404   5.859   6.341 -2.5654  1.5960  1.2050
   27MOL   C19412726   2.365   6.105   5.879  0.6021 -0.6099  0.0700
   27MOL   C19512727   2.400   6.239   5.847  0.2730  0.3206  0.1926
   27MOL   C19612728   2.310   6.343   5.865  0.0834  1.5451  0.3062
   27MOL   C19712729   2.191   6.321   5.927  0.6963 -0.3335  0.0911
   27MOL   C19812730   2.152   6.194   5.955  0.2258  0.6069  0.6092
   27MOL   C19912731   2.237   6.085   5.930 -0.4593  0.7425  0.3423
   27MOL   S20012732   2.345   6.507   5.818  0.2649  0.2764  0.2228
   27MOL   O20112733   2.329   6.592   5.939 -0.4748  0.5121 -0.6849
   27MOL   O20212734   2.258   6.535   5.700  0.3447  0.5604 -0.0615
   27MOL   C20312735   2.512   6.524   5.749  0.0740  0.6340  0.1268
   27MOL   C20412736   2.607   6.605   5.815  0.6510 -0.2447 -0.0707
   27MOL   C20512737   2.735   6.631   5.752  0.1166 -0.1541 -0.2095
   27MOL   C20612738   2.758   6.590   5.618  0.4047 -0.4700 -0.7148
   27MOL   C20712739   2.665   6.503   5.559  0.1930  0.3534 -0.6755
   27MOL   C20812740   2.546   6.459   5.626 -0.7065 -0.3938  0.2409
   27MOL   O20912741   2.855   6.647   5.548  0.9103  0.1257  0.4489
   27MOL   H21012742   2.429   6.020   5.860 -0.4900 -2.1642  2.9223
   27MOL   H21112743   2.502   6.253   5.816 -0.0528 -1.0430 -1.6138
   27MOL   H21212744   2.117   6.400   5.931 -0.2657 -1.1733 -0.9229
   27MOL   H21312745   2.049   6.184   5.986 -0.5127  2.1932 -1.1745
   27MOL   H21412746   2.584   6.650   5.911 -1.2985 -1.3212 -0.0144
   27MOL   H21512747   2.808   6.700   5.792  0.0450 -0.0345 -0.2887
   27MOL   H21612748   2.685   6.462   5.461 -1.3764 -4.1700  0.7513
   27MOL   H21712749   2.489   6.390   5.566 -2.7903  1.0879  0.4487
   27MOL   C21812750   3.066   6.671   5.457 -0.4130  0.3543  0.6728
   27MOL   C21912751   3.200   6.635   5.437  0.3799  0.3223 -0.2332
   27MOL   C22012752   3.246   6.523   5.516  0.2640 -0.3222 -1.2540
   27MOL   C22112753   3.166   6.461   5.613  0.2948 -0.6508  0.2991
   27MOL   C22212754   3.032   6.500   5.629 -0.4512 -1.2904 -0.8814
   27MOL   C22312755   2.982   6.603   5.548 -0.1503 -0.3296  0.8069
   27MOL   S22412756   3.418   6.457   5.490 -0.0259  0.1503  0.1301
   27MOL   O22512757   3.460   6.385   5.612 -0.1089 -0.0609  0.0888
   27MOL   O22612758   3.488   6.577   5.431 -0.3015  0.1724 -0.3265
   27MOL   C22712759   3.403   6.349   5.359  0.5108  0.1290  0.2948
   27MOL   C22812760   3.371   6.379   5.224  0.1657 -0.6919  0.0564
   27MOL   C22912761   3.381   6.284   5.122 -0.1448 -0.0312 -0.1363
   27MOL   C23012762   3.424   6.154   5.152  0.1329 -0.6800 -0.1812
   27MOL   C23112763   3.445   6.120   5.288  0.4986  1.4451 -1.0797
   27MOL   C23212764   3.439   6.214   5.390 -0.2822 -0.1543 -0.3564
   27MOL   O23312765   3.435   6.056   5.054 -0.2013 -0.6658 -0.0250
   27MOL   H23412766   3.021   6.754   5.405  0.5390  0.6119  0.2455
   27MOL   H23512767   3.271   6.679   5.369  0.0605  1.1465 -0.0508
   27MOL   H23612768   3.206   6.385   5.678  0.6852  0.1410  0.9922
   27MOL   H23712769   2.962   6.453   5.696 -1.9084  0.2056 -1.2990
   27MOL   H23812770   3.347   6.481   5.201 -0.5620 -0.4961  1.5932
   27MOL   H23912771   3.350   6.314   5.022 -0.2504  0.1990 -0.0339
   27MOL   H24012772   3.468   6.018   5.312 -0.0739  1.9867  1.9326
   27MOL   H24112773   3.461   6.185   5.492 -0.6359  1.7477  0.2823
   27MOL   C24212774   3.679   6.085   5.047 -0.6005 -0.1763  0.0275
   27MOL   C24312775   3.799   6.055   4.982 -0.2968 -0.6938 -0.5647
   27MOL   C24412776   3.797   6.001   4.853 -0.3695  0.8988  0.5433
   27MOL   C24512777   3.674   5.959   4.793 -0.2136  0.2251 -0.3076
   27MOL   C24612778   3.550   5.980   4.862 -0.0759 -0.3918  0.1125
   27MOL   C24712779   3.556   6.041   4.988 -0.2041  1.2793  0.4494
   27MOL   S24812780   3.946   5.957   4.759  0.3492 -0.0626  0.1382
   27MOL   O24912781   3.909   5.987   4.619  0.2464  0.0006  0.2417
   27MOL   O25012782   3.979   5.819   4.806  0.4766  0.0876  0.0680
   27MOL   C25112783   4.073   6.067   4.825 -0.7593 -0.4019  0.6907
   27MOL   C25212784   4.098   6.196   4.770  0.0009  0.1760  1.0157
   27MOL   C25312785   4.204   6.280   4.822 -0.1727 -0.4099 -0.0983
   27MOL   C25412786   4.285   6.227   4.927 -0.4264  0.5081  0.4680
   27MOL   C25512787   4.268   6.096   4.972 -0.3584  0.1070 -0.6762
   27MOL   C25612788   4.169   6.016   4.918  0.0517 -0.1322 -0.2671
   27MOL   O25712789   4.388   6.304   4.966 -0.6237 -0.0740  0.4627
   27MOL   H25812790   3.683   6.141   5.139 -0.8803 -0.2580  0.0896
   27MOL   H25912791   3.886   6.086   5.038 -0.5372  1.8211 -1.5206
   27MOL   H26012792   3.669   5.915   4.695  0.3755  1.8587 -1.0754
   27MOL   H26112793   3.455   5.946   4.826 -0.4714  0.7178  0.0979
   27MOL   H26212794   4.031   6.233   4.694 -0.8418 -1.5913  0.8785
   27MOL   H26312795   4.216   6.384   4.794 -1.7607 -0.3694 -0.7132
   27MOL   H26412796   4.349   6.063   5.036 -0.1620  0.7719 -0.5719
   27MOL   H26512797   4.153   5.915   4.951  1.1959 -0.6090 -1.1637
   27MOL   C26612798   4.293   6.465   5.104 -0.0752  0.0368  0.4049
   27MOL   C26712799   4.286   6.532   5.228 -0.6103  0.5394 -0.2755
   27MOL   C26812800   4.377   6.497   5.328  0.2008 -0.3551 -0.0725
   27MOL   C26912801   4.455   6.379   5.313 -0.1623 -0.4377  0.6583
   27MOL   C27012802   4.457   6.310   5.190  0.2615 -0.1656 -0.8438
   27MOL   C27112803   4.382   6.360   5.084  0.3319 -0.2863 -1.7507
   27MOL   S27212804   4.378   6.585   5.482  0.2939  0.3211 -0.0875
   27MOL   O27312805   4.380   6.733   5.459  0.0948 -0.2211 -0.0617
   27MOL   O27412806   4.481   6.523   5.567  0.6121 -0.2814  0.6118
   27MOL   C27512807   4.221   6.556   5.568  0.1615 -0.2119 -0.0116
   27MOL   C27612808   4.113   6.625   5.524 -0.2998  0.1732 -0.2984
   27MOL   C27712809   4.006   6.643   5.616  0.6656  0.0185  0.8895
   27MOL   C27812810   4.007   6.568   5.738  0.2984 -0.5306  0.4043
   27MOL   C27912811   4.108   6.472   5.771 -0.9209 -0.6014 -0.6225
   27MOL   C28012812   4.220   6.483   5.689 -0.0108  0.5745 -0.2558
   27MOL   O28112813   3.902   6.582   5.824 -0.3392  0.2349 -0.2498
   27MOL   H28212814   4.233   6.503   5.022 -0.2523 -1.4773 -0.1943
   27MOL   H28312815   4.212   6.606   5.250 -0.4357  0.6766 -0.1486
   27MOL   H28412816   4.515   6.347   5.396  2.1426 -0.5702 -1.0017
   27MOL   H28512817   4.531   6.231   5.183  0.1948 -0.3212  0.1145
   27MOL   H28612818   4.109   6.683   5.433  0.9904  0.3764 -0.2299
   27MOL   H28712819   3.926   6.711   5.588  1.8044  0.7705 -0.6379
   27MOL   H28812820   4.113   6.431   5.871 -1.5451  4.0042  1.4040
   27MOL   H28912821   4.319   6.450   5.718  0.2301  2.3472  1.0098
   27MOL   C29012822   4.008   6.699   6.015  0.1820  0.5437  0.2047
   27MOL   C29112823   4.028   6.709   6.156  0.3442 -0.1129  0.0537
   27MOL   C29212824   3.969   6.610   6.241  0.7453  0.5309 -0.3078
   27MOL   C29312825   3.891   6.501   6.196  0.1377 -0.1631  0.2503
   27MOL   C29412826   3.885   6.487   6.058 -1.5270 -0.1211  0.7198
   27MOL   C29512827   3.931   6.590   5.962 -0.3278 -0.0496  0.5672
   27MOL   S29612828   4.016   6.617   6.414  0.1157 -0.0786 -0.0991
   27MOL   O29712829   3.905   6.557   6.491 -0.4421 -0.8347 -0.1377
   27MOL   O29812830   4.057   6.754   6.437  0.0518  0.4320  0.7951
   27MOL   C29912831   4.154   6.502   6.430 -0.1339  0.1928  0.3161
   27MOL   C30012832   4.122   6.362   6.440 -0.5804  0.0137  0.2558
   27MOL   C30112833   4.221   6.271   6.450  0.2498  0.7416  0.1950
   27MOL   C30212834   4.354   6.313   6.438 -0.5578  0.5133 -0.2851
   27MOL   C30312835   4.392   6.448   6.423  0.2513  0.1822  0.6677
   27MOL   C30412836   4.289   6.545   6.411 -0.6533  0.3980  0.0683
   27MOL   O30512837   4.449   6.218   6.454  0.3592  0.0645 -0.0694
   27MOL   H30612838   4.044   6.788   5.965 -0.0786  1.0105  0.8344
   27MOL   H30712839   4.086   6.788   6.200 -0.0170  1.2119 -1.7724
   27MOL   H30812840   3.835   6.432   6.257 -0.4824 -2.1597 -2.4859
   27MOL   H30912841   3.831   6.400   6.022  0.0913 -0.6231 -0.5893
   27MOL   H31012842   4.023   6.320   6.440 -0.2104 -0.8571  1.0014
   27MOL   H31112843   4.194   6.170   6.478  1.6889  0.0464 -0.8486
   27MOL   H31212844   4.497   6.471   6.411  0.3967 -0.4646  0.6936
   27MOL   H31312845   4.302   6.651   6.401  0.3122  0.2398 -0.3702
   27MOL   C31412846   4.452   6.233   6.696  0.1071  0.3208 -0.0424
   27MOL   C31512847   4.498   6.183   6.819  0.4845  0.3257  0.3334
   27MOL   C31612848   4.600   6.089   6.824 -0.1658  0.4871  0.2107
   27MOL   C31712849   4.648   6.036   6.706  0.1612 -0.1760  0.3242
   27MOL   C31812850   4.596   6.079   6.577 -0.3424  0.2099  0.7784
   27MOL   C31912851   4.496   6.175   6.577 -0.1516  0.2425  0.5232
   27MOL   S32012852   4.684   6.052   6.984 -0.0043  0.8645 -0.2893
   27MOL   O32112853   4.797   5.957   6.962  0.3944  0.2777 -0.0307
   27MOL   O32212854   4.573   6.003   7.070  0.0455  0.4432 -0.1635
   27MOL   C32312855   4.734   6.214   7.037  0.3302  0.0403  0.0442
   27MOL   C32412856   4.722   6.252   7.172  0.4920  0.0246  0.3826
   27MOL   C32512857   4.754   6.376   7.224  0.3691 -0.0733 -0.0882
   27MOL   C32612858   4.815   6.472   7.136 -1.0136  0.6588 -0.6403
   27MOL   C32712859   4.833   6.437   6.995 -0.1987  0.3259  0.4762
   27MOL   C32812860   4.796   6.306   6.953 -0.4648 -0.2858  0.4775
   27MOL   O32912861   4.857   6.598   7.185 -0.2112 -0.2055  0.0453
   27MOL   H33012862   4.368   6.301   6.696 -0.0658  0.1114  0.5149
   27MOL   H33112863   4.454   6.218   6.912  0.5369  2.4575 -0.4210
   27MOL   H33212864   4.721   5.956   6.701 -0.5775 -0.7980 -0.7355
   27MOL   H33312865   4.647   6.036   6.492  0.3308  2.6326 -0.0767
   27MOL   H33412866   4.668   6.187   7.240 -2.2270  1.6538 -0.1409
   27MOL   H33512867   4.741   6.388   7.330 -0.0419 -1.0597 -0.0216
   27MOL   H33612868   4.895   6.500   6.932 -0.0783  1.6533  1.8861
   27MOL   H33712869   4.812   6.281   6.849  0.4648  1.2066  0.2334
   27MOL   C33812870   4.653   6.726   7.149 -0.2622 -0.3132 -0.9160
   27MOL   C33912871   4.590   6.844   7.106  0.7965 -0.3094 -0.5563
   27MOL   C34012872   4.668   6.949   7.063 -0.2907 -0.2328  0.0293
   27MOL   C34112873   4.809   6.938   7.055 -1.0907 -0.3011  0.0283
   27MOL   C34212874   4.872   6.820   7.099  0.1779 -0.2103 -0.2703
   27MOL   C34312875   4.794   6.711   7.141 -0.6879 -0.3256 -0.0031
   27MOL   S34412876   4.592   7.093   7.007 -0.1025 -0.0956 -0.1264
   27MOL   O34512877   4.486   7.062   6.910  0.5479  0.0681 -0.0549
   27MOL   O34612878   4.696   7.190   6.968  0.0460  0.4910 -0.4470
   27MOL   C34712879   4.525   7.166   7.154 -0.2588  0.3757 -0.3169
   27MOL   C34812880   4.396   7.129   7.198  0.1639 -0.3062  0.1924
   27MOL   C34912881   4.338   7.192   7.315 -0.4112  0.0701  0.0955
   27MOL   C35012882   4.412   7.281   7.384 -0.4819 -0.2259 -0.1827
   27MOL   C35112883   4.541   7.313   7.339 -0.2963 -0.6632  0.4214
   27MOL   C35212884   4.602   7.258   7.227  0.0657  0.1849 -0.5841
   27MOL   O35312885   4.364   7.330   7.498  0.2491  0.4873  0.7301
   27MOL   H35412886   4.588   6.646   7.181 -1.8459  0.0902 -3.0334
   27MOL   H35512887   4.483   6.859   7.104  0.6483 -1.3633 -0.7792
   27MOL   H35612888   4.869   7.020   7.019 -1.6508 -0.4747 -1.3275
   27MOL   H35712889   4.979   6.809   7.099  0.4914  2.3125 -2.1844
   27MOL   H35812890   4.336   7.052   7.153  2.3347 -1.1026 -1.3967
   27MOL   H35912891   4.241   7.163   7.352  0.5270 -0.4377  2.2304
   27MOL   H36012892   4.594   7.390   7.393  0.7259 -0.0646 -1.3723
   27MOL   H36112893   4.696   7.296   7.188  0.1783  0.0917 -0.3981
   27MOL   C36212894   4.348   7.559   7.575  0.2858 -0.0437  1.2563
   27MOL   C36312895   4.272   7.674   7.585 -0.0328  0.0504  0.1727
   27MOL   C36412896   4.161   7.692   7.501 -0.7271  0.5355 -0.0017
   27MOL   C36512897   4.116   7.592   7.415 -0.4165 -0.1105  0.1048
   27MOL   C36612898   4.183   7.468   7.417 -0.1611  0.0426  0.1804
   27MOL   C36712899   4.302   7.451   7.492  0.9518 -0.5137  1.0430
   27MOL   S36812900   4.085   7.855   7.506 -0.4167 -0.0923  0.2793
   27MOL   O36912901   4.201   7.948   7.516  0.5056  0.5067  0.0014
   27MOL   O37012902   3.986   7.864   7.614 -0.2708 -0.0556 -0.4981
   27MOL   C37112903   3.999   7.889   7.355  0.8135  0.3276  0.4181
   27MOL   C37212904   4.052   7.985   7.275 -0.2471  0.3262 -0.3924
   27MOL   C37312905   3.984   8.027   7.162 -0.2794 -0.2405 -0.3093
   27MOL   C37412906   3.858   7.974   7.124 -0.2877  0.7087  0.0745
   27MOL   C37512907   3.808   7.870   7.205  0.6179  0.1049 -0.2924
   27MOL   C37612908   3.873   7.828   7.324 -0.0612  0.6881  0.7038
   27MOL   O37712909   3.785   8.018   7.018 -0.3948  0.5652 -0.0086
   27MOL   H37812910   4.430   7.546   7.645  1.3698  0.9496  0.2084
   27MOL   H37912911   4.300   7.748   7.658  1.7686 -0.4790  0.0476
   27MOL   H38012912   4.040   7.620   7.343  0.6436  0.8633 -0.6656
   27MOL   H38112913   4.164   7.399   7.337  0.7127  0.2913 -0.2451
   27MOL   H38212914   4.152   8.016   7.303  0.0561  0.9076 -2.0920
   27MOL   H38312915   4.013   8.112   7.102 -2.6632 -0.4287 -1.8177
   27MOL   H38412916   3.712   7.830   7.175  1.1412 -0.8522 -0.6969
   27MOL   H38512917   3.825   7.753   7.385  1.3300 -1.4230 -0.7500
   27MOL   C38612918   3.688   7.928   6.816  0.3914  0.3409  0.5805
   27MOL   C38712919   3.713   7.868   6.685 -0.3777 -0.4020 -0.4071
   27MOL   C38812920   3.836   7.835   6.643  0.4588  0.2059  0.1243
   27MOL   C38912921   3.950   7.874   6.713  0.5205 -0.1177 -0.5534
   27MOL   C39012922   3.933   7.928   6.839 -0.8683 -0.8815  0.4821
   27MOL   C39112923   3.803   7.953   6.895 -0.1002  0.1241 -0.1296
   27MOL   S39212924   3.837   7.754   6.481 -0.1964  0.0474  0.0489
   27MOL   O39312925   3.807   7.864   6.389  0.3918 -0.3893  0.5744
   27MOL   O39412926   3.743   7.640   6.479  0.0712 -0.1690 -0.5256
   27MOL   C39512927   4.000   7.694   6.459 -0.0381 -0.4334 -0.3238
   27MOL   C39612928   4.055   7.615   6.563  0.1724  0.4021  0.8874
   27MOL   C39712929   4.189   7.570   6.552 -0.6165  0.0696  0.3205
   27MOL   C39812930   4.259   7.599   6.435  0.6793 -0.3180  0.0442
   27MOL   C39912931   4.204   7.677   6.325 -0.0136  0.5084 -0.1967
   27MOL   C40012932   4.072   7.726   6.341  0.0923  0.7431  0.2994
   27MOL   O40112933   4.387   7.555   6.435  0.1128 -0.1613  0.2314
   27MOL   H40212934   3.585   7.951   6.839  0.3764  0.4228  0.4323
   27MOL   H40312935   3.620   7.855   6.631 -1.0651  0.3955  0.5441
   27MOL   H40412936   4.046   7.857   6.666  0.1117  1.2565 -1.9292
   27MOL   H40512937   4.022   7.954   6.894 -2.0570  0.8179  1.6591
   27MOL   H40612938   3.985   7.599   6.644 -0.0538  0.4496  0.7026
   27MOL   H40712939   4.226   7.514   6.637 -2.0923  1.1034  1.6820
   27MOL   H40812940   4.264   7.708   6.241 -0.0107  0.4601 -0.2131
   27MOL   H40912941   4.026   7.780   6.260  1.1847  0.0680 -0.7805
   27MOL   C41012942   4.515   7.747   6.504 -0.1627 -0.0649  0.2408
   27MOL   C41112943   4.617   7.840   6.475  0.1501  0.4371  0.0465
   27MOL   C41212944   4.701   7.821   6.363  0.8591  0.4836  0.5227
   27MOL   C41312945   4.687   7.704   6.280 -0.5908 -0.5012 -0.4658
   27MOL   C41412946   4.584   7.611   6.315  0.1756  0.3353  0.0569
   27MOL   C41512947   4.491   7.637   6.421  0.0442  0.1475  1.1630
   27MOL   S41612948   4.825   7.945   6.327 -0.3329  0.0522  0.3601
   27MOL   O41712949   4.773   8.068   6.388  0.2698 -0.5875 -0.1808
   27MOL   O41812950   4.852   7.928   6.183  0.1727 -0.4151 -0.2202
   27MOL   C41912951   4.972   7.897   6.415 -0.5663 -0.0716  1.1635
   27MOL   C42012952   4.968   7.801   6.511  0.0746 -0.2744 -0.0663
   27MOL   C42112953   5.083   7.750   6.571 -0.1648  0.0916  0.3063
   27MOL   C42212954   5.206   7.813   6.546  0.0838 -0.5468 -0.5091
   27MOL   C42312955   5.215   7.914   6.454  0.1944 -0.8818 -0.5978
   27MOL   C42412956   5.095   7.960   6.388 -0.5240  0.1430 -0.0475
   27MOL   O42512957   5.306   7.770   6.630  0.7414  0.0901  0.2225
   27MOL   H42612958   4.444   7.763   6.584 -1.5326 -1.1549 -0.7266
   27MOL   H42712959   4.625   7.932   6.532  0.4463  1.1231 -1.0947
   27MOL   H42812960   4.734   7.695   6.183 -0.6143  1.1252 -0.6430
   27MOL   H42912961   4.585   7.516   6.263  0.4638 -0.8346  2.1419
   27MOL   H43012962   4.884   7.735   6.529 -0.7346  1.0932  1.3627
   27MOL   H43112963   5.078   7.674   6.647  0.1357 -0.3072 -0.0638
   27MOL   H43212964   5.313   7.954   6.432 -0.3592 -0.7720 -3.0972
   27MOL   H43312965   5.101   8.030   6.306  0.4246 -0.5830 -0.6155
   27MOL   C43412966   5.390   7.556   6.663 -0.3193  0.5788 -0.1958
   27MOL   C43512967   5.477   7.455   6.635 -0.2647 -0.3938 -0.3078
   27MOL   C43612968   5.570   7.472   6.525  0.1653  0.2548  0.3958
   27MOL   C43712969   5.567   7.593   6.446 -0.4636  1.0493  0.1785
   27MOL   C43812970   5.477   7.692   6.481 -0.8684  0.1047  0.3407
   27MOL   C43912971   5.385   7.670   6.582 -0.6018 -0.4653 -0.4836
   27MOL   S44012972   5.687   7.351   6.481 -0.4617 -0.1161  0.1852
   27MOL   O44112973   5.613   7.279   6.380  0.1788  0.0075  0.6905
   27MOL   O44212974   5.731   7.281   6.602  0.7781  0.4802 -0.4988
   27MOL   C44312975   5.839   7.426   6.414  0.2851 -0.3702  0.1733
   27MOL   C44412976   5.932   7.478   6.505 -0.0254 -0.1824 -0.0724
   27MOL   C44512977   6.045   7.541   6.458 -0.4252 -0.8618  0.4086
   27MOL   C44612978   6.068   7.558   6.322 -0.0061  0.0987 -0.5813
   27MOL   C44712979   5.977   7.504   6.228 -0.5831  0.0082 -1.0247
   27MOL   C44812980   5.865   7.436   6.276  0.3109  0.2237 -0.4540
   27MOL   O44912981   6.177   7.627   6.275 -0.3393 -0.3916 -0.4894
   27MOL   H45012982   5.311   7.530   6.732  0.9266 -1.0298  0.6638
   27MOL   H45112983   5.465   7.359   6.683  2.4417 -1.2755 -1.2440
   27MOL   H45212984   5.641   7.605   6.368  0.1117 -0.3486  0.5062
   27MOL   H45312985   5.483   7.790   6.435  2.1069  0.6084  1.7128
   27MOL   H45412986   5.914   7.477   6.611  0.5263  1.8441  0.0702
   27MOL   H45512987   6.111   7.576   6.536 -1.4443  0.4327  0.7185
   27MOL   H45612988   5.996   7.522   6.123 -1.3397  2.4965 -0.7686
   27MOL   H45712989   5.786   7.410   6.207 -1.2697  3.0738  0.2222
   27MOL   C45812990   6.293   7.419   6.223 -0.2708 -0.8517  0.1977
   27MOL   C45912991   6.387   7.352   6.147  0.2555 -0.7662  0.0665
   27MOL   C46012992   6.445   7.417   6.030  0.8349  0.7043 -0.0347
   27MOL   C46112993   6.419   7.553   6.007 -0.2305  0.1031  0.2268
   27MOL   C46212994   6.333   7.622   6.093  0.4435 -0.2166  0.6912
   27MOL   C46312995   6.268   7.557   6.199  0.3190  0.2279 -1.1783
   27MOL   S46412996   6.526   7.323   5.906 -0.0569 -0.1939 -0.3206
   27MOL   O46512997   6.429   7.303   5.798  0.3110  0.4048 -0.3231
   27MOL   O46612998   6.594   7.210   5.970  0.1357 -0.7657 -0.3346
   27MOL   C46712999   6.655   7.432   5.840  0.0928 -0.3168  0.2223
   27MOL   C46813000   6.632   7.507   5.716  0.2484  0.3828 -0.3117
   27MOL   C46913001   6.729   7.597   5.673  0.2288  0.6382 -0.2457
   27MOL   C47013002   6.851   7.612   5.743  0.1707 -0.2905 -0.6937
   27MOL   C47113003   6.876   7.533   5.859  0.2155  0.3987 -0.2272
   27MOL   C47213004   6.778   7.445   5.913  0.0564 -0.3892  0.1371
   27MOL   O47313005   6.952   7.693   5.705  0.3088  0.8914 -0.5303
   27MOL   H47413006   6.235   7.360   6.293 -0.2723 -0.9839  0.0854
   27MOL   H47513007   6.396   7.246   6.167 -0.8837 -0.6462  1.2880
   27MOL   H47613008   6.459   7.604   5.921 -0.9770  2.7555  1.3852
   27MOL   H47713009   6.308   7.721   6.059  1.2929 -0.1477  0.2272
   27MOL   H47813010   6.536   7.504   5.667 -0.8158  0.4271  1.7443
   27MOL   H47913011   6.700   7.662   5.592  0.4487  0.0803 -0.7806
   27MOL   H48013012   6.968   7.539   5.915  1.3359 -0.6518 -1.8964
   27MOL   H48113013   6.794   7.392   6.006 -0.8314 -0.3660  0.3100
   27MOL   H48213014   6.935   7.739   5.624  0.7889  1.8762 -0.0737
   28MOL     C113015   3.201   4.295   6.894  0.5401  1.5241 -0.3560
   28MOL     C213016   3.241   4.332   6.765 -0.2475 -0.2936  0.5072
   28MOL     C313017   3.364   4.397   6.749  0.8723  0.8905 -0.0425
   28MOL     C413018   3.439   4.422   6.861 -0.5580  0.2104 -1.1193
   28MOL     C513019   3.396   4.388   6.990 -0.1220 -0.4505 -0.2148
   28MOL     C613020   3.276   4.318   7.010 -0.6672  0.2016 -0.0044
   28MOL     S713021   3.429   4.438   6.589  0.4521 -0.4818 -0.3602
   28MOL     O813022   3.344   4.389   6.484  0.2338  0.3998  0.2492
   28MOL     O913023   3.570   4.400   6.588  0.0328 -0.6070  0.1818
   28MOL    C1013024   3.425   4.615   6.580 -0.0995 -0.2387  0.7631
   28MOL    C1113025   3.526   4.686   6.516  0.1922 -0.5442  0.3956
   28MOL    C1213026   3.515   4.824   6.499 -0.5024 -0.1226 -0.3079
   28MOL    C1313027   3.403   4.894   6.548  0.2699  0.7797  0.2882
   28MOL    C1413028   3.300   4.824   6.614  0.1109 -0.2626 -0.6241
   28MOL    C1513029   3.305   4.684   6.621  0.8367  0.6554 -0.1607
   28MOL    O1613030   3.392   5.027   6.519  0.2820  0.3722  0.3362
   28MOL    H1713031   3.106   4.246   6.910  0.1353  1.6965 -2.2240
   28MOL    H1813032   3.179   4.315   6.678  1.3984  0.6788 -0.8881
   28MOL    H1913033   3.533   4.474   6.854 -0.4164  0.5038  1.9393
   28MOL    H2013034   3.467   4.418   7.065 -0.7878  0.8946 -0.1041
   28MOL    H2113035   3.621   4.647   6.484 -0.0733 -0.2733 -0.7461
   28MOL    H2213036   3.587   4.888   6.451 -0.4368 -0.0688 -0.1382
   28MOL    H2313037   3.216   4.865   6.669 -0.2111 -1.5108 -0.1764
   28MOL    H2413038   3.224   4.636   6.674 -0.0485  1.2100 -0.9858
   28MOL    H2513039   3.245   4.287   7.109 -1.1648  0.1947 -0.1587
   28MOL    C2613040   3.319   5.000   6.288  0.1906 -0.5930 -0.6003
   28MOL    C2713041   3.333   5.042   6.154 -0.0261  0.3419  0.6026
   28MOL    C2813042   3.429   5.139   6.118 -0.1895 -0.1748 -0.5562
   28MOL    C2913043   3.499   5.207   6.220 -0.0768 -0.5399  0.3892
   28MOL    C3013044   3.484   5.170   6.353 -0.2503  0.0480  0.5639
   28MOL    C3113045   3.402   5.058   6.384  0.0528  0.1762  0.3627
   28MOL    S3213046   3.466   5.173   5.946  0.1463 -0.5740 -0.7984
   28MOL    O3313047   3.516   5.310   5.924  0.0690 -0.0297  0.1328
   28MOL    O3413048   3.351   5.124   5.868 -0.0365 -0.4625 -0.0535
   28MOL    C3513049   3.605   5.064   5.906  0.0061 -0.1431 -0.9223
   28MOL    C3613050   3.722   5.124   5.852  0.1376 -0.0302 -0.4210
   28MOL    C3713051   3.830   5.045   5.820  0.0504 -1.2841 -0.2842
   28MOL    C3813052   3.827   4.904   5.827  0.6398 -0.2151  0.0862
   28MOL    C3913053   3.706   4.850   5.877 -0.2144  0.1062 -0.7981
   28MOL    C4013054   3.596   4.929   5.921 -0.1829 -0.3448 -0.1665
   28MOL    O4113055   3.937   4.830   5.796 -0.1788 -0.7793  0.7267
   28MOL    H4213056   3.239   4.934   6.318  0.3979 -0.7453 -0.3848
   28MOL    H4313057   3.273   4.991   6.080  0.1032 -0.2109  0.8777
   28MOL    H4413058   3.563   5.291   6.199 -0.1063 -0.8110 -0.8249
   28MOL    H4513059   3.523   5.225   6.437  1.2189 -2.1256  1.3432
   28MOL    H4613060   3.729   5.229   5.829 -0.0393  0.4868  1.7546
   28MOL    H4713061   3.926   5.089   5.797 -0.2717  0.4588  1.5409
   28MOL    H4813062   3.700   4.746   5.905 -0.6868 -0.2938 -2.3105
   28MOL    H4913063   3.504   4.881   5.949  0.1113 -1.1365 -0.5214
   28MOL    C5013064   3.974   4.920   5.579 -0.2282  0.2814  0.2298
   28MOL    C5113065   4.055   4.982   5.480 -0.1336  0.3199  0.0116
   28MOL    C5213066   4.193   5.001   5.507  0.8015  0.4945  0.1592
   28MOL    C5313067   4.249   4.945   5.629 -0.5018 -0.5559 -0.5918
   28MOL    C5413068   4.162   4.889   5.725 -0.3990 -0.7947  0.1209
   28MOL    C5513069   4.024   4.882   5.701 -0.4521  0.3754  0.3043
   28MOL    S5613070   4.292   5.088   5.390 -0.0330 -0.2354 -0.3656
   28MOL    O5713071   4.359   4.989   5.309  0.1991  0.8015 -0.8069
   28MOL    O5813072   4.372   5.188   5.466 -0.0820 -0.0809  0.3500
   28MOL    C5913073   4.180   5.189   5.281  0.9305  0.3028  0.1798
   28MOL    C6013074   4.117   5.307   5.316  0.3453  0.7248 -0.2225
   28MOL    C6113075   4.045   5.375   5.219  0.6316 -0.5194  0.3935
   28MOL    C6213076   4.027   5.325   5.093  0.3578 -0.5117  0.1995
   28MOL    C6313077   4.076   5.198   5.066  0.5466 -0.0571 -0.0767
   28MOL    C6413078   4.154   5.123   5.156  0.2220 -0.6168  0.3410
   28MOL    O6513079   3.946   5.400   5.012 -0.3097 -0.4689 -0.0288
   28MOL    H6613080   3.867   4.913   5.563 -0.5215  1.3120  1.6244
   28MOL    H6713081   4.007   5.004   5.386  0.1900 -0.6443 -0.3929
   28MOL    H6813082   4.353   4.968   5.646 -0.4693 -0.8660 -0.3800
   28MOL    H6913083   4.205   4.849   5.815 -0.1786 -1.0169 -0.0801
   28MOL    H7013084   4.135   5.343   5.417 -0.7460  0.4847  0.0608
   28MOL    H7113085   3.989   5.466   5.234 -0.3302 -0.8838 -0.9949
   28MOL    H7213086   4.053   5.148   4.973 -0.1759  1.0109 -0.4750
   28MOL    H7313087   4.200   5.033   5.120  0.4939 -0.0976 -0.6381
   28MOL    C7413088   3.849   5.246   4.857  0.1564 -0.0457  0.5376
   28MOL    C7513089   3.844   5.200   4.724  0.2515  0.1240 -0.2314
   28MOL    C7613090   3.916   5.266   4.620  1.1381 -0.6144 -0.0243
   28MOL    C7713091   3.977   5.384   4.640 -0.4386 -0.9237 -0.0729
   28MOL    C7813092   3.976   5.438   4.773 -0.3301 -0.2002 -0.6576
   28MOL    C7913093   3.928   5.358   4.880  0.0775 -0.1442  0.2291
   28MOL    S8013094   3.910   5.200   4.456 -0.3450  0.0610  0.1122
   28MOL    O8113095   3.793   5.261   4.382  0.2460 -0.2779 -0.1797
   28MOL    O8213096   3.913   5.052   4.465 -0.1692 -0.2937  0.4976
   28MOL    C8313097   4.045   5.265   4.360 -0.0553 -0.3612 -0.2298
   28MOL    C8413098   4.032   5.389   4.297 -0.2402  1.7665 -0.0221
   28MOL    C8513099   4.132   5.447   4.226  0.7681 -0.2241 -0.2154
   28MOL    C8613100   4.253   5.380   4.219  0.2679  0.9238  0.1602
   28MOL    C8713101   4.268   5.260   4.280  0.5258  0.5291 -0.3349
   28MOL    C8813102   4.168   5.196   4.359 -0.2300  0.2087  0.8630
   28MOL    O8913103   4.356   5.419   4.142 -0.0939 -0.0003  0.0740
   28MOL    H9013104   3.798   5.193   4.937 -2.1138  1.3910  0.0781
   28MOL    H9113105   3.781   5.114   4.707  0.1595  0.0530  0.4375
   28MOL    H9213106   4.032   5.439   4.565  0.5590 -1.8843 -0.0616
   28MOL    H9313107   4.004   5.537   4.805 -1.3760 -0.0523 -0.1833
   28MOL    H9413108   3.944   5.451   4.311 -0.0461  1.8064  1.1139
   28MOL    H9513109   4.123   5.547   4.186 -0.5488 -0.1327  0.2943
   28MOL    H9613110   4.371   5.227   4.281  0.6864  1.0186  0.7457
   28MOL    H9713111   4.194   5.106   4.413  1.9458 -0.4798 -1.2157
   28MOL    C9813112   4.236   5.387   3.935 -0.7204  0.1200 -0.7600
   28MOL    C9913113   4.212   5.423   3.803  0.6382 -0.1476 -0.5488
   28MOL   C10013114   4.271   5.534   3.747  0.3155 -0.2023 -0.4628
   28MOL   C10113115   4.368   5.608   3.824  0.2725 -0.0654  0.0626
   28MOL   C10213116   4.394   5.573   3.961  0.1957 -0.1173 -0.3451
   28MOL   C10313117   4.326   5.462   4.015 -0.2748 -0.5543 -0.1665
   28MOL   S10413118   4.257   5.560   3.571  0.0951  0.5421  0.1057
   28MOL   O10513119   4.304   5.699   3.542 -1.0240  0.7512 -0.1290
   28MOL   O10613120   4.117   5.519   3.537  0.3273 -0.0733  0.8306
   28MOL   C10713121   4.377   5.437   3.513  0.1822  0.0489 -0.1395
   28MOL   C10813122   4.517   5.460   3.537  0.9504 -0.5847 -0.4820
   28MOL   C10913123   4.619   5.359   3.518 -0.5390  0.4832  0.2323
   28MOL   C11013124   4.581   5.232   3.471  1.2810 -0.9205 -0.5054
   28MOL   C11113125   4.443   5.205   3.450  0.5391  0.2226 -0.4693
   28MOL   C11213126   4.346   5.315   3.458 -0.2070  0.0364  0.2807
   28MOL   O11313127   4.669   5.132   3.462  0.0436 -0.1984  0.1449
   28MOL   H11413128   4.183   5.300   3.969 -0.8109  0.1141 -0.9174
   28MOL   H11513129   4.146   5.363   3.741 -2.3054  1.1993  1.1707
   28MOL   H11613130   4.404   5.703   3.789 -0.0546  0.2302  0.5202
   28MOL   H11713131   4.470   5.627   4.015  0.0149 -0.8664  0.6730
   28MOL   H11813132   4.547   5.560   3.567 -0.5720 -0.4115  0.5200
   28MOL   H11913133   4.723   5.378   3.541 -0.5785  1.8772 -0.6797
   28MOL   H12013134   4.410   5.107   3.420 -2.7066  0.6745  1.4043
   28MOL   H12113135   4.241   5.294   3.443 -0.6079  1.9058  0.3297
   28MOL   C12213136   4.706   5.102   3.221 -1.0249 -0.6981  0.0296
   28MOL   C12313137   4.796   5.113   3.111  0.7276 -0.2890  0.1627
   28MOL   C12413138   4.930   5.149   3.135 -0.4159 -0.0334  0.2563
   28MOL   C12513139   4.971   5.178   3.266 -0.0341 -0.3943 -0.1063
   28MOL   C12613140   4.881   5.180   3.375  0.6677 -0.1877  0.1688
   28MOL   C12713141   4.752   5.136   3.352  0.7775 -0.6789  0.0042
   28MOL   S12813142   5.048   5.152   3.012  0.0524  0.0221 -0.0425
   28MOL   O12913143   4.988   5.097   2.895 -0.6026  0.7078  0.4047
   28MOL   O13013144   5.173   5.090   3.068  0.3133  0.7001  0.0549
   28MOL   C13113145   5.076   5.322   2.975  0.1634  0.1877 -0.1705
   28MOL   C13213146   5.181   5.395   3.029  0.8357  0.9497  0.0314
   28MOL   C13313147   5.179   5.529   3.013  0.2789 -0.3919  0.2155
   28MOL   C13413148   5.077   5.596   2.935 -1.0969  0.3044  0.1374
   28MOL   C13513149   4.978   5.517   2.879  1.0296  0.7946 -0.3127
   28MOL   C13613150   4.979   5.382   2.893  0.7401  0.0294  0.0391
   28MOL   O13713151   5.072   5.732   2.917 -0.4027  0.7599 -0.1421
   28MOL   H13813152   4.609   5.056   3.207 -0.5884 -1.9022  0.8387
   28MOL   H13913153   4.748   5.079   3.020 -2.4307  0.8642  1.3358
   28MOL   H14013154   5.073   5.212   3.277  0.1606 -0.3578 -1.8692
   28MOL   H14113155   4.905   5.198   3.479 -2.2874  1.5072  0.5944
   28MOL   H14213156   5.249   5.338   3.090 -1.9094 -2.9022 -0.3019
   28MOL   H14313157   5.252   5.589   3.066 -1.5059  1.0626  1.0436
   28MOL   H14413158   4.888   5.562   2.839 -0.0290  1.0231  2.2286
   28MOL   H14513159   4.904   5.326   2.839  2.3358 -1.0535 -1.1065
   28MOL   C14613160   4.918   5.889   3.005 -0.5208 -1.2204  0.1610
   28MOL   C14713161   4.878   5.977   3.117 -0.0451  0.5350  0.0837
   28MOL   C14813162   4.968   5.998   3.223 -0.1193 -0.3513 -0.3468
   28MOL   C14913163   5.094   5.932   3.230 -0.3488  0.2472  0.1413
   28MOL   C15013164   5.125   5.843   3.125 -0.2266 -0.3580  0.0151
   28MOL   C15113165   5.036   5.822   3.018 -0.3148  0.2283  1.6439
   28MOL   S15213166   4.930   6.105   3.369 -0.3247  0.3838 -0.0476
   28MOL   O15313167   5.010   6.054   3.483 -0.1377  0.2306  0.1925
   28MOL   O15413168   4.783   6.115   3.381  0.9318  0.4164 -0.0659
   28MOL   C15513169   4.983   6.272   3.329 -0.4277  0.5343 -0.4890
   28MOL   C15613170   5.047   6.344   3.432  0.0463 -0.2663 -0.0442
   28MOL   C15713171   5.089   6.475   3.408  0.0606  0.3174  0.1232
   28MOL   C15813172   5.061   6.540   3.285  0.4221 -0.3580  0.4950
   28MOL   C15913173   4.994   6.463   3.186 -0.1675  0.3487  0.1367
   28MOL   C16013174   4.954   6.329   3.205  0.9107  0.2424  0.2783
   28MOL   O16113175   5.102   6.668   3.265 -0.5173 -0.0947  0.2388
   28MOL   H16213176   4.842   5.873   2.929 -0.3593 -0.5843 -0.1463
   28MOL   H16313177   4.780   6.023   3.123  0.1524  0.6899  2.6508
   28MOL   H16413178   5.160   5.948   3.314 -1.6734 -2.9093  1.8400
   28MOL   H16513179   5.221   5.793   3.122  0.1630  0.4410 -1.0320
   28MOL   H16613180   5.062   6.299   3.529 -0.9516 -0.4137  0.0437
   28MOL   H16713181   5.133   6.525   3.493 -0.7539  1.2474  0.0053
   28MOL   H16813182   4.971   6.523   3.098 -0.3992 -2.2875 -1.6494
   28MOL   H16913183   4.903   6.287   3.120  0.2283  1.2759  0.1673
   28MOL   C17013184   5.329   6.734   3.319 -0.2295 -0.3120 -0.7981
   28MOL   C17113185   5.461   6.745   3.273 -0.1107  0.2892  0.3280
   28MOL   C17213186   5.492   6.708   3.146  0.2963  0.1238  0.4382
   28MOL   C17313187   5.397   6.659   3.060  0.1645  0.5854 -0.1801
   28MOL   C17413188   5.267   6.642   3.097 -0.1961  0.2545 -0.9578
   28MOL   C17513189   5.235   6.678   3.226 -0.3204  0.2780  0.0424
   28MOL   S17613190   5.663   6.734   3.077  0.1115 -0.1557 -0.4483
   28MOL   O17713191   5.648   6.821   2.958 -0.1589 -0.0251  0.3341
   28MOL   O17813192   5.732   6.605   3.075 -0.7827  0.0892 -0.2147
   28MOL   C17913193   5.755   6.836   3.195  0.0970 -0.4750 -0.9750
   28MOL   C18013194   5.846   6.776   3.284  0.0914 -0.8445 -0.8654
   28MOL   C18113195   5.916   6.864   3.372  0.4454 -0.0215 -0.1825
   28MOL   C18213196   5.897   7.004   3.374  0.3636  0.1831 -0.1801
   28MOL   C18313197   5.803   7.065   3.283 -0.3328  0.5938  0.1001
   28MOL   C18413198   5.732   6.978   3.197  0.1688  0.2937  0.6520
   28MOL   O18513199   5.967   7.069   3.473  1.1101 -0.3804 -0.2155
   28MOL   H18613200   5.293   6.758   3.417 -0.0130 -1.5879 -0.3986
   28MOL   H18713201   5.536   6.794   3.334  0.8440 -0.9434  0.1609
   28MOL   H18813202   5.428   6.637   2.959  1.3384 -1.3403  0.5805
   28MOL   H18913203   5.204   6.602   3.019  0.3221 -1.7832 -0.3418
   28MOL   H19013204   5.856   6.669   3.293  0.0560 -0.7508  0.3318
   28MOL   H19113205   5.982   6.826   3.450 -1.1374  1.3941  1.8971
   28MOL   H19213206   5.805   7.173   3.274 -1.7543  0.6050 -0.2091
   28MOL   H19313207   5.663   7.022   3.127 -0.9116 -0.9546  0.9210
   28MOL   C19413208   5.935   7.034   3.701 -0.6194  0.5670  0.2607
   28MOL   C19513209   5.875   7.061   3.821 -0.1440 -0.9366 -0.6561
   28MOL   C19613210   5.760   7.138   3.833 -0.3859 -0.0057 -0.4797
   28MOL   C19713211   5.725   7.209   3.712 -0.0335 -0.3047  0.0357
   28MOL   C19813212   5.788   7.182   3.590 -0.3306 -0.2071 -0.3419
   28MOL   C19913213   5.898   7.093   3.586 -0.1134 -0.0704 -0.1532
   28MOL   S20013214   5.663   7.156   3.983 -0.1201 -0.3762 -0.5295
   28MOL   O20113215   5.547   7.071   3.957  0.4143 -0.2868 -0.2978
   28MOL   O20213216   5.643   7.299   4.012  0.1138 -0.1283 -0.2983
   28MOL   C20313217   5.752   7.092   4.125 -0.1304 -0.2832  0.2582
   28MOL   C20413218   5.681   6.999   4.208 -0.4142  0.1737  0.0291
   28MOL   C20513219   5.758   6.946   4.318 -0.1932  0.4749  0.1589
   28MOL   C20613220   5.893   6.980   4.338 -0.1130  0.1368 -0.0600
   28MOL   C20713221   5.950   7.078   4.254  0.5942  0.2789 -1.2035
   28MOL   C20813222   5.884   7.135   4.144 -0.0879 -0.4521 -0.3319
   28MOL   O20913223   5.962   6.918   4.438 -0.4222 -0.6520 -0.5894
   28MOL   H21013224   6.021   6.969   3.699 -0.5655  0.3087  4.8506
   28MOL   H21113225   5.927   7.014   3.903  0.5971 -0.9572 -1.1356
   28MOL   H21213226   5.636   7.271   3.721 -1.1348 -1.4514 -2.3504
   28MOL   H21313227   5.753   7.240   3.505  0.0405 -0.8006 -0.8983
   28MOL   H21413228   5.576   6.984   4.188 -0.8311  3.0162 -0.1522
   28MOL   H21513229   5.711   6.880   4.389  0.4245 -0.5970 -0.4167
   28MOL   H21613230   6.051   7.111   4.276  0.0588  0.8940  0.4218
   28MOL   H21713231   5.930   7.209   4.080 -2.6749  1.0524 -0.5304
   28MOL   C21813232   6.056   6.724   4.325  0.5362  0.4695  0.1001
   28MOL   C21913233   6.171   6.651   4.287  0.6789  0.3132 -0.0627
   28MOL   C22013234   6.299   6.690   4.328 -0.3104  0.2030 -0.5133
   28MOL   C22113235   6.313   6.807   4.404  0.4913 -0.4465  0.3159
   28MOL   C22213236   6.201   6.891   4.428 -0.0941 -0.2576 -0.5225
   28MOL   C22313237   6.072   6.841   4.397 -0.4501  0.4068 -0.0354
   28MOL   S22413238   6.440   6.605   4.272 -0.4474 -0.2182 -0.0698
   28MOL   O22513239   6.542   6.606   4.375  0.0461 -0.2587 -0.2107
   28MOL   O22613240   6.485   6.670   4.147  0.0732  0.2837  0.5559
   28MOL   C22713241   6.401   6.435   4.224  0.5827 -0.1065 -0.0787
   28MOL   C22813242   6.435   6.334   4.310 -0.4282 -0.5302 -0.1073
   28MOL   C22913243   6.417   6.195   4.278 -0.0237 -0.1797  0.2442
   28MOL   C23013244   6.349   6.159   4.158  0.2500  0.7057 -0.5387
   28MOL   C23113245   6.298   6.264   4.074  0.2010  0.8775 -0.1937
   28MOL   C23213246   6.330   6.396   4.112 -1.1172 -0.3131  0.4570
   28MOL   O23313247   6.334   6.029   4.126  0.6329  0.2115 -0.4179
   28MOL   H23413248   5.954   6.690   4.315 -0.2621  2.3602  1.4856
   28MOL   H23513249   6.157   6.560   4.231 -0.7167  1.2408 -1.2356
   28MOL   H23613250   6.418   6.827   4.421  1.1450 -1.2357 -2.5504
   28MOL   H23713251   6.230   6.980   4.481  1.1826 -1.4379  0.7911
   28MOL   H23813252   6.486   6.358   4.403  3.3545  1.1920 -2.4997
   28MOL   H23913253   6.446   6.104   4.327 -2.3239 -0.7674  0.5576
   28MOL   H24013254   6.245   6.245   3.982 -0.3340 -2.0061  0.6684
   28MOL   H24113255   6.304   6.467   4.035  3.2449  1.6265  0.6453
   28MOL   C24213256   6.116   5.943   4.120 -0.1848 -0.0713  0.2237
   28MOL   C24313257   6.012   5.869   4.185  0.9581 -0.5409  0.2917
   28MOL   C24413258   6.030   5.805   4.315  0.4794  0.8356  0.0740
   28MOL   C24513259   6.155   5.808   4.375  0.1195  1.1069  0.6506
   28MOL   C24613260   6.261   5.883   4.314 -0.0003 -0.2302  0.1591
   28MOL   C24713261   6.241   5.953   4.190  0.5515  0.2430  0.1515
   28MOL   S24813262   5.897   5.704   4.373 -0.1843  0.2682  0.0213
   28MOL   O24913263   5.771   5.780   4.372  0.0363  0.1822 -0.4567
   28MOL   O25013264   5.947   5.639   4.495  0.5829 -0.4009 -0.4879
   28MOL   C25113265   5.882   5.572   4.250  0.3383  0.2087  0.3580
   28MOL   C25213266   5.769   5.490   4.260 -0.4015 -0.3291  0.0896
   28MOL   C25313267   5.753   5.374   4.179 -0.5610 -0.1543 -0.3604
   28MOL   C25413268   5.843   5.347   4.072  0.6054  0.2112 -0.3111
   28MOL   C25513269   5.957   5.434   4.067  0.1150 -0.7490  0.0673
   28MOL   C25613270   5.978   5.544   4.149  0.0231  0.3515  0.2223
   28MOL   O25713271   5.829   5.225   3.997  0.1080 -0.3269  0.3330
   28MOL   H25813272   6.117   6.003   4.031  0.0856 -1.8509 -0.9952
   28MOL   H25913273   5.916   5.863   4.135  0.3288  0.4063  1.3657
   28MOL   H26013274   6.170   5.756   4.468 -0.4165 -4.0036 -1.9620
   28MOL   H26113275   6.353   5.892   4.369  0.7540 -1.9187 -0.7866
   28MOL   H26213276   5.691   5.515   4.331 -0.1778 -0.2557  0.3095
   28MOL   H26313277   5.662   5.315   4.176 -3.1965  3.7623 -2.3328
   28MOL   H26413278   6.023   5.414   3.984  1.0281 -2.9684  1.2773
   28MOL   H26513279   6.072   5.598   4.141  1.4964 -1.6535  3.1209
   28MOL   C26613280   6.016   5.097   4.063  0.4963 -0.1542  0.2468
   28MOL   C26713281   6.137   5.038   4.036 -0.2725 -0.2028  0.4610
   28MOL   C26813282   6.194   5.056   3.905 -0.0152  0.3198 -0.6233
   28MOL   C26913283   6.128   5.133   3.811  0.4083 -0.3578  0.4958
   28MOL   C27013284   6.002   5.194   3.840 -0.3552 -0.5818  0.0969
   28MOL   C27113285   5.946   5.169   3.966  0.0735 -0.0684  0.0733
   28MOL   S27213286   6.357   4.993   3.865 -0.5308  0.1244 -0.0789
   28MOL   O27313287   6.382   4.895   3.972  0.2569 -0.1616 -0.4840
   28MOL   O27413288   6.444   5.111   3.844 -0.0789 -0.1856 -0.2645
   28MOL   C27513289   6.337   4.909   3.711 -0.0762 -0.2332  0.3120
   28MOL   C27613290   6.302   4.776   3.710  0.1462 -0.1553 -0.2056
   28MOL   C27713291   6.286   4.705   3.596  0.2168  0.4444 -0.2802
   28MOL   C27813292   6.312   4.758   3.474  0.8872 -0.0972 -0.7010
   28MOL   C27913293   6.340   4.893   3.465  0.4606 -0.3028  0.1492
   28MOL   C28013294   6.347   4.975   3.581  0.2803  0.0232  0.3101
   28MOL   O28113295   6.301   4.691   3.356 -0.0191 -0.0495  0.6103
   28MOL   H28213296   5.972   5.101   4.161 -1.3431 -0.8865 -0.5225
   28MOL   H28313297   6.185   4.973   4.107  0.8692  0.2289  0.0973
   28MOL   H28413298   6.171   5.152   3.714  1.0987 -0.6512  0.7410
   28MOL   H28513299   5.954   5.259   3.769 -1.9704 -1.7957  0.0538
   28MOL   H28613300   6.291   4.729   3.807 -1.5642  0.5389 -0.0465
   28MOL   H28713301   6.254   4.603   3.614  0.1240  0.6331  0.6615
   28MOL   H28813302   6.348   4.945   3.370  1.3436 -0.1708  0.2877
   28MOL   H28913303   6.353   5.083   3.579  1.4197 -0.0367  0.1598
   28MOL   C29013304   6.072   4.742   3.301  0.8557 -0.2457  0.1404
   28MOL   C29113305   5.943   4.702   3.261 -0.1014 -0.0355 -0.1299
   28MOL   C29213306   5.919   4.567   3.250  0.0005  0.1104  0.0163
   28MOL   C29313307   6.027   4.474   3.250  0.4709 -0.1625  0.2859
   28MOL   C29413308   6.157   4.520   3.285  0.3270 -0.5903  0.1262
   28MOL   C29513309   6.176   4.655   3.312  0.2287 -0.2793 -0.0227
   28MOL   S29613310   5.755   4.515   3.212  0.6003  0.2155  0.1742
   28MOL   O29713311   5.762   4.460   3.075  0.0207 -0.0912  0.1214
   28MOL   O29813312   5.652   4.616   3.251 -0.0666 -0.1482 -0.0994
   28MOL   C29913313   5.728   4.376   3.330 -0.7946 -0.9404 -0.3125
   28MOL   C30013314   5.780   4.380   3.459  0.1877  0.7232  0.1664
   28MOL   C30113315   5.773   4.260   3.539 -0.4017 -0.6134  0.7453
   28MOL   C30213316   5.721   4.140   3.491  0.3179  1.3699 -0.4574
   28MOL   C30313317   5.658   4.145   3.365  0.5444 -0.1655  0.3302
   28MOL   C30413318   5.673   4.256   3.280  0.5060  0.3978  0.2366
   28MOL   O30513319   5.720   4.027   3.567  0.1628  0.8724 -0.0513
   28MOL   H30613320   6.077   4.848   3.322 -0.9641 -0.2718  0.8059
   28MOL   H30713321   5.864   4.775   3.255 -1.2018 -1.1909  0.1200
   28MOL   H30813322   6.000   4.373   3.222 -4.4582  1.1137 -0.0732
   28MOL   H30913323   6.240   4.452   3.293  2.0493  1.5221  0.5030
   28MOL   H31013324   5.834   4.459   3.509  1.1258 -1.1889  2.2632
   28MOL   H31113325   5.832   4.247   3.628 -0.1664 -2.0114  0.4021
   28MOL   H31213326   5.620   4.051   3.330 -1.6350  0.3456  1.2611
   28MOL   H31313327   5.646   4.250   3.176 -0.4379  1.6551  0.3991
   28MOL   C31413328   5.932   3.915   3.574 -0.5366 -0.0404  0.1783
   28MOL   C31513329   6.016   3.814   3.528  0.5610 -0.4150  0.2841
   28MOL   C31613330   5.961   3.710   3.446 -0.4507  0.4803  0.0573
   28MOL   C31713331   5.831   3.720   3.398  0.2426 -0.4578  0.9423
   28MOL   C31813332   5.755   3.834   3.434 -0.3927  0.1106  0.3105
   28MOL   C31913333   5.801   3.922   3.527  0.1216  0.1955 -0.1640
   28MOL   S32013334   6.064   3.570   3.411  0.2429 -0.2644  0.2802
   28MOL   O32113335   6.056   3.547   3.266  0.1726 -0.7281 -0.0975
   28MOL   O32213336   6.034   3.463   3.511  0.2231 -0.2544 -0.3840
   28MOL   C32313337   6.240   3.623   3.428 -0.1738 -0.7156  0.3105
   28MOL   C32413338   6.302   3.688   3.324  0.2130  0.0671 -0.1554
   28MOL   C32513339   6.433   3.726   3.326  0.4816  0.1366 -0.2064
   28MOL   C32613340   6.507   3.688   3.437  0.4671  0.3620 -0.2063
   28MOL   C32713341   6.445   3.626   3.550  0.2457 -0.4623 -0.3262
   28MOL   C32813342   6.309   3.592   3.545 -0.5433 -0.0590  0.1305
   28MOL   O32913343   6.644   3.701   3.441  0.2857  0.4353  0.0751
   28MOL   H33013344   5.972   3.986   3.644  1.1555 -2.1588  1.4382
   28MOL   H33113345   6.122   3.808   3.549  1.0607  2.6802 -1.1542
   28MOL   H33213346   5.784   3.648   3.333  1.6382  1.2126 -2.0097
   28MOL   H33313347   5.654   3.850   3.400 -0.4955 -1.9044 -0.3475
   28MOL   H33413348   6.254   3.710   3.229 -0.1088 -0.0644 -0.0241
   28MOL   H33513349   6.483   3.782   3.248  0.3711 -0.0865 -0.4404
   28MOL   H33613350   6.505   3.598   3.636 -1.0086 -0.9892  0.3945
   28MOL   H33713351   6.266   3.535   3.626  0.9571 -0.9834  0.2883
   28MOL   C33813352   6.842   3.805   3.525  0.2390 -0.2614 -0.1187
   28MOL   C33913353   6.899   3.906   3.607 -0.3708  0.2323 -0.2144
   28MOL   C34013354   6.820   3.984   3.696 -0.4220  1.0511 -0.4539
   28MOL   C34113355   6.683   3.967   3.693  0.9971  0.4791 -0.1027
   28MOL   C34213356   6.621   3.878   3.607 -0.2201  0.9795 -0.5698
   28MOL   C34313357   6.699   3.789   3.529 -0.0117  0.2468 -0.1032
   28MOL   S34413358   6.890   4.085   3.823  0.4121 -0.0593  0.4363
   28MOL   O34513359   6.878   4.225   3.774 -0.3511  0.2473 -0.3298
   28MOL   O34613360   7.026   4.040   3.857  0.4102  0.3830 -0.4103
   28MOL   C34713361   6.788   4.059   3.964 -0.5155 -0.0919 -0.2460
   28MOL   C34813362   6.698   4.156   4.013 -0.1235  0.8754 -0.5325
   28MOL   C34913363   6.615   4.129   4.125  0.1899 -0.0910 -0.1692
   28MOL   C35013364   6.635   4.007   4.189  0.4373 -0.2959 -0.7149
   28MOL   C35113365   6.720   3.909   4.144  0.5732 -0.0949  0.0254
   28MOL   C35213366   6.793   3.930   4.026 -1.0349 -0.5643  0.2057
   28MOL   O35313367   6.568   3.977   4.308 -0.2533 -0.0085 -0.5768
   28MOL   H35413368   6.912   3.745   3.470  1.6877  2.1009 -0.9471
   28MOL   H35513369   7.006   3.922   3.606 -0.0142 -2.0060 -0.8828
   28MOL   H35613370   6.615   4.019   3.759 -1.1332 -0.5123 -1.4534
   28MOL   H35713371   6.514   3.871   3.622 -0.2305  0.2721 -0.9471
   28MOL   H35813372   6.697   4.250   3.960  0.7722  1.2165  0.0353
   28MOL   H35913373   6.544   4.202   4.163 -0.4564 -0.5145 -0.5426
   28MOL   H36013374   6.729   3.815   4.195 -0.4830 -0.7488 -0.9748
   28MOL   H36113375   6.853   3.848   3.992  0.3145  0.2662  0.5140
   28MOL   C36213376   6.714   4.123   4.447 -0.0225 -0.2335  0.7639
   28MOL   C36313377   6.751   4.167   4.572 -0.6230  0.0637  0.1768
   28MOL   C36413378   6.692   4.110   4.684 -0.2366  0.4091 -0.6851
   28MOL   C36513379   6.594   4.010   4.666 -0.0271  0.5866 -0.0837
   28MOL   C36613380   6.558   3.970   4.544 -0.1998  0.4062 -0.5153
   28MOL   C36713381   6.618   4.023   4.431  0.8782  0.1447  0.0187
   28MOL   S36813382   6.731   4.140   4.858  0.0214  0.2315  0.4639
   28MOL   O36913383   6.875   4.159   4.875  0.0620 -0.1847 -0.3798
   28MOL   O37013384   6.668   4.032   4.931  0.2507  0.3485 -0.4349
   28MOL   C37113385   6.640   4.288   4.904  0.6444 -0.0212  0.1145
   28MOL   C37213386   6.635   4.403   4.815 -0.2939  0.3517  0.6264
   28MOL   C37313387   6.563   4.517   4.843 -0.2216 -0.1393 -0.8832
   28MOL   C37413388   6.487   4.517   4.961 -0.1095 -0.1909 -0.1847
   28MOL   C37513389   6.494   4.407   5.053  0.9557  0.9475  0.3281
   28MOL   C37613390   6.566   4.291   5.024  0.5949 -0.0807 -0.7813
   28MOL   O37713391   6.420   4.629   4.999 -0.7505 -0.5733 -0.8811
   28MOL   H37813392   6.761   4.158   4.357  1.4306 -1.7890  0.8844
   28MOL   H37913393   6.832   4.236   4.586 -0.7279  0.4365 -0.9930
   28MOL   H38013394   6.545   3.951   4.742  0.3525 -0.6545 -0.7891
   28MOL   H38113395   6.491   3.885   4.542  2.7563 -1.9862 -1.5105
   28MOL   H38213396   6.682   4.404   4.717  0.8800 -0.3175  1.1660
   28MOL   H38313397   6.567   4.607   4.784  0.3969 -0.4894 -1.3803
   28MOL   H38413398   6.446   4.420   5.149  1.1578 -1.2289  0.7411
   28MOL   H38513399   6.580   4.201   5.082 -0.9538  0.4912  0.5227
   28MOL   C38613400   6.297   4.776   4.859 -0.7431  0.3795  0.0757
   28MOL   C38713401   6.179   4.815   4.787 -0.3206 -0.1247  0.0922
   28MOL   C38813402   6.062   4.733   4.806 -0.1982 -0.1108  0.1569
   28MOL   C38913403   6.070   4.624   4.892  0.0273 -0.0144 -0.5468
   28MOL   C39013404   6.187   4.587   4.956 -0.1420 -0.5527 -0.5578
   28MOL   C39113405   6.306   4.661   4.934 -0.0812  0.0720  0.3317
   28MOL   S39213406   5.907   4.767   4.723 -0.1426  0.1780 -0.7251
   28MOL   O39313407   5.800   4.692   4.790 -0.1293  0.3978  0.1288
   28MOL   O39413408   5.930   4.737   4.583 -0.3065 -0.3241  0.0280
   28MOL   C39513409   5.877   4.945   4.729 -0.2280  0.0447  0.2763
   28MOL   C39613410   5.873   5.027   4.613 -0.2848  0.0116 -0.0746
   28MOL   C39713411   5.859   5.165   4.614 -0.4105  0.5048 -0.3693
   28MOL   C39813412   5.838   5.232   4.737  0.0608 -0.6556  0.3755
   28MOL   C39913413   5.840   5.154   4.859  0.1387  1.1713  0.2262
   28MOL   C40013414   5.876   5.013   4.851  0.2880  0.0750 -0.4224
   28MOL   O40113415   5.820   5.368   4.733  0.7885  0.1787 -0.7404
   28MOL   H40213416   6.392   4.825   4.844 -0.4075  0.2419  1.7203
   28MOL   H40313417   6.181   4.902   4.723  0.8342 -1.2177 -1.3960
   28MOL   H40413418   5.976   4.572   4.909  0.5007 -1.4217 -2.0182
   28MOL   H40513419   6.195   4.504   5.024  0.2191  0.5507  0.7807
   28MOL   H40613420   5.889   4.990   4.513  0.1622  1.8807 -0.7224
   28MOL   H40713421   5.855   5.229   4.527  2.6434  0.3091 -0.7063
   28MOL   H40813422   5.829   5.199   4.956  1.9702 -0.2440  1.1269
   28MOL   H40913423   5.889   4.957   4.942  0.0493  0.5920 -0.0643
   28MOL   C41013424   5.716   5.570   4.656 -0.4464 -0.6530 -0.0354
   28MOL   C41113425   5.618   5.641   4.587 -0.4147 -0.6806  0.5946
   28MOL   C41213426   5.507   5.572   4.537 -0.0783  0.5777  0.4677
   28MOL   C41313427   5.488   5.437   4.564 -0.4991 -0.0847 -0.6765
   28MOL   C41413428   5.589   5.367   4.637  0.8347  0.1220  0.4175
   28MOL   C41513429   5.705   5.431   4.682  0.2446  0.0020 -0.4809
   28MOL   S41613430   5.382   5.656   4.448  0.0798 -0.3277 -0.1955
   28MOL   O41713431   5.446   5.780   4.394 -0.5465  0.3907  0.4088
   28MOL   O41813432   5.266   5.661   4.532  0.0338 -0.1311 -0.2293
   28MOL   C41913433   5.343   5.549   4.313 -0.2721  0.2999 -0.2635
   28MOL   C42013434   5.219   5.474   4.310  0.1365  0.6942  0.1285
   28MOL   C42113435   5.179   5.410   4.188  0.2584 -0.1572  0.4431
   28MOL   C42213436   5.255   5.418   4.076 -0.1600 -1.0671 -0.6178
   28MOL   C42313437   5.377   5.494   4.077 -0.4619  0.1649  0.5060
   28MOL   C42413438   5.421   5.561   4.198  0.2980  0.8038 -0.6452
   28MOL   O42513439   5.206   5.351   3.970 -0.4857  0.6156 -0.4313
   28MOL   H42613440   5.811   5.617   4.677 -1.5517  1.9833 -0.6881
   28MOL   H42713441   5.627   5.748   4.576  0.1135 -0.6958  0.8693
   28MOL   H42813442   5.396   5.383   4.549 -1.1742  0.1213  2.3507
   28MOL   H42913443   5.580   5.262   4.659 -2.1986  0.2599  0.0761
   28MOL   H43013444   5.162   5.465   4.401  0.4557 -0.3660  0.2233
   28MOL   H43113445   5.096   5.342   4.185  0.7795 -0.7784 -0.0200
   28MOL   H43213446   5.447   5.495   3.994 -1.0550  2.0491 -0.0131
   28MOL   H43313447   5.515   5.614   4.190 -0.0236  0.9769 -4.3286
   28MOL   C43413448   5.292   5.392   3.744  0.4311  0.4011  0.5435
   28MOL   C43513449   5.281   5.465   3.626  0.8999  0.0100 -0.1985
   28MOL   C43613450   5.184   5.567   3.607  0.6566 -0.2151 -0.3207
   28MOL   C43713451   5.100   5.598   3.717 -0.1135 -0.4789  0.1992
   28MOL   C43813452   5.109   5.529   3.838 -0.0356 -0.3613 -0.1738
   28MOL   C43913453   5.201   5.421   3.849 -0.0237 -0.2668 -0.7900
   28MOL   S44013454   5.174   5.648   3.454 -0.0251  0.0570  0.4342
   28MOL   O44113455   5.255   5.575   3.352  0.3559  0.7416 -0.1797
   28MOL   O44213456   5.205   5.792   3.475  0.1470 -0.8301 -0.6902
   28MOL   C44313457   5.000   5.632   3.398 -0.5730 -0.1164 -0.2240
   28MOL   C44413458   4.909   5.736   3.430 -0.1133 -0.3983  0.3042
   28MOL   C44513459   4.778   5.729   3.377  0.2495 -0.5109 -0.0705
   28MOL   C44613460   4.739   5.610   3.304 -0.4715 -0.1112  0.7971
   28MOL   C44713461   4.833   5.513   3.276  0.1807 -0.3338  0.3729
   28MOL   C44813462   4.967   5.521   3.312 -0.1794  0.3975  0.8534
   28MOL   O44913463   4.611   5.607   3.257 -0.1661 -0.4501  0.2510
   28MOL   H45013464   5.363   5.311   3.754  0.8567  0.7503  0.3604
   28MOL   H45113465   5.351   5.429   3.552 -0.7231 -1.9820 -0.7829
   28MOL   H45213466   5.020   5.670   3.707 -0.6689 -1.1597 -0.3598
   28MOL   H45313467   5.038   5.554   3.916 -0.8334  0.1877 -1.0536
   28MOL   H45413468   4.937   5.817   3.496  2.6596 -1.5112  0.5808
   28MOL   H45513469   4.700   5.800   3.401  0.7514 -0.1302  0.4339
   28MOL   H45613470   4.796   5.428   3.220 -0.9431  0.5292 -0.2077
   28MOL   H45713471   5.036   5.444   3.278  0.2009  0.9121  0.4568
   28MOL   C45813472   4.533   5.419   3.117 -0.9145  0.2125  0.1694
   28MOL   C45913473   4.542   5.366   2.984 -0.4796  0.2798 -0.3262
   28MOL   C46013474   4.583   5.448   2.876 -0.7865  0.1540 -0.2359
   28MOL   C46113475   4.625   5.581   2.894  0.6439  0.0505  0.0470
   28MOL   C46213476   4.625   5.630   3.028  0.3027  1.0094 -0.0210
   28MOL   C46313477   4.586   5.552   3.134 -0.4874 -0.2134  0.4833
   28MOL   S46413478   4.586   5.381   2.703 -0.0130  0.1115  0.0815
   28MOL   O46513479   4.712   5.408   2.636  0.9477 -0.4574 -0.5123
   28MOL   O46613480   4.468   5.432   2.637  0.1123  0.1984  0.3410
   28MOL   C46713481   4.553   5.204   2.713 -0.3193 -0.6583  0.6980
   28MOL   C46813482   4.665   5.121   2.721  0.3009 -0.4197 -0.2291
   28MOL   C46913483   4.652   4.984   2.726  0.5615  0.3455  0.4838
   28MOL   C47013484   4.524   4.929   2.703  0.1954 -0.1437  0.2836
   28MOL   C47113485   4.409   5.010   2.707  0.6745 -0.4954 -0.0383
   28MOL   C47213486   4.421   5.150   2.714 -0.2185  0.1415 -0.1781
   28MOL   O47313487   4.510   4.796   2.701 -0.6469 -0.3349  0.5022
   28MOL   H47413488   4.507   5.354   3.199  1.5749 -1.3621 -0.2739
   28MOL   H47513489   4.507   5.265   2.969 -0.2843  0.1352  0.1724
   28MOL   H47613490   4.665   5.642   2.814  0.5019  1.6041  1.1311
   28MOL   H47713491   4.662   5.730   3.044  0.9565  0.8957 -0.7934
   28MOL   H47813492   4.761   5.171   2.721  0.5973 -0.9785  0.3980
   28MOL   H47913493   4.736   4.919   2.744  0.4958 -0.5677 -2.3050
   28MOL   H48013494   4.312   4.964   2.719  1.3789 -1.9543  0.0827
   28MOL   H48113495   4.342   5.223   2.721 -1.2023 -0.5400 -3.3452
   28MOL   H48213496   4.551   4.748   2.771 -1.8913 -0.9263  0.8393
   29MOL     C113497   0.790   7.689   6.800  0.5784 -0.3364 -0.3277
   29MOL     C213498   0.845   7.753   6.684  0.4884  0.4194 -0.1359
   29MOL     C313499   0.965   7.707   6.635 -0.8616 -0.3673 -0.1515
   29MOL     C413500   1.036   7.609   6.704 -0.5952  0.6412 -0.3408
   29MOL     C513501   0.980   7.545   6.815 -0.4104  0.1998  0.1074
   29MOL     C613502   0.853   7.581   6.865  0.2719 -0.0606  0.1966
   29MOL     S713503   1.045   7.782   6.490  0.4238 -0.2933 -0.4619
   29MOL     O813504   1.130   7.671   6.443 -0.0427 -0.0055  0.4016
   29MOL     O913505   1.112   7.905   6.537  0.1108 -1.1854 -0.0974
   29MOL    C1013506   0.924   7.814   6.359 -0.1603  0.4455 -0.5160
   29MOL    C1113507   0.854   7.934   6.355  0.1457 -0.0228  0.4093
   29MOL    C1213508   0.772   7.970   6.246  0.3269 -0.0811 -0.3661
   29MOL    C1313509   0.766   7.880   6.137  0.3856 -0.1544 -0.1738
   29MOL    C1413510   0.832   7.754   6.145 -0.0593 -0.0203 -0.1375
   29MOL    C1513511   0.916   7.722   6.255  0.4139 -0.2009 -0.4135
   29MOL    O1613512   0.683   7.907   6.029 -0.4635 -0.0278 -0.2958
   29MOL    H1713513   0.696   7.720   6.844  0.2334 -1.5292 -0.2129
   29MOL    H1813514   0.802   7.840   6.637  0.0192  0.5188  0.4678
   29MOL    H1913515   1.135   7.578   6.674 -0.3407 -2.9081  3.6439
   29MOL    H2013516   1.054   7.481   6.860 -0.4048  0.2350  0.1479
   29MOL    H2113517   0.859   7.995   6.445  1.8399  1.3398 -0.5828
   29MOL    H2213518   0.703   8.053   6.246  0.2107 -0.1707 -1.2987
   29MOL    H2313519   0.832   7.698   6.052  1.2824  0.9270 -0.7233
   29MOL    H2413520   0.984   7.639   6.254  2.0378  1.0011  3.2707
   29MOL    H2513521   0.816   7.530   6.953 -1.2805 -1.9215 -1.4891
   29MOL    C2613522   0.474   7.804   6.098  0.0743  0.5349 -0.7581
   29MOL    C2713523   0.363   7.722   6.071  0.1221  0.5329  0.4655
   29MOL    C2813524   0.366   7.634   5.961  0.2772 -0.0480 -0.6404
   29MOL    C2913525   0.464   7.657   5.863  0.0712 -0.3548 -0.4181
   29MOL    C3013526   0.570   7.746   5.884  0.7231 -0.2226 -0.2336
   29MOL    C3113527   0.579   7.819   6.005  0.1182  0.3866 -0.4505
   29MOL    S3213528   0.239   7.503   5.934  0.1648 -0.3108 -0.1145
   29MOL    O3313529   0.231   7.470   5.789  0.2395 -0.3867  0.0868
   29MOL    O3413530   0.116   7.540   6.000  0.3763  0.0000 -0.0230
   29MOL    C3513531   0.287   7.350   6.015 -0.3734  0.2591  0.5987
   29MOL    C3613532   0.275   7.224   5.947 -0.4110  0.1630  0.7046
   29MOL    C3713533   0.299   7.100   6.018  0.2419  0.3924  0.8333
   29MOL    C3813534   0.357   7.110   6.143  0.0032 -0.5907 -0.2102
   29MOL    C3913535   0.374   7.233   6.208  0.6521  0.3021  0.1757
   29MOL    C4013536   0.339   7.352   6.144 -0.7057  0.3904  0.0096
   29MOL    O4113537   0.363   6.997   6.215  0.0255 -0.3412 -0.4838
   29MOL    H4213538   0.479   7.859   6.191  1.7108  0.8167 -1.0043
   29MOL    H4313539   0.282   7.712   6.142 -1.3180  2.6818 -0.8278
   29MOL    H4413540   0.452   7.608   5.767 -1.3152 -1.4796  0.3127
   29MOL    H4513541   0.646   7.762   5.809  0.8646  1.3850  0.2348
   29MOL    H4613542   0.237   7.218   5.846 -0.1774 -1.5295  0.7018
   29MOL    H4713543   0.281   7.004   5.973 -1.9158  0.4242  1.6006
   29MOL    H4813544   0.420   7.237   6.305 -0.1524  1.1632  0.5295
   29MOL    H4913545   0.334   7.447   6.197 -2.1383  0.8044 -0.8466
   29MOL    C5013546   0.486   6.950   6.411  0.2631  0.2815 -0.3216
   29MOL    C5113547   0.602   6.900   6.473  0.1803 -0.8216  0.2673
   29MOL    C5213548   0.717   6.877   6.397  0.1611 -0.0646 -1.2685
   29MOL    C5313549   0.717   6.902   6.254 -0.3089  0.1054 -0.4937
   29MOL    C5413550   0.597   6.941   6.197  0.2081  0.3703  0.4250
   29MOL    C5513551   0.479   6.961   6.275 -0.5587 -0.3322 -0.3035
   29MOL    S5613552   0.865   6.826   6.480  0.2012 -0.3194  0.6615
   29MOL    O5713553   0.868   6.899   6.606  0.1188 -0.2593 -0.2865
   29MOL    O5813554   0.978   6.839   6.387 -0.7564 -0.1184  0.4477
   29MOL    C5913555   0.850   6.648   6.509  0.3268  0.0766 -0.1189
   29MOL    C6013556   0.759   6.596   6.599 -0.3576 -1.1152 -0.0039
   29MOL    C6113557   0.755   6.457   6.630 -0.4929  0.1486 -0.4806
   29MOL    C6213558   0.841   6.367   6.564  0.5753 -0.0224 -0.1127
   29MOL    C6313559   0.928   6.416   6.468 -0.3779  0.1800  0.3519
   29MOL    C6413560   0.932   6.553   6.441  0.2352  0.2484  0.2913
   29MOL    O6513561   0.840   6.239   6.585 -0.0116 -0.1321 -0.5162
   29MOL    H6613562   0.400   6.971   6.472  0.3287 -1.1220  0.2768
   29MOL    H6713563   0.605   6.881   6.579  0.7436  1.3729  0.6697
   29MOL    H6813564   0.800   6.883   6.187 -0.9933  0.4660 -1.4459
   29MOL    H6913565   0.591   6.942   6.090 -0.7107  0.2746  0.4707
   29MOL    H7013566   0.689   6.670   6.636  0.0723 -0.8821  0.3411
   29MOL    H7113567   0.690   6.427   6.711 -1.0084  1.7592 -0.2746
   29MOL    H7213568   0.989   6.348   6.410 -1.1741  0.4780 -0.8553
   29MOL    H7313569   1.011   6.591   6.377 -0.5106 -0.0291 -0.8038
   29MOL    C7413570   0.928   6.168   6.801  0.2409  0.9130  0.3774
   29MOL    C7513571   0.903   6.137   6.937  0.3279  0.4831 -0.1284
   29MOL    C7613572   0.768   6.114   6.977 -0.1160  0.2861 -0.2141
   29MOL    C7713573   0.663   6.127   6.888  0.0601  0.3193  0.5479
   29MOL    C7813574   0.694   6.160   6.757  1.2977 -0.1366  0.2529
   29MOL    C7913575   0.822   6.191   6.715  0.3688 -0.4789  1.5190
   29MOL    S8013576   0.729   6.063   7.150 -0.0829 -0.2608  0.2344
   29MOL    O8113577   0.729   5.919   7.160  0.0513  0.1942  0.1137
   29MOL    O8213578   0.619   6.138   7.190  0.3427 -0.0745 -0.1235
   29MOL    C8313579   0.863   6.126   7.249 -0.0511  0.0166  0.2210
   29MOL    C8413580   0.868   6.268   7.275 -0.3779 -0.1468  0.1450
   29MOL    C8513581   0.973   6.320   7.357 -0.6039 -0.7395 -0.3296
   29MOL    C8613582   1.065   6.223   7.414 -0.3847 -0.5072 -0.3769
   29MOL    C8713583   1.060   6.093   7.382 -1.0448 -0.3073  0.1477
   29MOL    C8813584   0.965   6.041   7.293 -0.6817 -0.1831  0.6140
   29MOL    O8913585   1.175   6.262   7.478  0.3063  0.1579  0.2550
   29MOL    H9013586   1.024   6.203   6.765  1.0559  0.1028  1.7361
   29MOL    H9113587   0.986   6.126   7.005  1.7996  0.5634 -1.8889
   29MOL    H9213588   0.561   6.109   6.919  0.1949 -0.6477  0.4460
   29MOL    H9313589   0.613   6.178   6.687  2.4707  1.1061 -0.8011
   29MOL    H9413590   0.798   6.338   7.232  0.4732  0.3725 -0.4110
   29MOL    H9513591   0.985   6.423   7.388  2.2536 -1.1240 -0.1070
   29MOL    H9613592   1.142   6.030   7.415  1.8485  2.4982 -1.4557
   29MOL    H9713593   0.971   5.941   7.252  0.9401 -0.2729  1.0644
   29MOL    C9813594   1.075   6.320   7.687  0.2056 -0.2070  0.2794
   29MOL    C9913595   1.071   6.398   7.801  0.1719 -0.3701  0.2034
   29MOL   C10013596   1.145   6.521   7.799  0.5984 -0.2427 -0.8856
   29MOL   C10113597   1.223   6.561   7.689 -0.2417  0.2103 -0.2492
   29MOL   C10213598   1.243   6.467   7.585  0.2341 -0.6339  0.2301
   29MOL   C10313599   1.164   6.351   7.583  0.5871  0.5775  0.2652
   29MOL   S10413600   1.122   6.629   7.936 -0.5449 -0.0655  0.3248
   29MOL   O10513601   1.133   6.550   8.060 -0.0054 -0.1928  0.1520
   29MOL   O10613602   0.994   6.702   7.911 -0.2183  0.5705 -0.6788
   29MOL   C10713603   1.259   6.742   7.940  0.2087  0.7764  0.2058
   29MOL   C10813604   1.392   6.688   7.954  0.1869 -1.1826 -0.7068
   29MOL   C10913605   1.506   6.777   7.942  0.1823 -0.7610 -0.1530
   29MOL   C11013606   1.487   6.917   7.924  0.1649 -0.5264  0.2050
   29MOL   C11113607   1.354   6.970   7.899 -0.5096  0.1038 -0.3804
   29MOL   C11213608   1.243   6.883   7.906  0.1206  0.0996  0.2666
   29MOL   O11313609   1.595   7.000   7.921 -0.2357  0.2614  0.4484
   29MOL   H11413610   1.021   6.227   7.690 -0.2397 -0.0070 -1.0093
   29MOL   H11513611   1.002   6.376   7.882  1.9472  0.8597  2.1004
   29MOL   H11613612   1.282   6.652   7.687  0.5055 -0.2537  0.1454
   29MOL   H11713613   1.317   6.487   7.509 -0.7066  0.6393 -0.3642
   29MOL   H11813614   1.402   6.582   7.972  1.1263 -0.9209  0.3447
   29MOL   H11913615   1.606   6.742   7.965  0.0423 -0.5555  0.7790
   29MOL   H12013616   1.338   7.076   7.891  0.3331  0.2356 -0.3011
   29MOL   H12113617   1.144   6.913   7.875 -0.0769  0.8387  1.5901
   29MOL   C12213618   1.723   7.015   8.130 -0.1420 -0.3054  0.2821
   29MOL   C12313619   1.754   7.083   8.246 -0.1356  0.2789 -0.4051
   29MOL   C12413620   1.684   7.195   8.279  0.5477 -0.7154 -0.0993
   29MOL   C12513621   1.590   7.251   8.192 -0.1552  0.2413  0.5798
   29MOL   C12613622   1.553   7.182   8.076 -0.2912  0.7380 -0.0321
   29MOL   C12713623   1.625   7.064   8.042  0.3309  0.4057 -0.3791
   29MOL   S12813624   1.726   7.289   0.002 -0.2684  0.2887 -0.0977
   29MOL   O12913625   1.789   7.201   0.099 -0.5789 -0.5567  1.2035
   29MOL   O13013626   1.607   7.356   0.050  0.2591 -0.0618 -0.4072
   29MOL   C13113627   1.846   7.416   8.383 -0.3292 -0.2207  0.2207
   29MOL   C13213628   1.971   7.434   0.032  0.9987  0.5021  0.1893
   29MOL   C13313629   2.062   7.534   8.421 -0.3038  0.0556 -0.2595
   29MOL   C13413630   2.046   7.607   8.304  0.3042  0.2259  0.2495
   29MOL   C13513631   1.939   7.578   8.217 -0.9273  0.3395  0.2557
   29MOL   C13613632   1.838   7.489   8.262 -0.0531 -1.0088 -0.7298
   29MOL   O13713633   2.141   7.698   8.270 -0.0566 -0.1481 -0.1742
   29MOL   H13813634   1.782   6.931   8.096  0.4228  0.9616 -2.0011
   29MOL   H13913635   1.827   7.055   8.321  1.1828  0.8647 -1.4379
   29MOL   H14013636   1.540   7.341   8.223 -1.7950 -0.2955 -0.4670
   29MOL   H14113637   1.469   7.221   8.020 -3.1991 -0.7556  3.0680
   29MOL   H14213638   1.985   7.368   0.117  0.6860 -0.7589 -0.7154
   29MOL   H14313639   2.153   7.537   0.054  1.2642  0.4569 -2.6575
   29MOL   H14413640   1.929   7.626   8.121 -1.4749  0.3035  0.2882
   29MOL   H14513641   1.753   7.479   8.196  0.8116 -1.7673 -1.7556
   29MOL   C14613642   2.239   7.922   8.307  0.6277 -0.1239  0.1722
   29MOL   C14713643   2.218   8.061   8.330  0.3847  0.0570 -0.0055
   29MOL   C14813644   2.088   8.108   8.345  0.5622 -0.2424 -0.6474
   29MOL   C14913645   1.975   8.022   8.340  0.3337  0.8729 -0.0375
   29MOL   C15013646   1.989   7.885   8.312 -0.0528 -0.2197  0.5543
   29MOL   C15113647   2.124   7.833   8.302  0.3859  0.0942 -0.1791
   29MOL   S15213648   2.061   8.287   8.367  0.2860  0.1987  0.2318
   29MOL   O15313649   2.187   8.340   8.417  0.3579 -0.3904  0.4878
   29MOL   O15413650   1.940   8.297   0.024 -0.4459  0.2322 -0.6414
   29MOL   C15513651   2.021   8.354   8.204  0.4879 -0.4906  0.4711
   29MOL   C15613652   2.083   8.311   8.088 -0.2196 -1.0943 -0.4904
   29MOL   C15713653   2.047   8.371   7.968  0.4794 -0.0038 -0.1721
   29MOL   C15813654   1.941   0.038   7.962 -0.3744 -0.4458  0.0611
   29MOL   C15913655   1.875   0.081   8.081 -0.1373 -0.0678 -0.1113
   29MOL   C16013656   1.911   0.021   8.203  1.0885 -0.1092  0.2545
   29MOL   O16113657   1.892   0.072   7.833  0.1233  0.7699  0.7107
   29MOL   H16213658   2.337   7.881   8.288  1.3918  1.0596  1.4910
   29MOL   H16313659   2.300   8.130   8.315 -0.2448  1.2137  1.6558
   29MOL   H16413660   1.876   8.065   8.341  1.0587  2.7560 -2.3660
   29MOL   H16513661   1.903   7.820   8.313  0.4455 -0.8894  1.1072
   29MOL   H16613662   2.161   8.239   8.103  0.7770  0.0758  0.0813
   29MOL   H16713663   2.095   8.343   7.875 -0.6552 -0.1044 -0.7355
   29MOL   H16813664   1.797   0.156   8.075  0.0412  0.3720  2.4119
   29MOL   H16913665   1.867   0.052   8.297 -0.2013 -0.1465 -0.3314
   29MOL   C17013666   1.735   0.041   7.654  0.6741 -0.5216 -0.0585
   29MOL   C17113667   1.653   8.385   7.574 -0.7830 -0.2628  0.1070
   29MOL   C17213668   1.641   8.249   7.611  0.5955  0.3357  0.0517
   29MOL   C17313669   1.703   8.196   7.722 -0.5760 -0.1931  0.4276
   29MOL   C17413670   1.789   8.271   7.800 -0.4693 -0.1799  0.2943
   29MOL   C17513671   1.810   8.411   7.759  0.0640  1.2724  0.3189
   29MOL   S17613672   1.530   8.143   7.522  0.2054 -0.3052 -0.0085
   29MOL   O17713673   1.549   8.005   7.571 -0.2437 -0.4027  0.0482
   29MOL   O17813674   1.562   8.166   7.383 -0.3902  0.7467 -0.1170
   29MOL   C17913675   1.361   8.194   7.562  0.2009  0.4007 -0.7113
   29MOL   C18013676   1.339   8.285   7.662  0.9810 -0.0971  0.4626
   29MOL   C18113677   1.213   8.295   7.721 -0.3065  0.2226  0.8687
   29MOL   C18213678   1.103   8.217   7.671  0.2206  0.3545 -0.6150
   29MOL   C18313679   1.124   8.130   7.559 -0.5041 -0.3333 -0.1430
   29MOL   C18413680   1.255   8.110   7.509  0.4611  0.6447  1.0866
   29MOL   O18513681   0.983   8.231   7.729  0.0368  0.2310 -0.0872
   29MOL   H18613682   1.737   0.148   7.638  0.8625 -0.4289  0.5968
   29MOL   H18713683   1.600   0.004   7.491  1.0654  0.9888 -0.4441
   29MOL   H18813684   1.681   8.093   7.743 -0.4505 -0.4667 -0.7248
   29MOL   H18913685   1.825   8.227   7.892 -1.3929  0.1895  0.8382
   29MOL   H19013686   1.425   8.334   7.706 -1.3427  2.0520  2.7646
   29MOL   H19113687   1.201   8.361   7.806  2.9434 -2.0058  3.2044
   29MOL   H19213688   1.044   8.069   7.520 -0.3747  1.4067 -3.3041
   29MOL   H19313689   1.285   8.039   7.434  1.1945 -0.2783  2.2383
   29MOL   C19413690   1.027   8.095   7.918  0.7206  0.1707  0.4784
   29MOL   C19513691   0.999   7.987   8.009  0.5407  0.5123 -0.5956
   29MOL   C19613692   0.885   7.902   7.977  0.1681 -0.2448 -0.0865
   29MOL   C19713693   0.799   7.940   7.872  0.4429 -0.1280 -0.1179
   29MOL   C19813694   0.825   8.055   7.794  0.2531  0.5532  0.5687
   29MOL   C19913695   0.949   8.123   7.808 -0.0306  0.7984  0.1245
   29MOL   S20013696   0.847   7.762   8.075  0.3315 -0.5672 -0.4134
   29MOL   O20113697   0.790   7.812   8.198 -0.3084 -0.0632  0.0916
   29MOL   O20213698   0.962   7.668   8.079 -0.2753  0.4639  0.3796
   29MOL   C20313699   0.710   7.673   7.998  0.2832  0.5777  0.0261
   29MOL   C20413700   0.576   7.704   8.033 -0.0635  0.1220  0.1082
   29MOL   C20513701   0.472   7.634   7.974 -0.8257  0.2428 -0.3433
   29MOL   C20613702   0.501   7.538   7.876 -0.1693 -1.0585 -0.1388
   29MOL   C20713703   0.632   7.507   7.843 -0.0447 -0.2857 -0.1409
   29MOL   C20813704   0.738   7.578   7.899  0.1332 -0.2561 -0.3857
   29MOL   O20913705   0.404   7.468   7.816 -0.2576 -0.2891 -0.3917
   29MOL   H21013706   1.105   8.167   7.939 -0.0954  1.0374  0.5909
   29MOL   H21113707   1.053   7.964   8.099 -0.9014  0.1799  0.2027
   29MOL   H21213708   0.703   7.889   7.867 -0.2241  0.8871  1.7864
   29MOL   H21313709   0.745   8.072   7.724  0.5429  0.1798  0.1501
   29MOL   H21413710   0.538   7.778   8.102 -2.3318  0.5566 -1.5771
   29MOL   H21513711   0.371   7.653   8.009 -0.3649 -0.2350  1.3136
   29MOL   H21613712   0.659   7.433   7.769 -1.0851  0.6201 -1.4405
   29MOL   H21713713   0.838   7.545   7.875  1.3875  1.1396  2.5981
   29MOL   C21813714   0.181   7.426   7.885  0.6218 -0.0002  0.1361
   29MOL   C21913715   0.085   7.360   7.959 -0.2314 -0.7621  0.3562
   29MOL   C22013716   0.131   7.278   8.060 -0.0262  0.0516 -0.9621
   29MOL   C22113717   0.269   7.263   8.088 -0.7715  0.0741  0.1377
   29MOL   C22213718   0.361   7.316   8.002 -0.4698  0.7199  0.0359
   29MOL   C22313719   0.317   7.401   7.898 -0.1369 -0.5959 -0.0888
   29MOL   S22413720   0.016   7.189   8.157  0.1625  0.6139  0.1583
   29MOL   O22513721   0.081   7.094   8.250  0.0699 -1.2025  0.3595
   29MOL   O22613722   8.329   7.154   8.066 -0.6262  0.3242  0.4369
   29MOL   C22713723   8.380   7.315   8.271  0.6690  0.0058 -0.1793
   29MOL   C22813724   0.012   7.442   8.287  0.0521  0.3783  0.2197
   29MOL   C22913725   8.383   7.537   8.375 -0.1856  0.1521 -0.5274
   29MOL   C23013726   8.271   7.496   0.027  0.2589  0.4818  0.4914
   29MOL   C23113727   8.216   7.362   0.026 -0.0638  0.1584 -0.1542
   29MOL   C23213728   8.277   7.270   8.358  0.4915  0.4605 -0.4564
   29MOL   O23313729   8.204   7.596   0.092 -0.0789  0.3023 -0.1442
   29MOL   H23413730   0.161   7.473   7.789 -1.2694 -0.3824  0.3411
   29MOL   H23513731   8.406   7.379   7.936  0.1657  2.9211  1.2557
   29MOL   H23613732   0.320   7.212   8.169  0.2473  1.7663  0.5926
   29MOL   H23713733   0.466   7.291   8.011 -0.5242  0.0426 -1.0861
   29MOL   H23813734   0.099   7.463   8.226  0.8001  0.1378  1.2014
   29MOL   H23913735   8.422   7.638   8.376  1.3549 -0.4292  1.2395
   29MOL   H24013736   8.141   7.332   0.097  0.4881  0.7182  0.6872
   29MOL   H24113737   8.241   7.168   8.356 -0.4418  0.7591  0.7386
   29MOL   C24213738   8.072   7.619   0.286 -0.1427 -0.0631  0.0879
   29MOL   C24313739   8.048   7.608   0.426 -0.2210 -0.0975 -0.2896
   29MOL   C24413740   8.158   7.572   0.506  0.3162  1.1868 -0.4311
   29MOL   C24513741   8.289   7.550   0.454  0.0294 -0.0300 -0.1279
   29MOL   C24613742   8.301   7.543   0.311 -0.3762  0.2606 -0.2013
   29MOL   C24713743   8.193   7.593   0.227 -0.2187  0.9800  0.4886
   29MOL   S24813744   8.135   7.531   0.681  0.2117 -0.1727 -0.2854
   29MOL   O24913745   8.013   7.605   0.729  0.0425  0.5330  0.3547
   29MOL   O25013746   8.269   7.543   0.743  0.1407 -0.4097 -0.2850
   29MOL   C25113747   8.085   7.356   0.694 -0.2394 -0.5151  0.0810
   29MOL   C25213748   7.959   7.322   0.631 -0.0291 -0.5647  0.0246
   29MOL   C25313749   7.910   7.191   0.633 -0.7377  0.3308 -0.4561
   29MOL   C25413750   7.989   7.087   0.691  0.9543  0.3567  0.1590
   29MOL   C25513751   8.117   7.117   0.744  1.0675  0.1290  0.4728
   29MOL   C25613752   8.163   7.253   0.751 -0.2495 -0.5609 -0.6107
   29MOL   O25713753   7.950   6.956   0.689  0.1291  0.4024 -0.3228
   29MOL   H25813754   7.991   7.656   0.224 -0.8046 -0.0470  0.9466
   29MOL   H25913755   7.953   7.639   0.469  1.2324  2.2528  1.3129
   29MOL   H26013756   8.373   7.522   0.514 -1.3562 -0.1544  1.7999
   29MOL   H26113757   8.397   7.517   0.269  0.6838  0.9236  1.7639
   29MOL   H26213758   7.912   7.412   0.595  0.8594  1.2104  3.1312
   29MOL   H26313759   7.817   7.164   0.585 -2.4932  0.1754  2.8836
   29MOL   H26413760   8.183   7.039   0.780 -1.5596 -2.5998 -0.3792
   29MOL   H26513761   8.265   7.266   0.784 -0.2179 -0.9272 -0.5735
   29MOL   C26613762   7.829   6.771   0.781  0.1055  0.2142 -0.3283
   29MOL   C26713763   7.791   6.688   0.886 -0.3288 -0.1240 -0.4394
   29MOL   C26813764   7.823   6.727   1.013  0.6584  0.2842 -0.1193
   29MOL   C26913765   7.898   6.839   1.041  0.2465 -0.5835 -0.0373
   29MOL   C27013766   7.938   6.924   0.929  0.6335 -0.5825  0.1118
   29MOL   C27113767   7.915   6.881   0.795  0.2686 -0.3839 -0.3017
   29MOL   S27213768   7.761   6.625   1.147  0.1457 -0.0235 -0.3091
   29MOL   O27313769   7.797   6.685   1.275 -0.4368 -0.3580  0.0218
   29MOL   O27413770   7.809   6.490   1.123  0.2398  0.0701 -0.5914
   29MOL   C27513771   7.581   6.632   1.138 -0.4562 -0.0355  0.0655
   29MOL   C27613772   7.512   6.733   1.071  0.9372  0.1702 -0.4268
   29MOL   C27713773   7.376   6.720   1.048 -0.3101  0.3348  0.3405
   29MOL   C27813774   7.301   6.615   1.102  0.2040 -0.4146  0.2048
   29MOL   C27913775   7.368   6.524   1.175  0.2980  0.0934 -0.2699
   29MOL   C28013776   7.505   6.528   1.193  0.3847  0.1414  0.4145
   29MOL   O28113777   7.167   6.603   1.082 -0.3877  0.1908  0.2224
   29MOL   H28213778   7.798   6.733   0.685 -0.6299 -3.5247  1.2935
   29MOL   H28313779   7.754   6.588   0.868  2.5114 -1.5644  1.4284
   29MOL   H28413780   7.924   6.861   1.143 -2.1627  0.4941  0.3738
   29MOL   H28513781   8.002   7.009   0.946 -1.6666  0.9843  1.0575
   29MOL   H28613782   7.564   6.817   1.028 -0.6845  0.9266 -0.9502
   29MOL   H28713783   7.324   6.797   0.993 -0.3503  0.9944  1.2851
   29MOL   H28813784   7.325   6.438   1.224  0.6791  0.7831  1.3356
   29MOL   H28913785   7.557   6.445   1.238 -1.1502 -1.1500 -0.1293
   29MOL   C29013786   7.169   6.500   0.856 -1.2439  0.6339 -0.2545
   29MOL   C29113787   7.132   6.389   0.782  0.0444 -0.2848 -0.4140
   29MOL   C29213788   7.043   6.288   0.829  0.2112 -0.0835  0.0075
   29MOL   C29313789   6.990   6.304   0.957  0.2778 -0.5942 -0.5007
   29MOL   C29413790   7.029   6.413   1.036  0.6070  0.3327 -0.4056
   29MOL   C29513791   7.124   6.508   0.993  0.2667 -0.0022  0.3373
   29MOL   S29613792   6.996   6.149   0.733 -0.2295  0.1430 -0.2423
   29MOL   O29713793   6.856   6.160   0.685 -0.6524 -0.6178 -0.2548
   29MOL   O29813794   7.039   6.032   0.805  0.0301  0.3663 -0.3640
   29MOL   C29913795   7.103   6.146   0.587  0.0387 -0.0832  0.5783
   29MOL   C30013796   7.046   6.200   0.470 -0.3929  0.0907  0.8038
   29MOL   C30113797   7.122   6.193   0.346 -0.0702  0.2487  0.1524
   29MOL   C30213798   7.248   6.133   0.352  0.4468 -0.4398  0.0602
   29MOL   C30313799   7.303   6.086   0.473  0.1698 -0.3355  0.1517
   29MOL   C30413800   7.228   6.088   0.592  0.2240  0.3065 -0.3927
   29MOL   O30513801   7.334   6.110   0.247  0.5087 -0.3700  0.1971
   29MOL   H30613802   7.238   6.574   0.819 -0.9617  1.1862  1.3254
   29MOL   H30713803   7.167   6.387   0.679 -0.4976 -1.3302 -0.5837
   29MOL   H30813804   6.926   6.236   1.012  0.4417  0.7033  1.3383
   29MOL   H30913805   6.986   6.418   1.135 -0.8071 -0.4588 -0.9718
   29MOL   H31013806   6.948   6.243   0.468 -0.5162 -0.2304 -0.7505
   29MOL   H31113807   7.083   6.243   0.259  1.6427  2.3554  0.5401
   29MOL   H31213808   7.399   6.039   0.463  0.4643  0.2792  0.1214
   29MOL   H31313809   7.267   6.043   0.682  0.8468 -2.7339 -2.1413
   29MOL   C31413810   7.279   6.030   0.030 -0.2698  0.3232 -0.1758
   29MOL   C31513811   7.254   5.919   8.371 -0.6657  0.2204  0.5316
   29MOL   C31613812   7.255   5.791   8.423  0.8424 -0.2134  0.1672
   29MOL   C31713813   7.280   5.767   0.132 -0.3100  0.0637  0.7245
   29MOL   C31813814   7.307   5.874   0.217  0.7323 -0.1072  0.2691
   29MOL   C31913815   7.302   6.006   0.164 -0.4252 -0.4613 -0.3106
   29MOL   S32013816   7.195   5.660   8.311 -0.2239 -0.0617 -0.0926
   29MOL   O32113817   7.319   5.609   8.250 -0.0162 -0.6119 -0.6139
   29MOL   O32213818   7.086   5.713   8.222 -0.3872  0.0980 -0.0672
   29MOL   C32313819   7.122   5.526   8.412  0.0899  0.8311  0.1931
   29MOL   C32413820   7.187   5.399   8.414 -0.0082 -0.2117  0.5427
   29MOL   C32513821   7.134   5.297   0.060  0.7963 -0.0565 -0.2123
   29MOL   C32613822   7.023   5.318   0.148 -0.4574  0.0299 -0.8456
   29MOL   C32713823   6.957   5.441   0.144 -0.5740 -0.3278 -0.4970
   29MOL   C32813824   7.007   5.546   0.064  0.5373  0.4424 -0.3618
   29MOL   O32913825   6.967   5.209   0.216  0.0994 -0.1081 -0.2879
   29MOL   H33013826   7.270   6.128   8.411  0.0004  0.6417  0.4688
   29MOL   H33113827   7.248   5.925   8.264 -1.3646  0.6204  0.5899
   29MOL   H33213828   7.283   5.670   0.179  2.6327 -0.0113  0.4908
   29MOL   H33313829   7.337   5.847   0.317 -2.3694  0.8482  1.5462
   29MOL   H33413830   7.271   5.380   8.348  0.2129 -1.9042  1.2789
   29MOL   H33513831   7.183   5.200   0.058 -0.1462 -0.5423 -0.0721
   29MOL   H33613832   6.863   5.459   0.195 -0.3112 -0.0721 -0.1002
   29MOL   H33713833   6.969   5.646   0.075  0.7401  0.4439  0.2979
   29MOL   C33813834   7.080   5.049   0.356 -0.7815  0.2810 -0.1484
   29MOL   C33913835   7.146   5.014   0.473 -0.1324  0.5932  0.2913
   29MOL   C34013836   7.157   5.113   0.574 -0.2716 -0.6278  0.5449
   29MOL   C34113837   7.093   5.234   0.563  0.1099 -0.3089 -0.1311
   29MOL   C34213838   7.026   5.268   0.443  0.6319  0.5417  0.0767
   29MOL   C34313839   7.026   5.176   0.336  0.2597  0.8677  0.1583
   29MOL   S34413840   7.241   5.084   0.729  0.1377  0.1564  0.0368
   29MOL   O34513841   7.287   5.211   0.786  0.3067 -0.5083 -0.1473
   29MOL   O34613842   7.335   4.974   0.709  0.4403  0.1446  0.1185
   29MOL   C34713843   7.117   5.013   0.837  0.5722  0.1782  0.2211
   29MOL   C34813844   7.069   5.078   0.955 -0.4816 -0.0421  0.0636
   29MOL   C34913845   6.968   5.019   1.033  0.1588  0.1653  0.2411
   29MOL   C35013846   6.929   4.886   1.005  1.3954 -0.1564 -0.3173
   29MOL   C35113847   6.983   4.816   0.896 -0.0033 -0.0039  0.4844
   29MOL   C35213848   7.070   4.885   0.812 -0.1426  0.7079 -0.3894
   29MOL   O35313849   6.821   4.837   1.081  0.1732  0.0461 -0.0423
   29MOL   H35413850   7.075   4.974   0.278  0.8733 -0.0307  0.0447
   29MOL   H35513851   7.194   4.919   0.488 -0.5931  0.1187 -1.1431
   29MOL   H35613852   7.101   5.313   0.636  1.3922 -0.2652 -0.3001
   29MOL   H35713853   6.992   5.369   0.427 -0.0362  0.1274 -1.2154
   29MOL   H35813854   7.121   5.170   0.976 -0.7619 -0.1049  1.0229
   29MOL   H35913855   6.915   5.068   1.113 -1.5255 -1.7301  0.3336
   29MOL   H36013856   6.966   4.711   0.878  3.0693 -0.6665  1.1656
   29MOL   H36113857   7.115   4.832   0.729  0.4059  0.2820  0.1778
   29MOL   C36213858   6.970   4.724   1.229  0.4909  0.2027 -0.0642
   29MOL   C36313859   6.982   4.624   1.326 -0.6039 -0.4625  0.3975
   29MOL   C36413860   6.875   4.542   1.367 -0.7945  0.2924 -0.5226
   29MOL   C36513861   6.747   4.561   1.323  0.0760 -0.0973  0.4402
   29MOL   C36613862   6.733   4.655   1.219  0.4248  0.6254  0.1774
   29MOL   C36713863   6.842   4.734   1.171 -0.4638  0.0848 -0.3916
   29MOL   S36813864   6.900   4.408   1.489  0.0283 -0.0643  0.0158
   29MOL   O36913865   6.990   4.308   1.427 -0.1702  0.1792  0.1147
   29MOL   O37013866   6.771   4.366   1.540 -0.3091 -0.3421  0.4219
   29MOL   C37113867   6.999   4.484   1.619  0.0890 -0.0408 -0.0749
   29MOL   C37213868   7.138   4.460   1.632  0.3318 -0.6180 -0.3015
   29MOL   C37313869   7.208   4.532   1.728  0.4243  0.1971  1.1467
   29MOL   C37413870   7.156   4.631   1.798 -0.4077  0.1041  0.4297
   29MOL   C37513871   7.021   4.661   1.788 -0.1680 -0.7607 -0.6429
   29MOL   C37613872   6.940   4.583   1.699 -0.2396  0.0938  0.3125
   29MOL   O37713873   7.236   4.703   1.884 -0.3507  0.0817 -0.0082
   29MOL   H37813874   7.062   4.771   1.200  0.5527  0.8978  1.2308
   29MOL   H37913875   7.084   4.595   1.342 -0.8169 -2.3073 -1.4453
   29MOL   H38013876   6.658   4.506   1.350  0.6157 -1.2157 -0.0263
   29MOL   H38113877   6.634   4.670   1.179 -0.4153 -2.7059  0.8772
   29MOL   H38213878   7.180   4.391   1.561  0.5945 -1.9787  1.1575
   29MOL   H38313879   7.310   4.502   1.747  0.2795  0.1053  1.7886
   29MOL   H38413880   6.972   4.738   1.845  0.7613  0.6180 -1.6698
   29MOL   H38513881   6.833   4.596   1.695 -0.2574 -0.3288 -0.7169
   29MOL   C38613882   7.237   4.556   2.068 -0.2674  0.4702 -0.0327
   29MOL   C38713883   7.223   4.528   2.206 -0.4286 -0.0914 -0.6753
   29MOL   C38813884   7.182   4.633   2.294 -0.2652 -0.3182  0.5481
   29MOL   C38913885   7.152   4.761   2.236  0.7064 -0.1415 -0.1700
   29MOL   C39013886   7.174   4.790   2.097 -0.2763 -0.1900  0.0794
   29MOL   C39113887   7.214   4.682   2.017 -0.1537  0.0688  0.1709
   29MOL   S39213888   7.174   4.613   2.471  0.1688 -0.2384 -0.2070
   29MOL   O39313889   7.123   4.742   2.514  0.4761 -0.4807  0.1545
   29MOL   O39413890   7.306   4.565   2.510  0.2860 -0.0981 -0.9677
   29MOL   C39513891   7.050   4.492   2.502 -0.3913  0.5684 -0.5235
   29MOL   C39613892   6.920   4.530   2.551  0.2244  0.1560 -0.9489
   29MOL   C39713893   6.830   4.425   2.592  0.5156  0.4700  0.7169
   29MOL   C39813894   6.873   4.293   2.603 -0.5076 -0.1303  0.7708
   29MOL   C39913895   7.006   4.251   2.558  0.0037 -0.8485  0.4044
   29MOL   C40013896   7.087   4.354   2.510 -0.6402 -0.4558 -0.2203
   29MOL   O40113897   6.785   4.204   2.654  0.4059 -0.4021  0.0712
   29MOL   H40213898   7.262   4.471   2.006 -1.0641  0.7784 -0.7914
   29MOL   H40313899   7.243   4.426   2.236  0.1874  0.0154 -0.7109
   29MOL   H40413900   7.118   4.840   2.301  4.7365  1.3149  0.2985
   29MOL   H40513901   7.153   4.888   2.058 -1.0688 -0.7837 -1.0376
   29MOL   H40613902   6.885   4.632   2.559  0.5649  0.4879 -3.2458
   29MOL   H40713903   6.732   4.455   2.625 -0.6004 -0.2096 -1.8658
   29MOL   H40813904   7.048   4.153   2.568 -1.5849 -1.4821  1.0301
   29MOL   H40913905   7.188   4.328   2.482 -0.3356  0.7156 -0.2425
   29MOL   C41013906   6.794   4.186   2.899 -0.2149 -0.7815  0.7060
   29MOL   C41113907   6.847   4.122   3.012  0.0823  1.0248  0.0386
   29MOL   C41213908   6.929   4.005   3.001  0.6222  0.1533 -0.2717
   29MOL   C41313909   6.956   3.952   2.872 -0.1931  0.4347  0.1729
   29MOL   C41413910   6.905   4.025   2.760  0.3657 -0.5457 -0.3111
   29MOL   C41513911   6.830   4.141   2.767  0.0633  0.2485 -0.5371
   29MOL   S41613912   7.005   3.935   3.147 -0.1806 -0.5631 -0.0130
   29MOL   O41713913   6.959   4.008   3.267 -0.8495 -0.1766 -0.0611
   29MOL   O41813914   7.148   3.931   3.110  1.1060  0.1026 -0.3910
   29MOL   C41913915   6.951   3.760   3.160 -0.6474  0.3479 -0.4170
   29MOL   C42013916   7.048   3.657   3.171 -0.5906  0.4635 -0.4265
   29MOL   C42113917   7.012   3.522   3.186  1.0047  0.8505 -0.1633
   29MOL   C42213918   6.874   3.490   3.189  0.2613  0.0661 -0.9582
   29MOL   C42313919   6.778   3.585   3.186  0.4640  0.3226  0.1716
   29MOL   C42413920   6.814   3.722   3.171 -0.4389  0.0069  0.0513
   29MOL   O42513921   6.820   3.367   3.194 -0.0072 -0.1304 -0.1272
   29MOL   H42613922   6.752   4.283   2.917  0.2149 -0.7858  1.7922
   29MOL   H42713923   6.830   4.164   3.110 -1.5969 -0.6765  0.4977
   29MOL   H42813924   7.010   3.860   2.856 -0.8921 -0.1719  1.2699
   29MOL   H42913925   6.916   3.994   2.657  0.5092  0.3800 -0.5728
   29MOL   H43013926   7.150   3.685   3.149 -0.9172  1.8451 -0.2423
   29MOL   H43113927   7.093   3.453   3.207  0.2011  0.0994  0.4759
   29MOL   H43213928   6.673   3.562   3.184  0.3339  0.9179 -1.3537
   29MOL   H43313929   6.733   3.793   3.170  0.0849  0.6051 -1.1863
   29MOL   C43413930   6.891   3.306   3.420  0.0667 -0.3178  0.2767
   29MOL   C43513931   6.976   3.225   3.500 -0.9219 -0.2091 -1.0263
   29MOL   C43613932   7.034   3.108   3.440 -0.3333 -0.5161 -0.0055
   29MOL   C43713933   7.023   3.085   3.304  0.9323  0.2722  0.0264
   29MOL   C43813934   6.943   3.168   3.225  0.2646 -0.1365  0.4775
   29MOL   C43913935   6.890   3.285   3.278 -0.0437 -0.5718 -0.9305
   29MOL   S44013936   7.124   2.999   3.549  0.1521  0.0567  0.2132
   29MOL   O44113937   7.227   3.076   3.617  0.3577 -0.3715 -0.3375
   29MOL   O44213938   7.160   2.874   3.476  0.1294  0.4870 -0.0467
   29MOL   C44313939   7.003   2.949   3.674 -0.4551  0.1155  0.1428
   29MOL   C44413940   7.006   3.006   3.805  0.0888  0.8046 -0.2463
   29MOL   C44513941   6.914   2.954   3.904 -0.7665 -0.4802 -0.3888
   29MOL   C44613942   6.819   2.852   3.872 -0.1705 -0.5273 -0.0534
   29MOL   C44713943   6.819   2.804   3.743  0.0966  0.0055  0.8178
   29MOL   C44813944   6.902   2.851   3.645 -0.6674 -0.2095  0.2318
   29MOL   O44913945   6.731   2.805   3.968  0.0241 -0.2272  0.2437
   29MOL   H45013946   6.849   3.400   3.452 -0.0799  0.1384 -1.2384
   29MOL   H45113947   6.985   3.237   3.607  1.6815 -0.4182 -1.1826
   29MOL   H45213948   7.059   2.996   3.255 -1.0216 -0.0853 -0.7684
   29MOL   H45313949   6.933   3.145   3.119  0.7533  1.1969  0.1283
   29MOL   H45413950   7.087   3.071   3.833  0.1049  1.2932 -1.3789
   29MOL   H45513951   6.915   2.995   4.005 -2.9318 -1.8407  0.2081
   29MOL   H45613952   6.742   2.731   3.724  2.9487 -3.2249  1.1561
   29MOL   H45713953   6.898   2.818   3.542  0.2330 -1.6167  0.6271
   29MOL   C45813954   6.743   2.713   4.192 -0.1329  0.4371  0.0597
   29MOL   C45913955   6.765   2.599   4.277  0.4576  0.2299 -0.1779
   29MOL   C46013956   6.833   2.483   4.225  0.4417  0.2258 -0.1234
   29MOL   C46113957   6.846   2.474   4.082 -0.1694 -0.6397  0.9096
   29MOL   C46213958   6.816   2.586   3.999 -0.1622  0.5583 -0.0575
   29MOL   C46313959   6.757   2.700   4.052  0.4342 -0.2239  0.1716
   29MOL   S46413960   6.860   2.343   4.331  0.4155 -0.0914 -0.3902
   29MOL   O46513961   6.745   2.252   4.320  0.5191 -0.2012  0.4354
   29MOL   O46613962   6.903   2.387   4.465  0.8555 -0.2278  0.1827
   29MOL   C46713963   6.995   2.246   4.263 -0.5982 -0.9304  0.3185
   29MOL   C46813964   6.987   2.137   4.179  0.1953 -0.0448  0.0777
   29MOL   C46913965   7.103   2.069   4.139  0.1185  0.2098  0.4997
   29MOL   C47013966   7.231   2.124   4.165 -0.3624  0.2015  0.0380
   29MOL   C47113967   7.238   2.237   4.247  0.4034  0.0705 -0.3196
   29MOL   C47213968   7.122   2.290   4.310  0.1271  0.1318 -0.4299
   29MOL   O47313969   7.343   2.077   4.113 -0.4938 -0.0925  0.1552
   29MOL   H47413970   6.703   2.804   4.233 -2.3179  0.9498 -3.0619
   29MOL   H47513971   6.735   2.599   4.380 -3.1652  1.2719 -1.1334
   29MOL   H47613972   6.882   2.380   4.043 -0.6730  0.1295 -1.5201
   29MOL   H47713973   6.847   2.580   3.895 -0.2385  1.2890 -0.1300
   29MOL   H47813974   6.890   2.098   4.151 -0.6670  0.7550  1.8745
   29MOL   H47913975   7.088   1.983   4.074 -0.8975  0.5987  0.1981
   29MOL   H48013976   7.333   2.272   4.285 -0.9747 -0.0242  3.4085
   29MOL   H48113977   7.135   2.370   4.381  1.5746  1.1171 -1.7558
   29MOL   H48213978   7.328   2.024   4.036 -1.1577 -0.3780  0.4728
   30MOL     C113979   6.176   4.701   6.722 -0.2522  0.4100  0.5102
   30MOL     C213980   6.138   4.740   6.590 -0.1363 -0.3025 -0.3512
   30MOL     C313981   6.142   4.873   6.541 -0.1465  0.0605  0.1240
   30MOL     C413982   6.172   4.972   6.632  0.4963 -0.9381 -0.3525
   30MOL     C513983   6.211   4.942   6.761  0.4978  0.9766  0.1537
   30MOL     C613984   6.210   4.808   6.809  0.4793 -0.3765  0.1270
   30MOL     S713985   6.107   4.907   6.374 -0.1504 -0.2445  0.2406
   30MOL     O813986   6.145   4.780   6.305 -0.5172 -0.1465 -0.2396
   30MOL     O913987   6.171   5.030   6.332  0.4082  0.3522  0.2136
   30MOL    C1013988   5.927   4.925   6.371 -0.3173  0.0482 -0.5169
   30MOL    C1113989   5.845   4.830   6.306  0.4270 -0.7094  0.0510
   30MOL    C1213990   5.703   4.847   6.310 -0.1763  0.0668  0.1485
   30MOL    C1313991   5.647   4.964   6.377 -0.1331  0.3510 -0.3934
   30MOL    C1413992   5.731   5.048   6.454 -0.6304  0.0865  0.3334
   30MOL    C1513993   5.870   5.027   6.452 -0.0108 -0.0451  0.5631
   30MOL    O1613994   5.516   4.997   6.373  0.1642 -0.8209  0.0598
   30MOL    H1713995   6.185   4.600   6.759  1.7243  0.7420  0.9864
   30MOL    H1813996   6.111   4.668   6.513 -0.1810 -0.4516 -0.1960
   30MOL    H1913997   6.178   5.078   6.611 -1.7100 -0.6238  0.4765
   30MOL    H2013998   6.242   5.026   6.822  0.6074  1.9417 -1.2188
   30MOL    H2113999   5.893   4.755   6.245  1.8436 -1.0847  1.5737
   30MOL    H2214000   5.638   4.782   6.254  0.5232 -1.1940  0.7928
   30MOL    H2314001   5.695   5.129   6.515 -1.2197 -1.5758  2.2601
   30MOL    H2414002   5.934   5.093   6.509  2.0333  0.3138 -2.0772
   30MOL    H2514003   6.241   4.791   6.912  2.1463  2.3329  0.1304
   30MOL    C2614004   5.386   4.809   6.279 -0.0080  0.2286 -0.5243
   30MOL    C2714005   5.294   4.758   6.183  0.4260  0.0551 -0.9072
   30MOL    C2814006   5.254   4.846   6.084 -0.0923 -0.5040  0.5079
   30MOL    C2914007   5.302   4.976   6.077 -0.0901  0.0613 -0.4184
   30MOL    C3014008   5.387   5.028   6.176 -0.3003  0.3059  0.1813
   30MOL    C3114009   5.428   4.944   6.279  0.0646  0.2721 -0.0587
   30MOL    S3214010   5.129   4.785   5.962  0.1248 -0.1577  0.0856
   30MOL    O3314011   5.167   4.647   5.925  0.3064 -0.5037 -0.9605
   30MOL    O3414012   5.107   4.889   5.861 -0.3795 -0.3721  0.1562
   30MOL    C3514013   4.980   4.780   6.057 -0.3110 -0.3973 -0.4944
   30MOL    C3614014   4.914   4.654   6.060  0.1220  0.6134 -0.6589
   30MOL    C3714015   4.800   4.641   6.144 -0.4471 -0.3870 -0.0507
   30MOL    C3814016   4.752   4.749   6.222 -0.5247  0.3908  0.2660
   30MOL    C3914017   4.822   4.875   6.208  0.1003  0.6423  0.6457
   30MOL    C4014018   4.936   4.894   6.127  0.2949 -0.0857  1.2171
   30MOL    O4114019   4.650   4.731   6.314 -0.4046 -0.0163 -0.0643
   30MOL    H4214020   5.434   4.747   6.353 -0.7661  1.5444  1.1063
   30MOL    H4314021   5.252   4.659   6.194  1.6196 -0.2269  1.2483
   30MOL    H4414022   5.263   5.037   5.997 -0.9738 -0.5917 -0.4953
   30MOL    H4514023   5.416   5.131   6.164 -2.3742  0.8561 -0.2797
   30MOL    H4614024   4.945   4.573   5.996  0.9684 -0.1066  0.6268
   30MOL    H4714025   4.755   4.543   6.154  1.5509 -1.2118  1.2082
   30MOL    H4814026   4.787   4.955   6.271 -1.7959  0.5577 -0.2424
   30MOL    H4914027   4.986   4.989   6.120  1.9150 -1.1574 -3.9047
   30MOL    C5014028   4.549   4.876   6.476  0.5905  0.2615  0.1327
   30MOL    C5114029   4.462   4.991   6.510 -0.1203 -0.1453  0.0101
   30MOL    C5214030   4.393   5.060   6.407 -0.2204  0.9534  0.2683
   30MOL    C5314031   4.404   5.014   6.277  0.5508 -0.4998 -0.1679
   30MOL    C5414032   4.489   4.906   6.250 -0.0406 -0.5082 -0.5565
   30MOL    C5514033   4.566   4.838   6.344 -0.2002 -0.3890  0.8781
   30MOL    S5614034   4.278   5.191   6.452 -0.4044  0.1934  0.2156
   30MOL    O5714035   4.167   5.132   6.524  0.4176 -0.2608  0.0684
   30MOL    O5814036   4.255   5.279   6.333 -0.2558  0.1549 -0.3781
   30MOL    C5914037   4.354   5.299   6.569  0.4463 -0.0921 -0.0204
   30MOL    C6014038   4.454   5.384   6.530  0.0873 -0.5920 -0.6524
   30MOL    C6114039   4.529   5.449   6.628 -1.3616  0.3160  0.3139
   30MOL    C6214040   4.501   5.435   6.767 -0.5065 -0.1349 -0.0087
   30MOL    C6314041   4.390   5.359   6.801 -0.4047 -0.6184 -0.2168
   30MOL    C6414042   4.317   5.287   6.705 -0.9346  0.3164 -0.3693
   30MOL    O6514043   4.571   5.508   6.860 -0.0305 -0.5361 -0.3221
   30MOL    H6614044   4.600   4.824   6.555  0.2212 -0.0239  0.1872
   30MOL    H6714045   4.432   5.011   6.612 -0.6705 -0.6622 -0.0462
   30MOL    H6814046   4.343   5.061   6.202 -1.9235  0.4487  2.3365
   30MOL    H6914047   4.491   4.874   6.147  0.9430 -1.6457 -0.1943
   30MOL    H7014048   4.488   5.400   6.429  2.6313  2.4313  0.6196
   30MOL    H7114049   4.603   5.514   6.583 -1.8463  0.2767 -0.5383
   30MOL    H7214050   4.357   5.355   6.904 -0.6890 -1.0579 -0.3263
   30MOL    H7314051   4.242   5.218   6.740  0.2189 -0.7752 -0.0321
   30MOL    C7414052   4.793   5.399   6.845 -0.2598 -0.3843 -0.7262
   30MOL    C7514053   4.928   5.411   6.846  0.7588  0.0204 -0.4712
   30MOL    C7614054   4.996   5.539   6.835  0.1473 -0.1212 -0.4295
   30MOL    C7714055   4.914   5.657   6.843  0.1710  0.5840 -0.0426
   30MOL    C7814056   4.774   5.640   6.849  0.0473  0.4969  0.0822
   30MOL    C7914057   4.708   5.518   6.853 -0.4950  0.4467 -0.2878
   30MOL    S8014058   5.172   5.545   6.811  0.2608  0.4128 -0.1329
   30MOL    O8114059   5.225   5.407   6.788 -0.0455  0.1797 -0.3238
   30MOL    O8214060   5.234   5.631   6.913 -0.2254 -0.1312 -0.4332
   30MOL    C8314061   5.201   5.627   6.657  0.0741  0.2852  0.1110
   30MOL    C8414062   5.119   5.584   6.546  0.0170  0.7746 -0.2285
   30MOL    C8514063   5.119   5.663   6.425  0.2527  0.9920  0.0009
   30MOL    C8614064   5.192   5.783   6.420  0.1478  0.3707  1.0244
   30MOL    C8714065   5.245   5.834   6.536 -0.1103  0.5275  0.1995
   30MOL    C8814066   5.250   5.757   6.655 -0.3256  0.5024 -0.1841
   30MOL    O8914067   5.188   5.857   6.303  0.1489  0.0471  0.2409
   30MOL    H9014068   4.751   5.299   6.845  0.5563 -0.7368 -0.0999
   30MOL    H9114069   4.984   5.319   6.839 -0.8502 -1.2259  2.5326
   30MOL    H9214070   4.962   5.752   6.830  0.9904 -0.0623 -1.9186
   30MOL    H9314071   4.709   5.726   6.852 -0.9519 -0.1422 -2.5845
   30MOL    H9414072   5.054   5.499   6.559 -0.5575  1.3910  1.1133
   30MOL    H9514073   5.054   5.626   6.347  2.9931 -0.6414 -1.5839
   30MOL    H9614074   5.286   5.934   6.536 -1.6331  1.2010  2.8314
   30MOL    H9714075   5.292   5.795   6.747 -0.1221 -1.0904  0.3952
   30MOL    C9814076   5.431   5.857   6.280  0.4234  0.6769  0.3515
   30MOL    C9914077   5.553   5.926   6.256  0.9565  0.8298  0.1937
   30MOL   C10014078   5.547   6.051   6.193  0.2237  0.5928  0.8188
   30MOL   C10114079   5.422   6.104   6.164 -0.1068  0.0953 -0.2271
   30MOL   C10214080   5.302   6.042   6.199  0.3852 -0.3361 -0.4665
   30MOL   C10314081   5.308   5.917   6.259  0.3016  1.3848  0.8343
   30MOL   S10414082   5.704   6.144   6.149  0.0956 -0.5528  0.0123
   30MOL   O10514083   5.806   6.140   6.257 -0.1274  0.1372  0.1690
   30MOL   O10614084   5.663   6.277   6.102 -0.8066  0.4808 -0.0915
   30MOL   C10714085   5.778   6.066   6.009  0.3541  0.6468 -0.4300
   30MOL   C10814086   5.822   5.935   6.017 -0.2605  0.4626 -0.3194
   30MOL   C10914087   5.888   5.868   5.907 -0.0867 -0.2004  0.6057
   30MOL   C11014088   5.887   5.932   5.784 -0.0828  0.2293 -0.0584
   30MOL   C11114089   5.842   6.062   5.773 -0.0402 -1.0797  0.4174
   30MOL   C11214090   5.791   6.131   5.883  0.3800 -0.4184  0.1581
   30MOL   O11314091   5.947   5.863   5.679  0.3181 -0.0489 -0.3498
   30MOL   H11414092   5.435   5.758   6.324 -1.3722 -0.7015 -2.4944
   30MOL   H11514093   5.652   5.886   6.274  0.3639 -1.4911 -1.5354
   30MOL   H11614094   5.425   6.201   6.117  0.2752 -0.5660 -1.6223
   30MOL   H11714095   5.207   6.091   6.191  0.8267  0.7532  0.7636
   30MOL   H11814096   5.842   5.904   6.118  1.8349  0.7017 -0.6194
   30MOL   H11914097   5.920   5.765   5.915  0.7532 -0.0951 -1.1562
   30MOL   H12014098   5.856   6.105   5.675 -0.7782 -1.3920  0.1716
   30MOL   H12114099   5.762   6.235   5.873 -0.2885 -0.6570 -0.4272
   30MOL   C12214100   6.147   5.751   5.634 -0.2232  0.9109 -0.1564
   30MOL   C12314101   6.286   5.734   5.629 -0.5167 -0.0409  0.3408
   30MOL   C12414102   6.369   5.850   5.649 -0.1010 -1.2386  0.3552
   30MOL   C12514103   6.308   5.966   5.692  0.3712 -0.4195  0.5037
   30MOL   C12614104   6.168   5.975   5.700 -0.4495  0.1236 -0.2536
   30MOL   C12714105   6.085   5.868   5.672 -1.1047 -0.4089  0.5142
   30MOL   S12814106   6.540   5.845   5.616 -0.4151  0.3705  0.0926
   30MOL   O12914107   6.603   5.863   5.750 -0.3579  0.5064  0.0104
   30MOL   O13014108   6.568   5.941   5.510 -0.0936 -0.1085 -0.0374
   30MOL   C13114109   6.579   5.688   5.567 -0.0521 -0.0743  0.1122
   30MOL   C13214110   6.593   5.583   5.669  0.1783 -0.2114 -0.7229
   30MOL   C13314111   6.622   5.454   5.626 -0.3194  0.8663  0.5114
   30MOL   C13414112   6.628   5.427   5.484  0.0271 -0.2168 -0.1367
   30MOL   C13514113   6.613   5.528   5.392  0.3254  0.8653  0.1004
   30MOL   C13614114   6.589   5.657   5.434 -0.2367  0.1701 -0.2619
   30MOL   O13714115   6.672   5.302   5.447  0.0059  0.8922  0.0973
   30MOL   H13814116   6.084   5.664   5.624  1.5936 -0.3927 -0.4427
   30MOL   H13914117   6.337   5.644   5.597 -0.1934  0.5985 -0.9375
   30MOL   H14014118   6.367   6.054   5.711 -0.7605  0.5649 -0.4553
   30MOL   H14114119   6.131   6.076   5.712 -2.4219 -0.5334 -0.7171
   30MOL   H14214120   6.579   5.603   5.774  1.5938  2.4424 -1.0194
   30MOL   H14314121   6.628   5.379   5.704 -3.2833  0.9229  0.8852
   30MOL   H14414122   6.637   5.511   5.288  0.0437  0.8529  0.0375
   30MOL   H14514123   6.588   5.726   5.350 -1.7565  0.3868 -0.0800
   30MOL   C14614124   6.598   5.104   5.555 -0.4315  0.4390 -0.1266
   30MOL   C14714125   6.512   4.992   5.557  0.1195 -0.6426 -0.4048
   30MOL   C14814126   6.418   4.977   5.460  0.6022  0.2558 -0.3641
   30MOL   C14914127   6.398   5.073   5.358  0.8896  0.1070  0.4022
   30MOL   C15014128   6.475   5.192   5.356  0.7026 -0.0255 -0.2758
   30MOL   C15114129   6.579   5.201   5.451  1.1140  0.6751  0.3397
   30MOL   S15214130   6.334   4.820   5.449  0.0275 -0.2026  0.3727
   30MOL   O15314131   6.440   4.715   5.450  0.3043  0.3744 -0.3380
   30MOL   O15414132   6.238   4.819   5.344 -0.0393 -0.4306  0.2566
   30MOL   C15514133   6.246   4.801   5.601 -0.8258 -0.8285 -0.7007
   30MOL   C15614134   6.309   4.776   5.722 -0.1599  0.5407 -0.2091
   30MOL   C15714135   6.244   4.757   5.843  0.3918  0.3038 -0.1016
   30MOL   C15814136   6.106   4.741   5.838  0.6440 -0.0032  0.4306
   30MOL   C15914137   6.036   4.757   5.718 -0.3672 -0.1301  0.2835
   30MOL   C16014138   6.107   4.799   5.599 -0.5884  0.4532  0.1501
   30MOL   O16114139   6.032   4.698   5.942 -0.3545  0.0368  0.1805
   30MOL   H16214140   6.670   5.111   5.635 -1.3607  1.6546  0.6135
   30MOL   H16314141   6.556   4.921   5.625 -2.0791 -0.0269  1.7100
   30MOL   H16414142   6.325   5.048   5.282  0.7148 -1.0794  0.9374
   30MOL   H16514143   6.468   5.272   5.284  2.1268  1.4378  1.1653
   30MOL   H16614144   6.416   4.793   5.722  0.0675 -0.7554  1.0042
   30MOL   H16714145   6.291   4.753   5.940 -0.3381 -2.8465  0.1582
   30MOL   H16814146   5.928   4.755   5.717 -0.4295  1.7217  0.4924
   30MOL   H16914147   6.060   4.797   5.502 -0.1486 -0.4121 -0.0429
   30MOL   C17014148   6.102   4.466   5.925  0.1728 -0.4392 -0.5557
   30MOL   C17114149   6.070   4.334   5.932  0.1766 -0.2679  0.8135
   30MOL   C17214150   5.936   4.293   5.961 -0.4163 -0.2815 -0.1384
   30MOL   C17314151   5.837   4.392   5.980 -0.5582  0.0697 -0.4451
   30MOL   C17414152   5.872   4.528   5.972  0.0299 -0.5218  0.3277
   30MOL   C17514153   6.006   4.562   5.946  0.4919 -0.5561 -0.1189
   30MOL   S17614154   5.901   4.117   5.947  0.1010 -0.4318 -0.0490
   30MOL   O17714155   5.800   4.073   6.042 -0.7198  0.8751  0.2818
   30MOL   O17814156   6.025   4.038   5.938  0.2320 -0.0338 -1.1321
   30MOL   C17914157   5.824   4.110   5.784 -0.3458  0.1607  0.5268
   30MOL   C18014158   5.912   4.090   5.675 -0.7845 -0.0697 -0.0326
   30MOL   C18114159   5.861   4.073   5.543 -0.0602 -0.0726 -0.5351
   30MOL   C18214160   5.726   4.099   5.519  0.4498 -0.4883  0.5493
   30MOL   C18314161   5.646   4.135   5.624 -0.2462  0.2365  0.0321
   30MOL   C18414162   5.690   4.142   5.756  0.6738  0.5735  0.2181
   30MOL   O18514163   5.679   4.107   5.386  0.0474  0.4485 -0.4770
   30MOL   H18614164   6.206   4.488   5.903 -0.1002  3.1142  1.3327
   30MOL   H18714165   6.141   4.257   5.906  1.1711  0.9051 -0.0311
   30MOL   H18814166   5.734   4.363   5.997 -1.3219  3.1132  0.3457
   30MOL   H18914167   5.801   4.609   5.974  1.4524  0.7750 -0.5537
   30MOL   H19014168   6.019   4.085   5.690 -0.7283  2.5174  0.6243
   30MOL   H19114169   5.930   4.035   5.470  0.2317 -0.0645 -0.2641
   30MOL   H19214170   5.545   4.162   5.598 -0.7969  1.7121  3.3989
   30MOL   H19314171   5.618   4.173   5.831  1.2989  1.5520  0.4131
   30MOL   C19414172   5.465   4.102   5.275 -0.1278  0.4653 -0.2624
   30MOL   C19514173   5.362   4.034   5.205 -0.3619  0.5325  0.4325
   30MOL   C19614174   5.379   3.897   5.180 -0.6383  0.2377 -0.4700
   30MOL   C19714175   5.473   3.826   5.252  0.3725 -0.0232  0.3542
   30MOL   C19814176   5.572   3.893   5.332 -0.0453  0.0965  0.2198
   30MOL   C19914177   5.570   4.035   5.341  0.1021 -0.5222  0.6089
   30MOL   S20014178   5.274   3.801   5.059 -0.3598  0.8463  0.0482
   30MOL   O20114179   5.212   3.683   5.120 -0.6546 -0.1216 -0.3020
   30MOL   O20214180   5.348   3.780   4.932 -0.7109  0.2282 -0.5670
   30MOL   C20314181   5.145   3.916   5.014 -0.3375 -1.1178 -0.3194
   30MOL   C20414182   5.137   3.959   4.881  0.0077 -0.5070  0.5663
   30MOL   C20514183   5.044   4.061   4.851  0.3341 -0.8335 -0.0849
   30MOL   C20614184   4.958   4.110   4.954  0.7501 -0.7375 -0.4020
   30MOL   C20714185   4.963   4.059   5.079 -0.3513 -0.2277  0.2004
   30MOL   C20814186   5.057   3.962   5.113  0.3606 -0.1086 -0.2149
   30MOL   O20914187   4.870   4.212   4.914  0.4012  0.6903 -0.0903
   30MOL   H21014188   5.471   4.210   5.279  0.9841  0.4429 -0.8845
   30MOL   H21114189   5.291   4.087   5.142 -0.0333  1.8702  1.1804
   30MOL   H21214190   5.495   3.724   5.226 -3.6728 -1.2197  1.1784
   30MOL   H21314191   5.656   3.843   5.376 -1.2355 -2.4180 -0.3015
   30MOL   H21414192   5.200   3.918   4.803 -0.0566  0.0572  0.2096
   30MOL   H21514193   5.040   4.105   4.752  0.8224  1.6347  0.9445
   30MOL   H21614194   4.890   4.091   5.152  0.0309 -0.5473  0.7200
   30MOL   H21714195   5.068   3.919   5.211  2.5341 -0.6859 -0.6715
   30MOL   C21814196   4.758   4.392   5.033  0.3519 -0.6657 -0.5345
   30MOL   C21914197   4.759   4.508   5.117 -0.4040  0.6089  0.7046
   30MOL   C22014198   4.884   4.563   5.148  0.3336  0.2206  0.2703
   30MOL   C22114199   4.999   4.502   5.099 -0.0396  0.4586  0.7541
   30MOL   C22214200   5.003   4.391   5.017 -0.4966  0.2182 -0.4382
   30MOL   C22314201   4.878   4.331   4.986 -0.1740  0.1838 -0.5067
   30MOL   S22414202   4.903   4.706   5.259 -0.1846  0.2859  0.0938
   30MOL   O22514203   4.783   4.794   5.256  0.0372  0.4059 -0.4354
   30MOL   O22614204   5.036   4.768   5.237 -0.0726  0.2133 -0.0777
   30MOL   C22714205   4.902   4.623   5.412 -0.8925  0.5114  0.0037
   30MOL   C22814206   4.837   4.497   5.433 -0.3718  0.6508  0.2831
   30MOL   C22914207   4.836   4.432   5.555  0.4671 -0.5980 -0.0691
   30MOL   C23014208   4.914   4.486   5.663  0.1205  0.2174 -0.6736
   30MOL   C23114209   4.978   4.612   5.640  0.3661  0.7970  0.5846
   30MOL   C23214210   4.976   4.679   5.520 -0.5524  0.5710  0.2706
   30MOL   O23314211   4.941   4.420   5.775 -0.3803 -0.3729  0.4552
   30MOL   H23414212   4.656   4.359   5.018 -0.4579  0.5290  2.1244
   30MOL   H23514213   4.670   4.550   5.160 -0.0216  2.5382 -0.3321
   30MOL   H23614214   5.084   4.566   5.115  0.7124 -0.7885  1.8268
   30MOL   H23714215   5.103   4.362   4.990 -0.6376 -1.4500  0.7664
   30MOL   H23814216   4.781   4.456   5.351  0.8707 -1.3426  0.4021
   30MOL   H23914217   4.789   4.336   5.564 -1.0477  0.0832 -0.5664
   30MOL   H24014218   5.044   4.659   5.711  2.3785 -0.7402 -0.2285
   30MOL   H24114219   5.031   4.768   5.498  1.9971 -1.4296 -1.7280
   30MOL   C24214220   4.876   4.241   5.922  0.0070  0.4173 -0.3186
   30MOL   C24314221   4.790   4.191   6.025 -0.1432 -0.3258 -0.3261
   30MOL   C24414222   4.667   4.255   6.047  0.7182  0.3221  0.1567
   30MOL   C24514223   4.637   4.372   5.983 -0.0971 -0.5665  0.4050
   30MOL   C24614224   4.727   4.424   5.888 -0.4522  0.5300  0.0732
   30MOL   C24714225   4.843   4.358   5.855 -0.2229  0.3868  0.2791
   30MOL   S24814226   4.556   4.188   6.168 -0.5862 -0.0995  0.1490
   30MOL   O24914227   4.612   4.051   6.180  0.2599 -0.3065 -0.0961
   30MOL   O25014228   4.420   4.204   6.121 -0.0482 -0.4298  0.1136
   30MOL   C25114229   4.576   4.265   6.333  0.0420  0.7270  0.4381
   30MOL   C25214230   4.483   4.225   6.430 -0.4514 -0.6285  0.4636
   30MOL   C25314231   4.490   4.279   6.561 -0.2361 -0.2031 -0.0784
   30MOL   C25414232   4.602   4.361   6.594  0.5545  0.0159  0.4456
   30MOL   C25514233   4.703   4.386   6.495  1.3604 -0.5289  0.5065
   30MOL   C25614234   4.690   4.339   6.364  0.1484 -0.1208 -0.4210
   30MOL   O25714235   4.621   4.419   6.713  0.0674  0.3517  0.2913
   30MOL   H25814236   4.966   4.184   5.907  0.4550  0.8362  0.6953
   30MOL   H25914237   4.823   4.101   6.074  0.6724 -1.4371 -2.8394
   30MOL   H26014238   4.553   4.428   6.021  1.8485  2.3692  0.4752
   30MOL   H26114239   4.726   4.526   5.852  3.3814 -0.1200 -2.2063
   30MOL   H26214240   4.403   4.157   6.408 -0.2308 -1.8511  3.2085
   30MOL   H26314241   4.413   4.244   6.628  0.5991 -2.0270 -0.0154
   30MOL   H26414242   4.792   4.435   6.531  1.5036 -2.4418  2.8792
   30MOL   H26514243   4.773   4.351   6.297 -2.0867  1.5858 -2.9789
   30MOL   C26614244   4.590   4.255   6.881  0.6723 -0.0416 -0.0917
   30MOL   C26714245   4.644   4.180   6.988  0.2216  0.0803  0.0424
   30MOL   C26814246   4.776   4.189   7.031  0.4449 -0.0765  0.2646
   30MOL   C26914247   4.858   4.277   6.961 -0.3529 -0.0203  0.7150
   30MOL   C27014248   4.810   4.349   6.850 -0.1736 -0.0626 -0.0502
   30MOL   C27114249   4.674   4.341   6.811 -0.0622  0.4797 -0.4560
   30MOL   S27214250   4.845   4.084   7.161  0.0505 -0.0469  0.0161
   30MOL   O27314251   4.983   4.116   7.194  0.1306 -0.5030  0.3853
   30MOL   O27414252   4.820   3.944   7.122 -0.2695  1.1235  0.4184
   30MOL   C27514253   4.739   4.116   7.302  0.1508  0.4429  0.4011
   30MOL   C27614254   4.756   4.241   7.363 -0.5383 -0.4123  0.7535
   30MOL   C27714255   4.680   4.276   7.469  0.0907 -0.1217 -0.0601
   30MOL   C27814256   4.588   4.181   7.524  0.2076 -0.1714  0.2987
   30MOL   C27914257   4.579   4.051   7.466 -0.1261  0.8103 -0.2725
   30MOL   C28014258   4.655   4.021   7.352  0.1461 -0.5696 -0.5194
   30MOL   O28114259   4.512   4.209   7.638 -0.4944 -0.2703  0.3838
   30MOL   H28214260   4.486   4.246   6.851  0.4742  2.1009 -0.1781
   30MOL   H28314261   4.582   4.111   7.044 -2.2680  1.3644 -1.0597
   30MOL   H28414262   4.957   4.309   6.989 -0.7900  1.8033  0.2108
   30MOL   H28514263   4.879   4.420   6.806 -0.2912  0.4483  0.5865
   30MOL   H28614264   4.827   4.310   7.320  0.2418 -1.6182  0.0624
   30MOL   H28714265   4.683   4.376   7.511 -0.1414  0.6227 -1.7642
   30MOL   H28814266   4.515   3.971   7.500 -1.6058  1.8175 -0.6256
   30MOL   H28914267   4.638   3.922   7.311 -2.5009 -0.6934  0.7572
   30MOL   C29014268   4.709   4.252   7.780  0.5124  0.1587 -0.8144
   30MOL   C29114269   4.762   4.258   7.913 -0.2452 -0.4509  0.6885
   30MOL   C29214270   4.675   4.244   8.025 -0.4638  0.3596  0.3186
   30MOL   C29314271   4.544   4.207   8.002 -0.4824  0.4805 -0.8730
   30MOL   C29414272   4.494   4.180   7.870 -0.6832  0.5171 -0.0186
   30MOL   C29514273   4.571   4.216   7.759 -0.1087 -0.5188 -0.0168
   30MOL   S29614274   4.760   4.273   8.187 -0.0317 -0.8316  0.0911
   30MOL   O29714275   4.825   4.406   8.187 -0.3500 -0.1780  0.3919
   30MOL   O29814276   4.834   4.155   8.230  0.4272  0.4251  0.3122
   30MOL   C29914277   4.620   4.289   8.299 -0.8335  0.7153 -0.8546
   30MOL   C30014278   4.517   4.383   8.275 -0.3674  0.2208 -0.4167
   30MOL   C30114279   4.419   4.406   8.371  0.2199  0.2643 -0.2400
   30MOL   C30214280   4.417   4.337   0.067  0.8941 -0.6950  0.1995
   30MOL   C30314281   4.529   4.241   0.092  0.7612  0.4591 -0.2645
   30MOL   C30414282   4.628   4.218   8.422  0.5036 -0.7158 -1.5539
   30MOL   O30514283   4.316   4.364   0.163 -0.2722  0.0993 -0.0036
   30MOL   H30614284   4.774   4.278   7.699  1.2002  0.7921 -0.0686
   30MOL   H30714285   4.860   4.303   7.920 -0.0024 -0.0641 -3.8074
   30MOL   H30814286   4.488   4.190   8.092 -0.0466 -0.0267 -0.6945
   30MOL   H30914287   4.389   4.161   7.857 -0.3375 -1.2214 -0.4253
   30MOL   H31014288   4.515   4.437   8.182  0.9712  0.4760 -0.2972
   30MOL   H31114289   4.338   4.471   8.343 -0.0049  0.4724  0.8543
   30MOL   H31214290   4.551   4.212   0.194  2.1607  0.7253 -0.4814
   30MOL   H31314291   4.706   4.147   0.019  1.9703  0.8821 -1.4735
   30MOL   C31414292   4.259   4.215   0.341 -0.3342 -0.1270 -0.4267
   30MOL   C31514293   4.159   4.112   0.379  0.2617  1.0082 -0.3212
   30MOL   C31614294   4.044   4.079   0.302 -0.3496  0.0226  0.3528
   30MOL   C31714295   4.027   4.142   0.181 -0.4037  0.5699 -0.1374
   30MOL   C31814296   4.124   4.228   0.133 -0.0245 -0.1820 -0.4079
   30MOL   C31914297   4.237   4.264   0.207  0.4194  0.6155  0.4743
   30MOL   S32014298   3.913   3.982   0.368 -0.0556  0.0423  0.2362
   30MOL   O32114299   3.793   3.993   0.281 -0.1139 -0.9243  0.7534
   30MOL   O32214300   3.893   4.004   0.511 -0.2726 -0.2719  0.0908
   30MOL   C32314301   3.975   3.819   0.340 -0.5529 -0.0900  0.0213
   30MOL   C32414302   4.009   3.775   0.210 -0.9683  0.1395  0.1957
   30MOL   C32514303   4.069   3.648   0.199  0.0853  0.2277  1.1116
   30MOL   C32614304   4.099   3.569   0.309 -0.0239 -0.2962 -0.0004
   30MOL   C32714305   4.067   3.614   0.440 -0.2372  0.2820 -0.0255
   30MOL   C32814306   4.007   3.741   0.455  0.2047  0.8201  0.5573
   30MOL   O32914307   4.147   3.450   0.283  0.4472 -0.5322 -0.1010
   30MOL   H33014308   4.324   4.261   0.414 -2.1185  1.8207 -0.0111
   30MOL   H33114309   4.169   4.057   0.471  1.6259  1.4563 -0.1829
   30MOL   H33214310   3.938   4.134   0.121 -0.0044 -0.0463 -0.6491
   30MOL   H33314311   4.109   4.288   0.045 -1.5562  0.7538  0.4678
   30MOL   H33414312   3.980   3.825   0.119 -2.8407 -1.3020 -0.0192
   30MOL   H33514313   4.084   3.603   0.102  0.7681 -0.2322  1.4241
   30MOL   H33614314   4.080   3.551   0.527 -1.0820  0.1143 -0.0118
   30MOL   H33714315   3.965   3.764   0.552 -1.2475  1.4021 -0.1948
   30MOL   C33814316   3.923   3.351   0.296  0.9584  0.1387  0.3817
   30MOL   C33914317   3.838   3.245   0.269  0.0997  0.0910  0.5162
   30MOL   C34014318   3.881   3.142   0.183 -0.0174 -0.2449  0.1757
   30MOL   C34114319   4.010   3.147   0.129  0.9883 -0.7090 -0.2407
   30MOL   C34214320   4.095   3.255   0.168  0.4759  0.0212  0.0339
   30MOL   C34314321   4.057   3.352   0.251 -0.2009 -0.6425 -0.0372
   30MOL   S34414322   3.769   3.008   0.152 -0.0648 -0.1080  0.0583
   30MOL   O34514323   3.700   3.036   0.023  0.0477  0.3426 -0.0856
   30MOL   O34614324   3.680   2.995   0.267  0.5604 -0.1622 -0.3321
   30MOL   C34714325   3.864   2.869   0.140 -0.8392  0.2620 -0.3228
   30MOL   C34814326   3.887   2.816   0.012 -0.3679  0.5683  0.5462
   30MOL   C34914327   3.976   2.705   8.423  0.2302  0.3188  0.0781
   30MOL   C35014328   4.038   2.647   0.111  0.8113 -0.0762  0.1275
   30MOL   C35114329   4.018   2.700   0.238  0.0476  0.1802 -0.4198
   30MOL   C35214330   3.941   2.821   0.251  0.4106 -0.0199  0.1609
   30MOL   O35314331   4.117   2.532   0.112  0.0336 -0.0168 -0.3140
   30MOL   H35414332   3.898   3.426   0.369  0.0431 -1.0528  1.3126
   30MOL   H35514333   3.741   3.242   0.316 -0.8088 -1.6833 -1.4064
   30MOL   H35614334   4.030   3.080   0.047  2.3123 -1.7377  0.9127
   30MOL   H35714335   4.193   3.260   0.122 -0.7851  1.1250 -2.5798
   30MOL   H35814336   3.839   2.860   8.351  1.9353  0.2960 -0.9202
   30MOL   H35914337   4.011   2.675   8.325  1.0728 -0.5453  0.6386
   30MOL   H36014338   4.061   2.654   0.325 -1.0907  0.2123  0.1668
   30MOL   H36114339   3.933   2.866   0.348  0.5372 -0.8513  0.5666
   30MOL   C36214340   4.034   2.373   8.385  0.2362  0.4102  0.6601
   30MOL   C36314341   3.997   2.242   8.353  0.0913 -0.2699 -0.1798
   30MOL   C36414342   3.972   2.154   0.042  0.0677  0.2761  0.2700
   30MOL   C36514343   3.988   2.202   0.177  0.7189 -0.3902 -0.6222
   30MOL   C36614344   4.025   2.330   0.202  0.6711  0.2913  0.0952
   30MOL   C36714345   4.055   2.411   0.090 -1.1852  0.1823  0.1487
   30MOL   S36814346   3.939   1.980   0.031 -0.2080  0.2065 -0.0715
   30MOL   O36914347   3.810   1.963   8.387  0.3138 -0.4751  0.5940
   30MOL   O37014348   3.946   1.919   0.166  0.7161 -0.3518  0.1833
   30MOL   C37114349   4.076   1.918   8.355  0.1410  0.2882 -0.6974
   30MOL   C37214350   4.198   1.872   8.415  0.5322 -0.4030  0.2951
   30MOL   C37314351   4.310   1.835   8.338 -0.7247  0.1823  0.6864
   30MOL   C37414352   4.304   1.841   8.195  0.2769  0.2098  0.4034
   30MOL   C37514353   4.182   1.888   8.141  0.4882  0.5094  0.0205
   30MOL   C37614354   4.069   1.914   8.219  0.5909  0.4694  0.1703
   30MOL   O37714355   4.399   1.789   8.111 -0.0387 -0.1895  0.2282
   30MOL   H37814356   4.058   2.444   8.307 -0.6394 -0.6894 -0.6464
   30MOL   H37914357   3.998   2.201   8.253 -2.0106 -0.9352  0.0445
   30MOL   H38014358   3.980   2.144   0.268 -1.0110  0.5739 -0.1282
   30MOL   H38114359   4.051   2.367   0.301  1.4565  0.7185 -0.2607
   30MOL   H38214360   4.200   1.875   0.098 -1.2943  0.4208  0.3256
   30MOL   H38314361   4.395   1.791   8.388  1.2012  2.1901 -0.7774
   30MOL   H38414362   4.177   1.905   8.034 -0.0936  0.2246  0.0041
   30MOL   H38514363   3.971   1.935   8.177  0.5502  1.2565  0.6411
   30MOL   C38614364   4.599   1.668   8.155  0.7977 -0.0145  0.4371
   30MOL   C38714365   4.670   1.548   8.180  0.1571 -0.9792 -0.1702
   30MOL   C38814366   4.594   1.430   8.206  0.1979 -0.7156 -0.4491
   30MOL   C38914367   4.451   1.434   8.189 -1.1754  0.0393 -0.7900
   30MOL   C39014368   4.386   1.552   8.157  0.0743 -0.2764  0.0842
   30MOL   C39114369   4.459   1.667   8.136  0.6149  0.0897 -0.7747
   30MOL   S39214370   4.680   1.282   8.252 -0.4382  0.3646 -0.4052
   30MOL   O39314371   4.741   1.305   8.384  0.2561  0.4709 -0.3456
   30MOL   O39414372   4.765   1.236   8.137  0.8531 -0.5485  0.7182
   30MOL   C39514373   4.554   1.153   8.268 -0.9846 -0.5732  0.1038
   30MOL   C39614374   4.508   1.112   8.392  0.3160  0.2694  0.5450
   30MOL   C39714375   4.402   1.018   8.394 -0.3687 -0.3565 -0.1369
   30MOL   C39814376   4.350   0.968   8.275 -0.2349  0.7171  0.8923
   30MOL   C39914377   4.396   1.006   8.146 -0.0070  0.1950  0.4828
   30MOL   C40014378   4.496   1.108   8.152 -0.4604  0.2555 -0.2412
   30MOL   O40114379   4.246   0.877   8.278  0.1306 -0.0355 -1.0516
   30MOL   H40214380   4.661   1.751   8.123  0.2548  0.0019 -0.6138
   30MOL   H40314381   4.778   1.547   8.185  0.2587  0.6893 -1.6864
   30MOL   H40414382   4.389   1.352   8.221  0.2850  0.3699  3.1678
   30MOL   H40514383   4.280   1.558   8.140  0.2190  0.3948 -0.6067
   30MOL   H40614384   4.547   1.150   0.060 -2.6042  3.1220  0.6973
   30MOL   H40714385   4.362   0.992   0.066  0.3264  0.8959  0.4995
   30MOL   H40814386   4.358   0.971   8.051  0.5760  1.4087 -0.2084
   30MOL   H40914387   4.519   1.155   8.057  1.1536 -0.8047 -0.4049
   30MOL   C41014388   4.110   0.778   0.023 -0.6003  0.2633  0.5084
   30MOL   C41114389   4.012   0.794   0.123  0.0967  0.0879  0.4548
   30MOL   C41214390   3.958   0.922   0.154 -0.7078  0.1252 -0.7107
   30MOL   C41314391   3.997   1.029   0.077  0.4696 -0.4015 -0.3084
   30MOL   C41414392   4.082   1.012   8.395  0.2947  0.4984  0.6310
   30MOL   C41514393   4.149   0.891   8.375  0.1852  0.4936  0.1278
   30MOL   S41614394   3.845   0.946   0.284 -0.1750 -0.0956 -0.4999
   30MOL   O41714395   3.814   0.813   0.335  0.5759  0.1583 -0.8225
   30MOL   O41814396   3.737   1.029   0.227 -0.1794  0.1049 -0.3436
   30MOL   C41914397   3.918   1.046   0.417  0.1918  0.1777  0.6279
   30MOL   C42014398   4.042   1.115   0.395 -0.0289  0.1067 -0.2165
   30MOL   C42114399   4.093   1.189   0.504 -0.1505  0.1615  0.3082
   30MOL   C42214400   4.031   1.191   0.628  0.7319 -0.4544 -0.2500
   30MOL   C42314401   3.911   1.115   0.647 -0.3222 -0.0021 -0.3563
   30MOL   C42414402   3.856   1.051   0.539 -0.7042  0.2766  0.2910
   30MOL   O42514403   4.092   1.267   0.726 -0.6796 -0.2632  0.4345
   30MOL   H42614404   4.145   0.678   0.006  1.0298  1.2851 -2.4171
   30MOL   H42714405   3.990   0.708   0.184 -1.0493 -0.9290 -1.3286
   30MOL   H42814406   3.948   1.124   0.097 -0.9413 -1.1444 -0.1569
   30MOL   H42914407   4.098   1.097   8.331 -1.8131  0.0380 -0.5539
   30MOL   H43014408   4.101   1.110   0.305  2.5446  0.6696  1.3856
   30MOL   H43114409   4.186   1.243   0.493 -0.3826  0.4489 -0.2502
   30MOL   H43214410   3.858   1.109   0.741 -0.7399 -1.7521 -0.6869
   30MOL   H43314411   3.767   0.990   0.545 -0.4319 -0.0372  1.2945
   30MOL   C43414412   4.124   1.108   0.911  0.2154 -0.7419  0.1423
   30MOL   C43514413   4.210   1.037   0.993 -0.6085  0.1815 -0.1083
   30MOL   C43614414   4.336   1.087   1.015 -0.8699 -0.7496  0.7171
   30MOL   C43714415   4.394   1.190   0.936 -0.0553  0.5667 -0.3336
   30MOL   C43814416   4.307   1.239   0.838 -0.1792 -0.4784  0.9524
   30MOL   C43914417   4.171   1.199   0.819  0.0456  0.2229  0.2911
   30MOL   S44014418   4.441   1.003   1.129 -0.4963  0.0418 -0.0642
   30MOL   O44114419   4.580   1.021   1.093 -0.1934 -0.5480 -0.2691
   30MOL   O44214420   4.392   0.864   1.140  0.1720  0.2785 -0.2102
   30MOL   C44314421   4.413   1.071   1.295  0.2923  0.5244 -0.3499
   30MOL   C44414422   4.512   1.123   1.370  0.2140  0.4391 -0.3975
   30MOL   C44514423   4.486   1.174   1.500  0.8752 -0.0537  0.7298
   30MOL   C44614424   4.354   1.169   1.552  0.1362  0.5984 -0.2873
   30MOL   C44714425   4.255   1.112   1.473  0.6329 -0.4611 -0.3349
   30MOL   C44814426   4.285   1.062   1.347 -0.4843 -0.3842 -0.7837
   30MOL   O44914427   4.333   1.190   1.687 -0.2763  0.2811  0.0642
   30MOL   H45014428   4.021   1.076   0.899  0.2801 -1.3752  1.2399
   30MOL   H45114429   4.172   0.965   1.064 -2.2515  1.0545 -0.0818
   30MOL   H45214430   4.500   1.210   0.934  0.2807 -1.0786  0.3005
   30MOL   H45314431   4.339   1.322   0.777 -0.4756 -0.9331  0.1665
   30MOL   H45414432   4.618   1.127   1.347 -0.1387  0.6270 -2.0877
   30MOL   H45514433   4.568   1.186   1.569  2.0584 -0.2841 -0.6157
   30MOL   H45614434   4.154   1.094   1.507 -1.1391  1.7662 -4.1490
   30MOL   H45714435   4.209   1.010   1.290  0.8471 -2.0954 -1.0520
   30MOL   C45814436   4.192   1.039   1.810 -0.7080  0.0917 -0.2036
   30MOL   C45914437   4.191   0.941   1.908 -0.0704  0.8082 -0.4577
   30MOL   C46014438   4.309   0.877   1.943  0.4094  0.0616  0.0782
   30MOL   C46114439   4.433   0.908   1.893 -0.0757 -0.1771  0.2763
   30MOL   C46214440   4.432   1.014   1.805  0.5278  0.1180 -0.5285
   30MOL   C46314441   4.317   1.083   1.761  0.0816  0.2656 -0.2822
   30MOL   S46414442   4.291   0.737   2.061 -0.6384 -0.1144 -0.1791
   30MOL   O46514443   4.416   0.663   2.036  0.4835 -0.1487 -0.4113
   30MOL   O46614444   4.161   0.679   2.030  0.3181 -0.2820 -0.3163
   30MOL   C46714445   4.299   0.809   2.221 -0.3303 -0.6840 -0.2059
   30MOL   C46814446   4.423   0.834   2.280 -0.5109 -0.4565 -0.0139
   30MOL   C46914447   4.429   0.892   2.407 -0.5198 -0.4809 -0.6292
   30MOL   C47014448   4.314   0.919   2.474 -0.1942  0.0757 -0.0287
   30MOL   C47114449   4.191   0.896   2.418 -0.1055  0.2497  0.0197
   30MOL   C47214450   4.179   0.833   2.293  0.0236 -0.6845 -0.1230
   30MOL   O47314451   4.321   0.974   2.598 -0.1391 -0.2494 -0.6602
   30MOL   H47414452   4.097   1.083   1.784 -0.1891  0.7393 -1.0278
   30MOL   H47514453   4.099   0.918   1.959  0.7213  1.1073  1.1253
   30MOL   H47614454   4.518   0.844   1.911  1.2580  0.5941 -3.0043
   30MOL   H47714455   4.524   1.052   1.762  2.3397 -1.7018  1.6609
   30MOL   H47814456   4.517   0.808   2.235  1.0465  3.1466  1.0348
   30MOL   H47914457   4.529   0.906   2.446  0.7097 -0.2439 -3.6543
   30MOL   H48014458   4.100   0.925   2.469 -0.0975  0.4222 -0.0652
   30MOL   H48114459   4.082   0.812   2.251 -1.3919  0.6997  2.3366
   30MOL   H48214460   4.396   1.027   2.619 -1.2319  0.5306  1.3135
   31MOL     C114461   7.064   2.712   1.683  0.6369 -0.1744  0.1880
   31MOL     C214462   7.120   2.610   1.602 -0.0403  0.3070  0.3808
   31MOL     C314463   7.233   2.636   1.521  0.3544  0.2487  0.5625
   31MOL     C414464   7.266   2.773   1.497 -0.3072 -0.8531 -0.0659
   31MOL     C514465   7.220   2.874   1.586 -0.0961  0.6444 -0.0272
   31MOL     C614466   7.117   2.846   1.678  0.6684  0.0605 -0.0419
   31MOL     S714467   7.304   2.504   1.423 -0.2497 -0.2653 -0.0350
   31MOL     O814468   7.286   2.367   1.476 -0.1989  0.0474  0.8845
   31MOL     O914469   7.440   2.548   1.388  0.2680  0.4582 -0.0208
   31MOL    C1014470   7.203   2.505   1.277 -0.6882 -0.1442 -0.3344
   31MOL    C1114471   7.119   2.396   1.243 -0.2895  0.2907  0.2356
   31MOL    C1214472   7.039   2.401   1.128 -0.6227  0.7763 -0.1527
   31MOL    C1314473   7.037   2.512   1.045  0.6480  0.1006  0.5217
   31MOL    C1414474   7.125   2.621   1.071 -0.2194  0.5601  0.6697
   31MOL    C1514475   7.209   2.615   1.188  0.2869 -0.8806 -0.1352
   31MOL    O1614476   6.947   2.517   0.943 -0.2602 -0.2876 -0.3371
   31MOL    H1714477   6.979   2.681   1.741  0.0320 -0.8621 -1.0385
   31MOL    H1814478   7.100   2.505   1.606  0.5767  0.0908 -1.4338
   31MOL    H1914479   7.346   2.781   1.425  0.7051 -0.5178  1.0819
   31MOL    H2014480   7.244   2.978   1.569  0.0319  0.5625 -0.3529
   31MOL    H2114481   7.115   2.310   1.308 -0.7348  0.8505  0.9585
   31MOL    H2214482   6.983   2.315   1.095  0.6542 -0.4117  0.6888
   31MOL    H2314483   7.122   2.712   1.014  1.5191 -0.1991 -0.6684
   31MOL    H2414484   7.264   2.701   1.222 -0.8120 -0.4543  0.5757
   31MOL    H2514485   7.059   2.912   1.740 -1.0422 -1.8386  0.4610
   31MOL    C2614486   6.735   2.488   1.045 -0.0507  0.5824  0.1160
   31MOL    C2714487   6.607   2.540   1.077 -0.0291 -0.4329  0.6042
   31MOL    C2814488   6.565   2.663   1.024  0.2674 -0.5363 -0.0201
   31MOL    C2914489   6.654   2.731   0.935  0.7022 -0.1418 -0.2368
   31MOL    C3014490   6.783   2.675   0.908  0.3717 -1.0883  0.8939
   31MOL    C3114491   6.820   2.555   0.965 -0.0637  0.3802  0.8115
   31MOL    S3214492   6.404   2.711   1.066 -0.0140 -0.4348 -0.0821
   31MOL    O3314493   6.391   2.845   1.002  0.2689  0.5334  0.3377
   31MOL    O3414494   6.391   2.704   1.214 -0.1981 -0.3598 -0.0464
   31MOL    C3514495   6.296   2.583   0.990 -0.6990  0.1040  0.0554
   31MOL    C3614496   6.185   2.536   1.069  0.0329  0.3158 -0.4310
   31MOL    C3714497   6.098   2.435   1.017 -0.7859 -0.3657 -0.6218
   31MOL    C3814498   6.119   2.384   0.886 -0.4833 -0.3756 -0.2627
   31MOL    C3914499   6.226   2.440   0.806 -0.0196  0.8506  0.4049
   31MOL    C4014500   6.323   2.528   0.864 -0.7693  0.5120  0.8102
   31MOL    O4114501   6.041   2.283   0.840  0.1779  0.4903 -0.5847
   31MOL    H4214502   6.765   2.391   1.083 -1.9339 -0.0063  0.1832
   31MOL    H4314503   6.550   2.481   1.148 -0.2860 -0.4824  0.3602
   31MOL    H4414504   6.639   2.829   0.892  3.5456  0.7094  0.5598
   31MOL    H4514505   6.848   2.730   0.842 -0.8664  0.0842  0.6194
   31MOL    H4614506   6.164   2.570   1.169 -0.6128  1.0413 -0.8078
   31MOL    H4714507   6.012   2.397   1.070 -1.7196  0.4296 -1.5400
   31MOL    H4814508   6.244   2.404   0.705 -0.5073  0.4245  0.4674
   31MOL    H4914509   6.401   2.572   0.803  0.9450 -3.3839  0.0618
   31MOL    C5014510   5.980   2.248   0.610 -0.5991 -0.1140  0.1290
   31MOL    C5114511   5.910   2.293   0.495 -0.6521 -0.1677  0.9812
   31MOL    C5214512   5.798   2.376   0.514  0.3051  0.3262  0.4721
   31MOL    C5314513   5.766   2.419   0.646 -0.2814 -0.0843 -0.1442
   31MOL    C5414514   5.847   2.391   0.759  0.1778 -0.4716  0.3713
   31MOL    C5514515   5.953   2.306   0.738 -0.5564 -0.2568 -0.4974
   31MOL    S5614516   5.703   2.424   0.371  0.0449  0.3314  0.3811
   31MOL    O5714517   5.566   2.442   0.426 -0.7381 -0.1094  0.4959
   31MOL    O5814518   5.733   2.332   0.264  0.3064  0.1784 -0.2379
   31MOL    C5914519   5.768   2.586   0.321 -0.6022  0.3438 -0.7629
   31MOL    C6014520   5.860   2.594   0.217 -0.3084  0.1585 -0.6686
   31MOL    C6114521   5.934   2.720   0.202 -0.8378  0.3348 -0.1084
   31MOL    C6214522   5.884   2.832   0.270 -0.3548  0.0835  0.2062
   31MOL    C6314523   5.777   2.825   0.362 -0.5702  0.6007 -0.2837
   31MOL    C6414524   5.720   2.705   0.388  0.2463  0.0161 -0.0748
   31MOL    O6514525   5.936   2.956   0.256  0.7452 -0.1435  0.1887
   31MOL    H6614526   6.063   2.180   0.596  1.9108  2.4856  1.6743
   31MOL    H6714527   5.929   2.258   0.394  2.9996  2.7423  0.5464
   31MOL    H6814528   5.689   2.493   0.660 -0.0946  0.1068 -0.1325
   31MOL    H6914529   5.826   2.434   0.856 -0.2109  2.0745 -0.8223
   31MOL    H7014530   5.885   2.505   0.161 -2.5056 -1.6491  1.1466
   31MOL    H7114531   6.016   2.730   0.134  1.2883 -1.0995  2.1450
   31MOL    H7214532   5.736   2.917   0.400 -1.2524  0.5191 -0.8121
   31MOL    H7314533   5.636   2.688   0.454  0.3254  1.6481  0.4862
   31MOL    C7414534   6.083   2.920   0.460 -0.3854 -0.3587  0.0862
   31MOL    C7514535   6.191   2.972   0.539  0.0679 -0.3878  0.0002
   31MOL    C7614536   6.255   3.095   0.501 -0.4919  0.2471  0.0188
   31MOL    C7714537   6.201   3.164   0.393 -0.9289  0.2514  0.1607
   31MOL    C7814538   6.093   3.119   0.316  0.2769 -0.9329  0.5376
   31MOL    C7914539   6.036   2.996   0.341  0.2660  0.2450 -0.9720
   31MOL    S8014540   6.418   3.127   0.574  0.1184 -0.0515  0.3190
   31MOL    O8114541   6.396   3.142   0.718 -0.2509 -0.1153 -0.3674
   31MOL    O8214542   6.482   3.233   0.498  1.1274 -0.0342  0.0700
   31MOL    C8314543   6.520   2.975   0.539  0.1454 -0.1829 -0.2531
   31MOL    C8414544   6.496   2.864   0.621 -0.2266 -0.0026 -0.0668
   31MOL    C8514545   6.565   2.745   0.591 -0.2780 -0.9485 -0.0124
   31MOL    C8614546   6.632   2.726   0.473 -0.4821  0.1336  0.3594
   31MOL    C8714547   6.652   2.837   0.386  0.4675  0.1697 -0.3563
   31MOL    C8814548   6.604   2.962   0.426 -0.0801  0.2227  0.6322
   31MOL    O8914549   6.666   2.599   0.445  0.0191 -0.2628  0.0993
   31MOL    H9014550   6.036   2.829   0.494  0.0272 -0.7955 -0.5081
   31MOL    H9114551   6.224   2.912   0.623  0.4584 -2.4271 -1.5777
   31MOL    H9214552   6.261   3.248   0.361  0.0984 -0.3646  0.4456
   31MOL    H9314553   6.069   3.170   0.224  0.0443  0.2332  1.2482
   31MOL    H9414554   6.453   2.890   0.716 -0.3242 -0.6940  0.0762
   31MOL    H9514555   6.545   2.662   0.657  0.0584 -2.2697 -1.5372
   31MOL    H9614556   6.708   2.833   0.294 -0.3059 -0.0731 -0.8230
   31MOL    H9714557   6.621   3.045   0.359  0.9675  1.2738  2.1676
   31MOL    C9814558   6.896   2.611   0.370 -0.0582  0.4492 -0.2692
   31MOL    C9914559   7.032   2.581   0.392  0.0128  0.3322 -0.3140
   31MOL   C10014560   7.068   2.511   0.512 -0.5591  0.0341 -0.2513
   31MOL   C10114561   6.968   2.467   0.612 -0.4825  0.3983  0.3896
   31MOL   C10214562   6.837   2.512   0.588  0.4916 -0.3734  0.2812
   31MOL   C10314563   6.798   2.574   0.469  0.2409 -1.0744  0.3610
   31MOL   S10414564   7.241   2.476   0.547  0.2981  0.2187 -0.0693
   31MOL   O10514565   7.250   2.408   0.680  0.2380 -0.4011 -0.1071
   31MOL   O10614566   7.308   2.603   0.515 -0.2995  0.0677  0.0004
   31MOL   C10714567   7.295   2.355   0.428 -1.1766  0.1981  0.0626
   31MOL   C10814568   7.340   2.230   0.469 -0.3288 -0.3181 -0.3509
   31MOL   C10914569   7.371   2.128   0.383  0.5693  0.0549 -0.3531
   31MOL   C11014570   7.356   2.145   0.249  0.0560 -0.7324  0.0762
   31MOL   C11114571   7.312   2.270   0.194 -0.0774  0.2312 -0.2146
   31MOL   C11214572   7.286   2.373   0.287  0.5722  0.1531  0.5678
   31MOL   O11314573   7.383   2.046   0.163  0.4187 -0.2214  0.5692
   31MOL   H11414574   6.863   2.646   0.274  3.8185 -1.6612 -2.4679
   31MOL   H11514575   7.115   2.597   0.325 -0.7177 -0.9070 -1.5332
   31MOL   H11614576   7.006   2.415   0.698  0.7551 -1.8130 -1.4479
   31MOL   H11714577   6.762   2.485   0.660 -1.8957 -2.6686 -2.9250
   31MOL   H11814578   7.353   2.198   0.572 -0.2410  0.4554 -0.1245
   31MOL   H11914579   7.404   2.033   0.421 -1.7441 -0.5712  0.1677
   31MOL   H12014580   7.301   2.281   0.087  0.2195  0.0865 -0.2599
   31MOL   H12114581   7.267   2.465   0.234  0.3068  0.0087  0.4137
   31MOL   C12214582   7.172   2.004   0.063 -0.6282  0.4695 -0.4838
   31MOL   C12314583   7.060   1.916   0.048  0.0948  0.0027 -0.0101
   31MOL   C12414584   7.043   1.800   0.128 -0.5415  0.7934  0.2873
   31MOL   C12514585   7.148   1.769   0.225  0.3770  0.6271  0.3014
   31MOL   C12614586   7.265   1.849   0.239 -0.3294 -0.3232  0.5271
   31MOL   C12714587   7.279   1.960   0.149 -0.2949 -0.1763  0.2441
   31MOL   S12814588   6.898   1.696   0.131 -0.3198 -0.3293  0.1870
   31MOL   O12914589   6.826   1.710   0.003  0.1051  0.0851 -0.2232
   31MOL   O13014590   6.825   1.719   0.256  0.3009 -0.5345  0.1924
   31MOL   C13114591   6.971   1.536   0.123  0.5295 -0.0565  0.6617
   31MOL   C13214592   6.990   1.452   0.229  0.1490  0.3496 -0.3513
   31MOL   C13314593   7.064   1.334   0.216 -0.1163  0.1530  0.8240
   31MOL   C13414594   7.111   1.295   0.088  0.0291 -0.3232 -0.9045
   31MOL   C13514595   7.082   1.372   8.400 -0.0021 -0.4828 -0.5388
   31MOL   C13614596   7.016   1.495   8.415  1.0753 -0.8127  0.3298
   31MOL   O13714597   7.183   1.179   0.082 -0.2420 -0.2224 -0.0410
   31MOL   H13814598   7.187   2.085   8.418  1.5425 -0.6119 -1.3269
   31MOL   H13914599   6.983   1.946   8.403  2.1063  1.0955 -1.8496
   31MOL   H14014600   7.141   1.689   0.297 -0.6507 -1.2664 -1.8442
   31MOL   H14114601   7.342   1.828   0.312  0.3423 -1.1680 -0.4260
   31MOL   H14214602   6.969   1.503   0.322  3.4171  0.6324  0.2855
   31MOL   H14314603   7.079   1.284   0.311  0.3616  0.8164  1.0953
   31MOL   H14414604   7.114   1.336   8.303  0.4426 -0.9254 -0.2275
   31MOL   H14514605   6.989   1.557   8.331  0.7269  2.1829  2.5796
   31MOL   C14614606   7.029   1.017   0.178  0.6698  0.2718  0.3284
   31MOL   C14714607   6.957   0.895   0.152  0.2122  0.1210 -1.3775
   31MOL   C14814608   6.983   0.817   0.039 -0.2630  0.3276 -0.2278
   31MOL   C14914609   7.059   0.867   8.358 -0.4488 -0.6441 -0.1821
   31MOL   C15014610   7.122   0.991   8.377  0.3073 -0.8864 -0.0557
   31MOL   C15114611   7.110   1.067   0.069  0.2066  1.2264  0.2017
   31MOL   S15214612   6.923   0.647   0.036  0.0133  0.3061 -0.0419
   31MOL   O15314613   6.826   0.643   8.351 -0.7894 -0.3400  0.1473
   31MOL   O15414614   6.887   0.613   0.175  0.5893 -0.2863 -0.3767
   31MOL   C15514615   7.050   0.535   8.424  0.1873 -0.2705  0.3690
   31MOL   C15614616   7.016   0.423   8.337  0.2896 -0.1758  0.3492
   31MOL   C15714617   7.109   0.317   8.329  0.9885 -0.1697 -0.2614
   31MOL   C15814618   7.233   0.319   8.395  0.0891 -0.2909 -0.5754
   31MOL   C15914619   7.269   0.429   0.047 -0.1246 -0.1859 -0.1984
   31MOL   C16014620   7.175   0.540   0.066  0.8356  0.5648 -0.1455
   31MOL   O16114621   7.312   0.210   8.391  0.0811 -0.0483 -0.3743
   31MOL   H16214622   7.010   1.080   0.264  0.1828 -1.1409  1.2658
   31MOL   H16314623   6.891   0.855   0.227  0.8843 -2.3935 -2.0774
   31MOL   H16414624   7.077   0.803   8.272  1.8138  0.9528 -0.9328
   31MOL   H16514625   7.178   1.038   8.297 -0.7708 -0.6622 -0.6770
   31MOL   H16614626   6.918   0.410   8.293  0.0052  0.7197  0.6973
   31MOL   H16714627   7.076   0.227   8.279  1.9455  0.1323 -1.4503
   31MOL   H16814628   7.370   0.425   0.085  0.5850  1.6476 -1.8253
   31MOL   H16914629   7.195   0.621   0.134  0.2996  1.7300 -1.3620
   31MOL   C17014630   7.327   0.013   8.260  0.5560  0.8461  0.1940
   31MOL   C17114631   7.346   8.366   8.142  0.0777  0.4742 -0.0169
   31MOL   C17214632   7.393   0.018   8.026 -0.0812  0.1063  0.3828
   31MOL   C17314633   7.407   0.158   8.036 -0.1380 -0.4967  0.4648
   31MOL   C17414634   7.393   0.221   8.160 -0.1618  0.0423 -0.3694
   31MOL   C17514635   7.339   0.154   8.269  0.2339  0.0805 -0.2675
   31MOL   S17614636   7.434   8.355   7.876 -0.2688  0.4045 -0.0527
   31MOL   O17714637   7.495   8.225   7.915 -0.2807 -0.2584  0.2136
   31MOL   O17814638   7.500   0.030   7.796  0.4591  0.5400 -0.0501
   31MOL   C17914639   7.276   8.309   7.802 -0.7668 -0.4790  0.8127
   31MOL   C18014640   7.209   8.193   7.846  0.3378 -0.5755 -0.5322
   31MOL   C18114641   7.081   8.160   7.789  0.0834 -0.4453 -0.6380
   31MOL   C18214642   7.028   8.244   7.686  0.1727  0.5781 -0.0945
   31MOL   C18314643   7.098   8.362   7.648  0.0653  0.5493  0.2872
   31MOL   C18414644   7.224   8.396   7.700  0.3225 -0.4083  0.0851
   31MOL   O18514645   6.922   8.204   7.618 -0.6255  0.2491  0.8131
   31MOL   H18614646   7.296   8.382   8.348 -3.4979 -0.3028 -1.8473
   31MOL   H18714647   7.341   8.258   8.151 -1.0499  0.5452  0.2558
   31MOL   H18814648   7.430   0.215   7.948  0.2278 -1.2147  0.0909
   31MOL   H18914649   7.400   0.328   8.166 -0.0444  0.0305 -0.2958
   31MOL   H19014650   7.248   8.130   7.925  5.1161 -1.3172 -3.3049
   31MOL   H19114651   7.035   8.065   7.813  0.7448 -1.1450 -2.0552
   31MOL   H19214652   7.061   8.422   7.566  1.7266 -2.3544 -2.7259
   31MOL   H19314653   7.275   0.062   7.674  0.8279 -1.2045 -1.7267
   31MOL   C19414654   6.944   8.218   7.374 -0.5647 -0.5897 -0.3765
   31MOL   C19514655   6.963   8.147   7.253 -0.1662 -0.3418 -0.1956
   31MOL   C19614656   7.003   8.016   7.248  0.7856  0.7417 -0.5165
   31MOL   C19714657   7.013   7.946   7.373 -0.2198  0.2906  0.2417
   31MOL   C19814658   6.989   8.010   7.499 -0.7448  0.3882 -0.2230
   31MOL   C19914659   6.951   8.145   7.495 -0.2626 -0.7156 -0.0385
   31MOL   S20014660   7.028   7.929   7.096  0.6209 -0.1661 -0.0151
   31MOL   O20114661   6.964   8.011   6.990 -0.8708  0.2615 -0.6015
   31MOL   O20214662   6.989   7.784   7.113  0.0441 -0.3827 -0.2213
   31MOL   C20314663   7.208   7.920   7.068  0.4904  0.0148  0.0151
   31MOL   C20414664   7.297   8.010   7.122 -0.0948  0.1736 -0.4978
   31MOL   C20514665   7.438   7.997   7.101  0.1567 -0.7164 -0.0348
   31MOL   C20614666   7.479   7.891   7.022  1.0092 -0.0528 -0.5251
   31MOL   C20714667   7.392   7.805   6.953 -0.4851  0.0228 -0.1946
   31MOL   C20814668   7.253   7.816   6.980  0.4976  0.1350  0.5393
   31MOL   O20914669   7.619   7.884   7.005  0.0417  0.6122  0.2894
   31MOL   H21014670   6.927   8.324   7.367  1.9514 -0.1815 -0.7451
   31MOL   H21114671   6.956   8.195   7.157 -1.4492  0.8552  0.4854
   31MOL   H21214672   7.043   7.842   7.377 -2.7951 -0.5244 -0.4249
   31MOL   H21314673   6.980   7.947   7.586 -0.1818 -0.5292 -0.8240
   31MOL   H21414674   7.262   8.088   7.188  2.0968 -0.4948  1.5359
   31MOL   H21514675   7.513   8.070   7.128  0.4703 -1.0031 -0.1381
   31MOL   H21614676   7.438   7.728   6.893  0.4931 -0.1725  0.8019
   31MOL   H21714677   7.184   7.739   6.948 -0.1324  0.0522  2.0380
   31MOL   C21814678   7.642   7.720   7.184 -0.0615  0.3085 -0.1082
   31MOL   C21914679   7.722   7.610   7.233  0.2809 -0.6157 -0.0787
   31MOL   C22014680   7.833   7.572   7.175  0.2337 -0.4661  0.0052
   31MOL   C22114681   7.877   7.629   7.058 -0.3458 -0.1504  1.0633
   31MOL   C22214682   7.802   7.736   7.001 -0.3743  0.3193  0.1154
   31MOL   C22314683   7.680   7.780   7.060 -0.4206  0.3743 -0.1768
   31MOL   S22414684   7.928   7.436   7.246 -0.4187  0.0420 -0.6216
   31MOL   O22514685   8.049   7.422   7.164  0.2867 -0.2008  0.1339
   31MOL   O22614686   7.835   7.320   7.253  0.1752 -0.4219  0.1933
   31MOL   C22714687   7.974   7.470   7.420 -0.4626 -0.2241  0.3470
   31MOL   C22814688   7.995   7.606   7.459 -0.8009 -0.3554  0.3202
   31MOL   C22914689   8.023   7.627   7.594  0.6787  0.9761  0.4307
   31MOL   C23014690   8.029   7.525   7.691  0.5369  0.8731 -0.1202
   31MOL   C23114691   7.997   7.389   7.651 -0.7001 -0.0039 -0.4653
   31MOL   C23214692   7.964   7.370   7.515  0.8908  0.6031 -0.1778
   31MOL   O23314693   8.070   7.553   7.820 -0.1886  0.0914  0.0791
   31MOL   H23414694   7.552   7.752   7.234 -1.1821  1.0515 -2.5385
   31MOL   H23514695   7.692   7.548   7.317  0.5997 -0.5815  0.0616
   31MOL   H23614696   7.968   7.596   7.010 -0.2149  0.5231  0.8429
   31MOL   H23714697   7.841   7.790   6.916  2.4264 -1.6672  0.0641
   31MOL   H23814698   7.987   7.685   7.386 -0.5999  2.7736  3.5724
   31MOL   H23914699   8.044   7.731   7.618 -0.0856  1.1395  0.4080
   31MOL   H24014700   8.005   7.307   7.721  0.3544  0.8860  0.4820
   31MOL   H24114701   7.920   7.276   7.487 -2.6671  1.7994  1.0661
   31MOL   C24214702   8.070   7.390   7.999 -0.2023  0.3340  0.2360
   31MOL   C24314703   8.013   7.326   8.106  0.2221  0.6056 -0.1972
   31MOL   C24414704   7.880   7.352   8.132 -0.6170  0.1042  0.3943
   31MOL   C24514705   7.805   7.443   8.055  0.0732 -0.3528  0.3865
   31MOL   C24614706   7.865   7.515   7.945 -0.1656 -0.1869 -0.1787
   31MOL   C24714707   8.001   7.492   7.922  0.1697  0.4597 -0.2486
   31MOL   S24814708   7.802   7.274   8.273 -0.6136  0.6576  0.5426
   31MOL   O24914709   7.662   7.313   8.286  0.3187  0.0069  0.4238
   31MOL   O25014710   7.898   7.306   8.382  0.5726  0.6915 -0.2159
   31MOL   C25114711   7.814   7.100   8.249  0.3203  0.1746  0.7240
   31MOL   C25214712   7.727   7.044   8.152 -0.5459  0.0856 -0.0487
   31MOL   C25314713   7.754   6.913   8.111  0.2921 -0.2694  0.2263
   31MOL   C25414714   7.854   6.831   8.175 -0.4415 -0.4796 -0.3847
   31MOL   C25514715   7.931   6.885   8.279  0.4579  0.1884 -0.1273
   31MOL   C25614716   7.912   7.023   8.312  0.6928 -0.3437 -0.7163
   31MOL   O25714717   7.871   6.697   8.134 -0.6039  0.8944  0.3759
   31MOL   H25814718   8.170   7.369   7.966 -0.4089 -3.0416  1.5062
   31MOL   H25914719   8.075   7.262   8.167  0.5031  1.5067  0.4769
   31MOL   H26014720   7.698   7.457   8.061  0.1008 -0.6378  1.9362
   31MOL   H26114721   7.811   7.585   7.884 -1.1871  0.5320  1.5114
   31MOL   H26214722   7.649   7.112   8.120  1.2148  0.9861 -2.5717
   31MOL   H26314723   7.709   6.870   8.024 -0.5896 -1.3796  1.2144
   31MOL   H26414724   8.002   6.830   8.339  1.5801  2.0056  0.2586
   31MOL   H26514725   7.979   7.070   8.382  1.8869 -0.8197 -1.5075
   31MOL   C26614726   7.849   6.515   8.289  0.0153  0.4775 -0.1916
   31MOL   C26714727   7.764   6.429   8.360  0.4579  0.1373 -0.2157
   31MOL   C26814728   7.623   6.444   8.347 -0.4108  0.2869 -0.5139
   31MOL   C26914729   7.572   6.540   8.264  0.3298 -0.1633 -0.7382
   31MOL   C27014730   7.656   6.617   8.183  0.5257  0.6335 -0.1573
   31MOL   C27114731   7.792   6.607   8.200  0.5928  0.1755 -0.3134
   31MOL   S27214732   7.519   6.335   0.018 -0.2274 -0.2102  0.1418
   31MOL   O27314733   7.602   6.243   0.098  0.1145 -0.0432 -0.5726
   31MOL   O27414734   7.424   6.281   8.350  0.7528 -0.7664  0.7307
   31MOL   C27514735   7.431   6.453   0.123 -0.2809 -0.2930 -0.9321
   31MOL   C27614736   7.495   6.568   0.171  0.2167  0.0273  0.0572
   31MOL   C27714737   7.428   6.640   0.277  0.5845  0.3978 -0.2525
   31MOL   C27814738   7.291   6.616   0.313 -0.4007 -0.4455 -0.3404
   31MOL   C27914739   7.225   6.504   0.245  0.3210 -0.8895  0.1044
   31MOL   C28014740   7.299   6.423   0.158 -0.7939 -0.1639 -0.0224
   31MOL   O28114741   7.212   6.690   0.400  0.0089 -0.5800 -0.2793
   31MOL   H28214742   7.956   6.526   8.300 -0.5171  3.6751  2.6622
   31MOL   H28314743   7.806   6.357   0.003 -1.8180 -0.5195  0.5475
   31MOL   H28414744   7.466   6.556   8.260  0.1007 -0.6825  2.5160
   31MOL   H28514745   7.608   6.693   8.124  0.7379 -0.0778 -1.2795
   31MOL   H28614746   7.601   6.584   0.158 -0.0021 -0.2243 -2.2102
   31MOL   H28714747   7.482   6.715   0.333 -1.7113  2.3404 -0.5351
   31MOL   H28814748   7.134   6.467   0.290  0.0997 -1.2559 -0.6361
   31MOL   H28914749   7.250   6.331   0.128 -0.6763 -0.4999  0.8012
   31MOL   C29014750   7.217   6.912   0.486  0.4294 -0.1061  0.6699
   31MOL   C29114751   7.264   7.001   0.580 -0.0143  0.2933 -0.2849
   31MOL   C29214752   7.357   6.962   0.677 -0.4827  0.0346 -0.7812
   31MOL   C29314753   7.422   6.841   0.662  0.7110 -0.1682 -0.7662
   31MOL   C29414754   7.362   6.743   0.576  0.3306  0.0047  0.6269
   31MOL   C29514755   7.268   6.781   0.482  0.2203 -0.0575  0.1739
   31MOL   S29614756   7.413   7.066   0.815 -0.2500  0.3112  0.1876
   31MOL   O29714757   7.545   7.015   0.849 -0.1955 -0.2526  0.0686
   31MOL   O29814758   7.307   7.067   0.917 -0.2449  0.1967  0.3702
   31MOL   C29914759   7.424   7.233   0.746 -0.2084  0.1191 -0.8547
   31MOL   C30014760   7.549   7.285   0.695  0.5927 -0.4971  0.6898
   31MOL   C30114761   7.561   7.425   0.670 -0.0691  0.5370 -0.0369
   31MOL   C30214762   7.445   7.507   0.686  0.1098  0.2724 -0.2874
   31MOL   C30314763   7.326   7.455   0.728  0.0028 -0.1488  0.0577
   31MOL   C30414764   7.316   7.316   0.757 -0.3337 -0.1279  0.0529
   31MOL   O30514765   7.452   7.648   0.663  0.1118 -0.3648  0.4479
   31MOL   H30614766   7.136   6.947   0.423 -2.1436 -1.9482  2.8206
   31MOL   H30714767   7.221   7.100   0.588 -1.0656 -0.1731 -0.1243
   31MOL   H30814768   7.500   6.810   0.729  1.1958  1.0383 -0.7577
   31MOL   H30914769   7.393   6.640   0.574 -0.9136 -0.3638 -0.0646
   31MOL   H31014770   7.639   7.225   0.702  3.4260  3.3493 -0.9582
   31MOL   H31114771   7.648   7.486   0.652 -0.1526  0.5138 -0.5214
   31MOL   H31214772   7.236   7.512   0.747 -0.2676 -0.2149 -0.9982
   31MOL   H31314773   7.223   7.274   0.790 -1.0034  1.2635 -0.0193
   31MOL   C31414774   7.453   7.761   0.454 -0.3108 -0.1141  0.5732
   31MOL   C31514775   7.517   7.822   0.345 -0.2562 -0.8091 -0.2702
   31MOL   C31614776   7.657   7.844   0.349  0.4576 -0.4426  0.3554
   31MOL   C31714777   7.725   7.791   0.461 -0.8434  0.0836  0.3462
   31MOL   C31814778   7.664   7.715   0.567 -0.2858 -1.0285  0.1686
   31MOL   C31914779   7.524   7.701   0.562 -0.0339 -0.0169  0.6257
   31MOL   S32014780   7.744   7.934   0.226 -0.4092 -0.2611  0.1433
   31MOL   O32114781   7.877   7.872   0.205 -0.3029 -0.3031  0.4854
   31MOL   O32214782   7.738   8.079   0.261  0.2855 -0.2182 -0.5109
   31MOL   C32314783   7.655   7.909   0.076 -0.3730  0.6312 -0.2146
   31MOL   C32414784   7.686   7.797   0.000 -0.1787  0.1800  0.3535
   31MOL   C32514785   7.597   7.761   8.324 -0.5208  0.8661  0.4676
   31MOL   C32614786   7.483   7.832   8.298  0.1611 -0.0655 -0.4695
   31MOL   C32714787   7.457   7.954   8.368 -0.1143  0.3093 -0.2528
   31MOL   C32814788   7.545   7.990   0.046  0.2711  1.2210 -0.0542
   31MOL   O32914789   7.391   7.792   8.203 -0.5605 -0.4291 -0.0470
   31MOL   H33014790   7.349   7.781   0.472 -0.7197  0.0100 -1.7706
   31MOL   H33114791   7.462   7.837   0.254  1.0875 -0.9621 -1.1211
   31MOL   H33214792   7.831   7.807   0.475 -0.4627  0.1549 -2.3278
   31MOL   H33314793   7.710   7.698   0.663 -0.0655 -0.1125  0.2343
   31MOL   H33414794   7.775   7.742   0.024 -0.8212 -0.6666  0.8268
   31MOL   H33514795   7.620   7.671   8.268 -0.6543  1.5480 -0.7037
   31MOL   H33614796   7.363   8.005   8.352 -0.5530 -0.6286 -0.6319
   31MOL   H33714797   7.512   8.069   0.112 -3.1238 -0.3298  0.1927
   31MOL   C33814798   7.461   7.908   8.008  0.4158 -0.3141 -0.6347
   31MOL   C33914799   7.503   7.907   7.875  0.3210 -0.1571 -0.0845
   31MOL   C34014800   7.511   7.788   7.799  0.0975  0.0824  0.3199
   31MOL   C34114801   7.499   7.667   7.868  0.5177 -0.3122  0.1812
   31MOL   C34214802   7.463   7.662   8.002 -0.5104  0.1734  0.1531
   31MOL   C34314803   7.440   7.785   8.073  0.3610  0.0696 -0.1697
   31MOL   S34414804   7.550   7.807   7.622 -0.1808  0.0331  0.1467
   31MOL   O34514805   7.466   7.710   7.551  0.3006  0.2544 -0.0276
   31MOL   O34614806   7.698   7.801   7.614  0.2855  0.0412  0.5374
   31MOL   C34714807   7.496   7.973   7.563  0.5533  0.2189  0.2716
   31MOL   C34814808   7.363   7.998   7.526 -0.2946 -0.2660  0.0669
   31MOL   C34914809   7.324   8.126   7.480 -0.2731  0.4172  0.1715
   31MOL   C35014810   7.423   8.223   7.468 -0.4610  0.4249 -0.3871
   31MOL   C35114811   7.560   8.193   7.494  0.6994  0.6874  0.6923
   31MOL   C35214812   7.596   8.068   7.548 -0.0016 -0.4582  0.1809
   31MOL   O35314813   7.394   8.357   7.433  0.0257  0.3892 -0.0775
   31MOL   H35414814   7.440   8.003   8.056 -0.6407  1.1542 -3.8415
   31MOL   H35514815   7.519   8.001   7.824 -0.5566 -0.6309 -1.2643
   31MOL   H35614816   7.510   7.573   7.818 -0.4504 -0.5299  0.3660
   31MOL   H35714817   7.441   7.571   8.056  0.5243  0.4437  1.0516
   31MOL   H35814818   7.298   7.912   7.529 -1.8679  0.8753 -0.5492
   31MOL   H35914819   7.219   8.144   7.459 -0.6248 -2.0633 -0.3544
   31MOL   H36014820   7.638   8.267   7.487  3.2961 -1.9784  0.2135
   31MOL   H36114821   7.699   8.053   7.577 -0.0847 -2.7300 -0.6297
   31MOL   C36214822   7.518   8.415   7.229  0.0055  0.1464  0.1594
   31MOL   C36314823   7.513   0.028   7.093  0.4271 -0.2906 -0.3302
   31MOL   C36414824   7.391   0.041   7.027  0.3076  0.8379 -0.1226
   31MOL   C36514825   7.275   0.015   7.097 -0.3341 -0.5020 -0.4269
   31MOL   C36614826   7.277   8.409   7.235  0.4542 -0.0738 -0.2937
   31MOL   C36714827   7.395   8.395   7.299 -0.3709 -0.0304 -0.1808
   31MOL   S36814828   7.394   0.063   6.848 -0.1121  0.1417  0.1442
   31MOL   O36914829   7.511   0.146   6.814 -0.2623 -0.2563  0.8050
   31MOL   O37014830   7.258   0.104   6.804  0.2311 -0.3304  0.0039
   31MOL   C37114831   7.434   8.325   6.779 -0.1943  0.3781  0.2820
   31MOL   C37214832   7.329   8.235   6.739  0.0502 -0.5246 -0.5756
   31MOL   C37314833   7.362   8.103   6.707  0.2182  0.4301 -0.3517
   31MOL   C37414834   7.499   8.062   6.710  0.2070  0.4209  0.0824
   31MOL   C37514835   7.601   8.153   6.752  0.6712  0.2265  0.3868
   31MOL   C37614836   7.570   8.289   6.788  0.4595 -0.5480  0.2681
   31MOL   O37714837   7.527   7.928   6.696 -0.0241 -0.2684 -0.1029
   31MOL   H37814838   7.611   8.399   7.282 -1.2006 -1.9912  1.6875
   31MOL   H37914839   7.602   0.037   7.032  0.8954 -1.3619  0.1717
   31MOL   H38014840   7.179   0.013   7.049 -0.0834  3.6651 -1.3017
   31MOL   H38114841   7.193   8.395   7.302 -1.2487 -0.0011 -2.3507
   31MOL   H38214842   7.224   8.261   6.731 -0.2525 -0.9245  1.7218
   31MOL   H38314843   7.288   8.031   6.675 -1.6457  1.7076  1.0295
   31MOL   H38414844   7.701   8.111   6.761  0.4809 -0.2033  0.5157
   31MOL   H38514845   7.636   8.371   6.813  0.1995 -0.3230  0.2117
   31MOL   C38614846   7.392   7.768   6.597 -0.1987 -0.1053 -0.1575
   31MOL   C38714847   7.361   7.686   6.487  0.1394 -0.3523 -0.2276
   31MOL   C38814848   7.424   7.713   6.363 -1.0290  0.0110 -0.0832
   31MOL   C38914849   7.528   7.810   6.351  0.2928  0.5119 -0.8451
   31MOL   C39014850   7.567   7.886   6.459 -0.0676 -0.6869  0.6666
   31MOL   C39114851   7.489   7.868   6.576 -0.1530 -0.0816  0.2447
   31MOL   S39214852   7.388   7.629   6.210 -0.4896 -0.3217 -0.1128
   31MOL   O39314853   7.485   7.520   6.206  0.6086 -0.5798  0.0825
   31MOL   O39414854   7.393   7.725   6.105 -0.2777  0.1533 -0.0538
   31MOL   C39514855   7.216   7.563   6.220 -0.5976  0.7790  0.6177
   31MOL   C39614856   7.115   7.656   6.194  0.3149 -0.1672 -0.3791
   31MOL   C39714857   6.983   7.609   6.196 -0.0478  0.4902  0.2681
   31MOL   C39814858   6.956   7.484   6.241  1.2723  0.1880  0.5742
   31MOL   C39914859   7.051   7.395   6.286 -0.8602  0.2069  0.5054
   31MOL   C40014860   7.185   7.430   6.255  0.4324 -0.4277 -0.2013
   31MOL   O40114861   6.827   7.441   6.253 -0.1495  0.5631 -0.1979
   31MOL   H40214862   7.347   7.766   6.695  0.7033 -0.2791  0.2546
   31MOL   H40314863   7.288   7.606   6.482 -1.0752  0.7861 -1.2660
   31MOL   H40414864   7.590   7.820   6.262  1.3437 -0.5102 -0.2425
   31MOL   H40514865   7.658   7.945   6.452 -0.0967 -0.6426  0.6570
   31MOL   H40614866   7.140   7.759   6.174  0.4451 -0.4677 -1.7767
   31MOL   H40714867   6.904   7.682   6.189  1.2157  1.8977  0.4385
   31MOL   H40814868   7.028   7.299   6.330  1.5370 -0.4121  0.4965
   31MOL   H40914869   7.267   7.366   6.285 -0.6644 -0.7989  2.0294
   31MOL   C41014870   6.739   7.487   6.468  0.3852  0.0858 -0.8270
   31MOL   C41114871   6.650   7.553   6.559  0.2339 -0.1703 -0.9926
   31MOL   C41214872   6.566   7.650   6.505  0.3052 -0.2808  0.3923
   31MOL   C41314873   6.563   7.661   6.360  0.3823  0.2021  0.1511
   31MOL   C41414874   6.644   7.592   6.273  0.0886  0.5824 -0.2225
   31MOL   C41514875   6.740   7.510   6.333 -0.3873  0.2758  0.1288
   31MOL   S41614876   6.472   7.763   6.617  0.1142 -0.1473  0.5368
   31MOL   O41714877   6.562   7.857   6.679 -0.3774  0.1951  0.2148
   31MOL   O41814878   6.394   7.676   6.707  0.3012 -0.3362 -0.8690
   31MOL   C41914879   6.350   7.864   6.527  0.0955  0.1360 -0.0220
   31MOL   C42014880   6.213   7.852   6.560  0.4456  0.3610 -0.3084
   31MOL   C42114881   6.126   7.943   6.498 -0.7382  0.1599 -0.8035
   31MOL   C42214882   6.167   8.029   6.394  0.3089 -0.0884  0.1463
   31MOL   C42314883   6.304   8.029   6.358  0.6981 -0.3391  0.2461
   31MOL   C42414884   6.398   7.946   6.421  0.1973 -0.0421  0.7928
   31MOL   O42514885   6.082   8.097   6.320 -0.1150  0.4407  0.3708
   31MOL   H42614886   6.803   7.407   6.504  1.0574 -0.5030 -3.2360
   31MOL   H42714887   6.669   7.530   6.663 -0.2064 -0.1427 -0.9062
   31MOL   H42814888   6.492   7.729   6.317  1.2710  1.1190  0.1103
   31MOL   H42914889   6.643   7.618   6.168  1.9502  0.1320 -0.3597
   31MOL   H43014890   6.179   7.777   6.631  2.5456  1.7845  2.2578
   31MOL   H43114891   6.022   7.944   6.527 -0.2163  1.1863  1.1146
   31MOL   H43214892   6.335   8.089   6.274 -0.6710 -0.5905 -0.4533
   31MOL   H43314893   6.503   7.951   6.393  0.0837 -0.3901  0.2960
   31MOL   C43414894   6.016   7.983   6.117  0.2728 -0.1540 -0.2705
   31MOL   C43514895   5.938   7.882   6.051 -0.7676  0.1179  0.0210
   31MOL   C43614896   5.835   7.817   6.121 -0.8412  0.0286 -0.4824
   31MOL   C43714897   5.796   7.862   6.254 -0.9655  0.5604 -0.3916
   31MOL   C43814898   5.877   7.961   6.318  0.7387 -0.3518 -0.5419
   31MOL   C43914899   5.993   8.016   6.251  0.1114  0.1930  0.8315
   31MOL   S44014900   5.737   7.700   6.031  0.0574 -0.0637  0.0495
   31MOL   O44114901   5.642   7.634   6.120 -0.5143  0.0732 -0.2480
   31MOL   O44214902   5.830   7.614   5.953 -0.0347 -0.2312 -0.1340
   31MOL   C44314903   5.638   7.802   5.918 -0.2587 -0.2321  0.3243
   31MOL   C44414904   5.502   7.834   5.952  0.0111 -0.0726  0.5817
   31MOL   C44514905   5.420   7.899   5.855 -0.4505 -0.5476 -0.2982
   31MOL   C44614906   5.473   7.938   5.730  0.6853  0.1805 -0.3968
   31MOL   C44714907   5.607   7.906   5.699 -0.0752  0.4412  0.2215
   31MOL   C44814908   5.687   7.835   5.793  0.4012 -0.0856  0.2965
   31MOL   O44914909   5.386   7.989   5.636  0.4630 -0.2321 -0.5253
   31MOL   H45014910   6.104   8.026   6.071 -0.6424 -0.1123 -1.9955
   31MOL   H45114911   5.973   7.859   5.952  1.4882  1.2297  0.5385
   31MOL   H45214912   5.702   7.840   6.301 -1.5446  0.4792 -1.5645
   31MOL   H45314913   5.850   8.006   6.412 -0.2279 -2.1685  0.0632
   31MOL   H45414914   5.461   7.804   6.047  1.6129 -0.0868  1.2979
   31MOL   H45514915   5.314   7.908   5.877  0.2587 -2.5467  4.6247
   31MOL   H45614916   5.652   7.938   5.606 -3.1368  0.6167 -1.2538
   31MOL   H45714917   5.785   7.797   5.767  1.2710  1.0406  1.8659
   31MOL   C45814918   5.318   8.193   5.741 -0.0981 -0.3504  0.3392
   31MOL   C45914919   5.295   8.328   5.726 -0.6051  0.3718  0.1401
   31MOL   C46014920   5.335   8.400   5.604 -0.3901 -0.1995  0.8594
   31MOL   C46114921   5.391   8.325   5.494  0.0966  0.2959 -0.3509
   31MOL   C46214922   5.399   8.191   5.516  0.4279 -0.9927 -0.7173
   31MOL   C46314923   5.367   8.127   5.636  0.0143  0.8707 -0.1993
   31MOL   S46414924   5.321   0.155   5.598 -0.3768 -0.3046 -0.4922
   31MOL   O46514925   5.418   0.210   5.505 -0.1310  0.6003 -0.3258
   31MOL   O46614926   5.332   0.199   5.743  0.2843 -0.5339  0.5367
   31MOL   C46714927   5.159   0.195   5.537 -0.4683  0.0038 -0.1987
   31MOL   C46814928   5.078   0.106   5.458  0.1410  0.3023 -0.0664
   31MOL   C46914929   4.947   0.142   5.428  0.2961 -0.6307 -0.1679
   31MOL   C47014930   4.895   0.266   5.467  0.2464 -0.6174  0.3607
   31MOL   C47114931   4.978   0.352   5.545  0.8233 -0.1715 -0.1926
   31MOL   C47214932   5.107   0.321   5.581 -1.3378  0.6216  0.2488
   31MOL   O47314933   4.779   0.303   5.416  0.0261 -0.2017  0.0085
   31MOL   H47414934   5.302   8.140   5.834  0.3420 -2.1541 -0.5876
   31MOL   H47514935   5.266   8.379   5.817 -0.0286  1.3129 -0.1946
   31MOL   H47614936   5.418   8.379   5.405  0.9787  0.7311  0.1840
   31MOL   H47714937   5.441   8.131   5.436 -0.8544 -0.7044 -1.6188
   31MOL   H47814938   5.127   0.015   5.425  0.1471  1.1404 -2.4282
   31MOL   H47914939   4.886   0.082   5.362 -0.4631 -0.1119  0.0580
   31MOL   H48014940   4.946   0.451   5.573  1.8729  0.0863  0.0890
   31MOL   H48114941   5.163   0.394   5.638 -0.2100 -0.3883  0.4600
   31MOL   H48214942   4.745   0.253   5.344 -0.0408  1.0228 -0.8359
   32MOL     C114943   3.419   7.198   4.695  0.7412  0.1717 -0.7820
   32MOL     C214944   3.438   7.114   4.585 -0.0945 -0.3691 -0.7075
   32MOL     C314945   3.419   6.975   4.601  0.2540  0.4344 -0.0515
   32MOL     C414946   3.380   6.917   4.720 -0.6122  0.3512 -0.3423
   32MOL     C514947   3.354   6.999   4.830 -0.0982 -0.1408 -0.7031
   32MOL     C614948   3.373   7.141   4.815  0.3836  0.4387 -0.5676
   32MOL     S714949   3.438   6.865   4.459  0.0955  0.2791 -0.2648
   32MOL     O814950   3.374   6.935   4.350 -0.4811  0.1539  0.3491
   32MOL     O914951   3.380   6.733   4.490 -0.3931  0.3293 -0.6675
   32MOL    C1014952   3.616   6.853   4.433 -0.2710  0.2493  0.3383
   32MOL    C1114953   3.664   6.880   4.302  0.1827  1.2555  0.0183
   32MOL    C1214954   3.802   6.866   4.282  0.2011  0.3795  0.3881
   32MOL    C1314955   3.885   6.804   4.376 -0.5191 -0.1986 -0.1833
   32MOL    C1414956   3.831   6.779   4.499 -0.2019  0.0563 -0.4459
   32MOL    C1514957   3.697   6.801   4.533 -0.9457 -0.3348 -0.9007
   32MOL    O1614958   4.013   6.761   4.339  0.3940  0.0047  0.1464
   32MOL    H1714959   3.425   7.305   4.683 -0.2818  0.1348 -1.7545
   32MOL    H1814960   3.453   7.162   4.490 -3.0471 -0.1133 -1.1043
   32MOL    H1914961   3.364   6.810   4.716 -1.1268  0.4591 -1.2139
   32MOL    H2014962   3.336   6.965   4.931 -0.5855  0.7050 -0.5012
   32MOL    H2114963   3.601   6.915   4.222  0.4955 -1.8401 -1.6512
   32MOL    H2214964   3.844   6.886   4.184  0.7452 -0.3452  0.4704
   32MOL    H2314965   3.891   6.724   4.570  0.5780  0.2880 -0.9186
   32MOL    H2414966   3.660   6.784   4.633 -2.0009  1.0090 -1.0519
   32MOL    H2514967   3.367   7.219   4.888  0.1624  0.0606 -0.1798
   32MOL    C2614968   4.144   6.618   4.461  0.3276  0.2210  0.4040
   32MOL    C2714969   4.260   6.600   4.537  0.1926 -0.7546  0.1118
   32MOL    C2814970   4.315   6.706   4.612 -0.4641  0.6451 -0.1809
   32MOL    C2914971   4.262   6.837   4.605 -0.0153  0.1048 -0.3462
   32MOL    C3014972   4.154   6.856   4.513  0.1688 -0.5306 -0.3249
   32MOL    C3114973   4.095   6.748   4.438 -0.0773  0.8041 -0.4384
   32MOL    S3214974   4.450   6.664   4.723  0.2972 -0.4425  0.0291
   32MOL    O3314975   4.431   6.525   4.769 -0.2602 -0.2894  0.2235
   32MOL    O3414976   4.458   6.766   4.825 -0.0878  0.4156  0.3909
   32MOL    C3514977   4.600   6.669   4.620  0.0397  0.1273 -0.3455
   32MOL    C3614978   4.604   6.603   4.499 -0.0908  0.1113 -0.3697
   32MOL    C3714979   4.716   6.600   4.423 -0.4573 -0.1379 -0.5389
   32MOL    C3814980   4.830   6.679   4.456 -0.0107  0.0459  0.1632
   32MOL    C3914981   4.818   6.763   4.571 -0.2786  0.2860 -0.0635
   32MOL    C4014982   4.709   6.745   4.664  0.0930 -0.0680  0.2279
   32MOL    O4114983   4.934   6.689   4.375 -0.4040 -0.0973  0.1420
   32MOL    H4214984   4.118   6.526   4.411  1.1312  0.3825 -0.3307
   32MOL    H4314985   4.296   6.501   4.560 -0.2231 -1.3960 -1.9756
   32MOL    H4414986   4.303   6.912   4.671 -1.8669  0.1950  0.7445
   32MOL    H4514987   4.115   6.957   4.515 -0.0316 -0.6070 -0.3654
   32MOL    H4614988   4.517   6.549   4.463  1.5194 -1.5257 -1.9500
   32MOL    H4714989   4.715   6.540   4.333 -0.0795 -1.3493  0.2531
   32MOL    H4814990   4.907   6.811   4.606 -1.4084  1.1019  1.7594
   32MOL    H4914991   4.713   6.793   4.760  0.4749 -0.6290  0.4952
   32MOL    C5014992   4.943   6.898   4.269  0.1940 -0.1406 -0.5699
   32MOL    C5114993   4.935   6.979   4.152 -0.0880  0.0492  0.4023
   32MOL    C5214994   4.918   6.918   4.026  0.1475  0.4266 -0.3059
   32MOL    C5314995   4.877   6.780   4.015 -0.0674 -0.0243 -0.6159
   32MOL    C5414996   4.885   6.703   4.137 -0.2956  0.0807 -0.3538
   32MOL    C5514997   4.919   6.761   4.263  0.1629  0.3149 -0.0096
   32MOL    S5614998   4.926   7.011   3.870 -0.4289  0.2438  0.0214
   32MOL    O5714999   4.949   7.149   3.913 -0.5638 -0.5438  0.1483
   32MOL    O5815000   4.809   6.972   3.795 -0.4556 -0.1866 -0.5204
   32MOL    C5915001   5.074   6.950   3.785 -0.0510 -0.0338 -0.7979
   32MOL    C6015002   5.197   7.023   3.794 -0.2017  0.6289  0.1157
   32MOL    C6115003   5.313   6.973   3.735  0.0907 -0.5242  0.3057
   32MOL    C6215004   5.317   6.844   3.675 -0.0191  0.1057  0.5515
   32MOL    C6315005   5.195   6.778   3.649  0.2461  0.4082  0.1152
   32MOL    C6415006   5.074   6.829   3.715 -0.2621  0.2373 -0.4318
   32MOL    O6515007   5.430   6.786   3.628  0.4357 -0.0605 -0.0686
   32MOL    H6615008   4.972   6.942   4.363  1.5961  0.5538 -1.2936
   32MOL    H6715009   4.949   7.086   4.158  0.9683 -0.1078  0.7756
   32MOL    H6815010   4.872   6.740   3.915 -0.6607  1.3817 -1.1718
   32MOL    H6915011   4.868   6.597   4.128  0.5416 -0.3187  2.3229
   32MOL    H7015012   5.204   7.111   3.856  1.2694  0.7374 -0.1872
   32MOL    H7115013   5.409   7.021   3.739 -0.0318 -0.3216  0.9471
   32MOL    H7215014   5.214   6.683   3.600 -2.3580 -0.1933  0.1987
   32MOL    H7315015   4.987   6.766   3.710 -0.1628  0.1971 -1.9546
   32MOL    C7415016   5.667   6.752   3.636  0.1263  0.1187  0.1248
   32MOL    C7515017   5.785   6.728   3.711 -0.2707 -0.0867  0.2203
   32MOL    C7615018   5.774   6.717   3.847  0.0318 -0.1619 -0.1440
   32MOL    C7715019   5.659   6.750   3.920 -0.3550 -0.1073  1.2401
   32MOL    C7815020   5.547   6.792   3.846 -0.3431  0.5926 -0.6886
   32MOL    C7915021   5.544   6.780   3.704  0.0591 -0.1170  0.1037
   32MOL    S8015022   5.929   6.694   3.943 -0.3039  0.1142  0.1277
   32MOL    O8115023   5.919   6.788   4.057  0.6756 -0.5708  0.0726
   32MOL    O8215024   6.052   6.707   3.863  0.4470 -0.0414  0.1713
   32MOL    C8315025   5.923   6.530   4.014 -0.3074 -0.4666 -0.0032
   32MOL    C8415026   5.868   6.511   4.143  0.1361  0.2895  0.0627
   32MOL    C8515027   5.854   6.380   4.202  0.6612  0.1310  0.4661
   32MOL    C8615028   5.897   6.268   4.126  0.7463 -0.1407  0.2361
   32MOL    C8715029   5.969   6.286   4.010  0.6827 -0.1318  0.6159
   32MOL    C8815030   5.967   6.414   3.948 -0.1773  0.0609 -0.1694
   32MOL    O8915031   5.900   6.138   4.177  0.6896  0.0940  0.6478
   32MOL    H9015032   5.665   6.736   3.529  0.3608  0.4929  0.0646
   32MOL    H9115033   5.880   6.706   3.663  1.3058  0.1763  3.0865
   32MOL    H9215034   5.667   6.756   4.028  3.8735  0.4064  0.9878
   32MOL    H9315035   5.464   6.828   3.905 -0.0972  1.6459 -0.9741
   32MOL    H9415036   5.818   6.598   4.183  1.6832  1.7996 -1.2059
   32MOL    H9515037   5.799   6.375   4.294  1.0342  1.1056  0.7501
   32MOL    H9615038   6.007   6.203   3.952  1.4039 -0.2236  1.2204
   32MOL    H9715039   6.008   6.429   3.849  1.6445 -1.2090  0.3777
   32MOL    C9815040   5.675   6.082   4.253 -0.6344 -0.1927  1.1055
   32MOL    C9915041   5.581   6.072   4.354  0.8543  0.0378 -0.4268
   32MOL   C10015042   5.621   6.089   4.492 -0.9434  0.5557  0.3397
   32MOL   C10115043   5.755   6.113   4.515 -0.5253  0.3002 -0.1667
   32MOL   C10215044   5.850   6.116   4.412  0.0032  0.5953  0.6193
   32MOL   C10315045   5.812   6.110   4.278  0.8184 -0.1900 -0.7086
   32MOL   S10415046   5.504   6.080   4.638  0.7203 -0.3332  0.0364
   32MOL   O10515047   5.529   6.198   4.725 -0.3353  0.1441  0.1323
   32MOL   O10615048   5.510   5.945   4.699  0.4113  0.2721  0.2536
   32MOL   C10715049   5.341   6.091   4.569 -0.3468 -0.0787  1.1730
   32MOL   C10815050   5.232   6.006   4.603  0.0708 -0.6771 -0.9625
   32MOL   C10915051   5.105   6.022   4.549 -0.1392 -0.8651 -0.3035
   32MOL   C11015052   5.084   6.139   4.469 -0.6822  0.2882 -0.1152
   32MOL   C11115053   5.183   6.237   4.439  0.1210 -0.4614 -1.0161
   32MOL   C11215054   5.314   6.208   4.494  0.3358  0.9168  0.0329
   32MOL   O11315055   4.954   6.157   4.420  0.4197 -0.1258  0.2516
   32MOL   H11415056   5.642   6.074   4.151 -1.5131  4.2230  0.9330
   32MOL   H11515057   5.476   6.058   4.333  0.4570  1.0258  0.7749
   32MOL   H11615058   5.789   6.117   4.617  1.1598  0.8844 -0.7411
   32MOL   H11715059   5.957   6.127   4.426  0.3490  0.3064 -1.4906
   32MOL   H11815060   5.258   5.920   4.663  0.6689  0.9611  1.2219
   32MOL   H11915061   5.023   5.953   4.566  1.0738 -2.5540 -1.1711
   32MOL   H12015062   5.169   6.329   4.385  0.2631  0.1022 -0.1197
   32MOL   H12115063   5.390   6.278   4.461  1.5770 -0.9793 -1.2427
   32MOL   C12215064   4.953   5.989   4.244 -0.0886  0.9627 -0.0816
   32MOL   C12315065   4.925   5.951   4.112  0.7397 -0.4439  0.5346
   32MOL   C12415066   4.909   6.063   4.023 -1.1432  0.7370  0.5179
   32MOL   C12515067   4.912   6.200   4.058 -0.2512 -0.1399  0.1252
   32MOL   C12615068   4.928   6.235   4.196  0.4870 -0.0495  0.1578
   32MOL   C12715069   4.949   6.129   4.284  0.6868  0.6176 -0.4371
   32MOL   S12815070   4.879   6.020   3.847 -0.1636 -0.0322  0.1060
   32MOL   O12915071   4.915   5.881   3.818  0.0924  0.1562  0.0002
   32MOL   O13015072   4.930   6.133   3.766 -0.0576  0.0419  0.2220
   32MOL   C13115073   4.697   6.029   3.829 -0.2332  0.6628  0.9620
   32MOL   C13215074   4.655   6.030   3.696  0.2182  0.6212  0.0593
   32MOL   C13315075   4.516   6.052   3.673  0.7885  0.4991  0.1833
   32MOL   C13415076   4.428   6.067   3.785 -1.0193  0.1735 -0.2557
   32MOL   C13515077   4.465   6.060   3.920  0.1104  0.3135  0.1407
   32MOL   C13615078   4.603   6.035   3.942  0.0293  0.2221  0.1056
   32MOL   O13715079   4.300   6.111   3.771  0.0957  0.3674  0.5946
   32MOL   H13815080   4.978   5.911   4.315 -1.1621  1.4457  0.8458
   32MOL   H13915081   4.932   5.848   4.082  0.6950 -0.8318  1.8337
   32MOL   H14015082   4.887   6.272   3.982 -0.8982  0.7025  1.1130
   32MOL   H14115083   4.935   6.336   4.233  2.0643 -0.3566  0.7524
   32MOL   H14215084   4.725   6.028   3.614  0.1634  1.6142 -0.0165
   32MOL   H14315085   4.476   6.076   3.575 -3.3144 -2.2299  1.0410
   32MOL   H14415086   4.405   6.078   4.007 -1.4406 -1.6779 -0.4666
   32MOL   H14515087   4.637   6.033   4.045  0.0996 -0.8755  0.0632
   32MOL   C14615088   4.190   6.103   3.551 -0.0899  0.2178  0.1514
   32MOL   C14715089   4.093   6.049   3.468 -0.3265  0.5604  0.1636
   32MOL   C14815090   4.028   5.928   3.507 -0.2680  0.2991 -0.2470
   32MOL   C14915091   4.056   5.867   3.634  0.4244 -0.6016 -0.4639
   32MOL   C15015092   4.145   5.927   3.724 -0.0447 -0.5735 -0.1687
   32MOL   C15115093   4.213   6.046   3.679  0.0389  0.1529  0.2217
   32MOL   S15215094   3.921   5.846   3.404  0.2542  0.2192  0.0180
   32MOL   O15315095   3.872   5.948   3.308 -0.0855 -0.0352 -0.2112
   32MOL   O15415096   3.820   5.775   3.487  0.0160  0.2304  0.3006
   32MOL   C15515097   4.005   5.721   3.305 -0.0386 -0.0611  0.2266
   32MOL   C15615098   4.142   5.741   3.267  0.2751  0.1679 -0.2307
   32MOL   C15715099   4.201   5.633   3.200 -0.0289 -0.1112  0.0908
   32MOL   C15815100   4.129   5.515   3.168 -0.5009  0.0263  0.1965
   32MOL   C15915101   3.999   5.499   3.219 -0.7486 -0.4958  0.0855
   32MOL   C16015102   3.941   5.593   3.296 -0.1538 -0.1791 -0.2823
   32MOL   O16115103   4.193   5.413   3.108  0.6334 -0.3301  0.2728
   32MOL   H16215104   4.244   6.188   3.511  0.1455  1.2123  2.5012
   32MOL   H16315105   4.078   6.090   3.370  0.2151  1.5204  0.4775
   32MOL   H16415106   3.996   5.783   3.664 -0.4393 -0.7516 -2.5399
   32MOL   H16515107   4.175   5.890   3.820  3.5880 -2.1562 -1.8146
   32MOL   H16615108   4.202   5.819   3.313  0.3557  0.3354 -0.6195
   32MOL   H16715109   4.307   5.620   3.187 -0.2347 -0.5690 -1.1922
   32MOL   H16815110   3.953   5.403   3.198  0.3832 -0.7613 -1.2347
   32MOL   H16915111   3.842   5.574   3.337 -0.1005 -3.0464 -1.3543
   32MOL   C17015112   4.044   5.280   2.972 -0.2991 -0.2195  0.5943
   32MOL   C17115113   3.981   5.270   2.850  0.3472 -0.2080 -0.2887
   32MOL   C17215114   4.035   5.332   2.732 -0.6938  0.1724 -0.8650
   32MOL   C17315115   4.145   5.417   2.745 -0.2027  0.4529  0.4634
   32MOL   C17415116   4.206   5.434   2.872  0.4946 -0.6626  0.0478
   32MOL   C17515117   4.150   5.373   2.985 -0.1486  0.1540  0.6023
   32MOL   S17615118   3.969   5.292   2.571  0.1412 -0.4722  0.5081
   32MOL   O17715119   4.082   5.245   2.495  0.2651  0.5398 -0.1000
   32MOL   O17815120   3.894   5.411   2.525  0.0267 -0.0339 -0.1880
   32MOL   C17915121   3.849   5.161   2.598 -0.2011  0.0546 -0.0480
   32MOL   C18015122   3.893   5.029   2.591 -0.3492  0.0354  0.1819
   32MOL   C18115123   3.806   4.922   2.619  0.0489 -0.3032 -0.8443
   32MOL   C18215124   3.676   4.946   2.657  0.1277  0.2471  0.1644
   32MOL   C18315125   3.626   5.077   2.642  0.3956  0.0053 -0.3295
   32MOL   C18415126   3.713   5.188   2.610 -0.6639 -0.0171  0.0301
   32MOL   O18515127   3.600   4.842   2.703 -0.0697 -0.1585  0.2157
   32MOL   H18615128   4.007   5.232   3.061 -0.3595  1.0828  1.2889
   32MOL   H18715129   3.892   5.209   2.850 -1.1697  1.9311 -2.1331
   32MOL   H18815130   4.194   5.456   2.657  2.2540 -0.7023  1.2784
   32MOL   H18915131   4.288   5.501   2.889 -0.1529  0.0690  0.3238
   32MOL   H19015132   3.999   5.013   2.591 -0.5298 -1.1677  0.4575
   32MOL   H19115133   3.848   4.823   2.620  0.6384 -0.0512 -0.9495
   32MOL   H19215134   3.522   5.096   2.661  0.5915  1.3755 -0.5387
   32MOL   H19315135   3.680   5.290   2.603 -2.3687 -0.7357 -3.7825
   32MOL   C19415136   3.420   4.803   2.552 -0.8031 -0.1520 -0.0480
   32MOL   C19515137   3.345   4.715   2.469 -0.0712  0.0700  0.5041
   32MOL   C19615138   3.393   4.586   2.449  0.6537  0.6708  0.5136
   32MOL   C19715139   3.522   4.548   2.501  0.0203  0.3067  0.1822
   32MOL   C19815140   3.592   4.632   2.596 -0.0999 -0.2195 -0.3459
   32MOL   C19915141   3.542   4.760   2.610  0.8787 -0.5988  0.5868
   32MOL   S20015142   3.303   4.473   2.345  0.0492  0.3603  0.2979
   32MOL   O20115143   3.397   4.425   2.246  0.1124  0.1261 -0.0403
   32MOL   O20215144   3.184   4.535   2.296 -0.2640  0.4097 -0.0443
   32MOL   C20315145   3.276   4.322   2.444  0.1314  0.5453  0.0295
   32MOL   C20415146   3.265   4.320   2.586 -0.4551  0.0809 -0.0632
   32MOL   C20515147   3.246   4.201   2.657  0.3213  0.7070 -0.1941
   32MOL   C20615148   3.208   4.089   2.585 -0.4235 -0.0683 -0.4627
   32MOL   C20715149   3.217   4.089   2.445 -0.3139 -0.5309 -0.1102
   32MOL   C20815150   3.253   4.205   2.378 -0.6427  0.2100  0.3162
   32MOL   O20915151   3.178   3.983   2.658  0.4174  0.1074 -0.1011
   32MOL   H21015152   3.383   4.904   2.560  1.6524  0.7222  0.8998
   32MOL   H21115153   3.266   4.756   2.408  1.1174  3.8164  1.3663
   32MOL   H21215154   3.557   4.448   2.485  1.7864  0.8959  0.2871
   32MOL   H21315155   3.678   4.591   2.648 -0.0211 -0.6368 -0.8016
   32MOL   H21415156   3.302   4.407   2.639  1.9108 -0.1646 -1.2149
   32MOL   H21515157   3.245   4.191   2.765 -3.2191  1.0187 -0.1320
   32MOL   H21615158   3.201   4.001   2.385 -1.3487 -0.6978  0.3941
   32MOL   H21715159   3.263   4.203   2.270 -1.7664 -1.4288  0.2205
   32MOL   C21815160   3.328   3.811   2.608  0.3216  0.2577  0.7070
   32MOL   C21915161   3.435   3.726   2.643  0.7327 -0.1378  0.8057
   32MOL   C22015162   3.490   3.741   2.780  0.1322  0.6100 -0.4901
   32MOL   C22115163   3.464   3.850   2.859 -0.1560  0.2411 -0.6071
   32MOL   C22215164   3.352   3.931   2.818 -0.1510  0.3073  0.3564
   32MOL   C22315165   3.284   3.908   2.699  0.4530  0.2999 -0.1684
   32MOL   S22415166   3.626   3.622   2.818  0.1826  0.0539  0.4299
   32MOL   O22515167   3.682   3.574   2.688 -0.1937  0.6001  0.2923
   32MOL   O22615168   3.572   3.530   2.920  0.4290  0.4612 -0.2756
   32MOL   C22715169   3.751   3.720   2.891 -0.2560 -0.3292 -0.0768
   32MOL   C22815170   3.853   3.772   2.817 -0.3214 -1.0447  0.0311
   32MOL   C22915171   3.962   3.846   2.879 -0.6290  0.2932  1.0173
   32MOL   C23015172   3.967   3.863   3.017  0.2234 -0.1622  0.2957
   32MOL   C23115173   3.862   3.810   3.094 -0.2429  0.2111  0.4786
   32MOL   C23215174   3.756   3.740   3.031  0.3170  0.1159  0.5431
   32MOL   O23315175   4.075   3.926   3.078 -0.5293  0.6052  0.1926
   32MOL   H23415176   3.284   3.797   2.511 -0.1273  1.0101  0.7992
   32MOL   H23515177   3.474   3.640   2.590 -1.5018 -2.2669  2.4450
   32MOL   H23615178   3.531   3.874   2.940 -1.5723 -1.2396  1.0567
   32MOL   H23715179   3.319   4.005   2.889 -0.5916  0.5966 -0.1509
   32MOL   H23815180   3.864   3.751   2.712 -1.0656  2.1245 -0.7283
   32MOL   H23915181   4.041   3.879   2.814  0.2169 -0.2144  1.7705
   32MOL   H24015182   3.871   3.810   3.202  0.7325 -0.2477  0.3941
   32MOL   H24115183   3.675   3.699   3.090  1.7835 -0.8625  1.9217
   32MOL   C24215184   4.265   3.791   3.030  0.1359  0.0534  0.4310
   32MOL   C24315185   4.374   3.720   3.079 -0.8707 -0.2508 -0.3078
   32MOL   C24415186   4.399   3.707   3.220  0.5173  0.0018 -0.0202
   32MOL   C24515187   4.315   3.779   3.310 -0.6718  0.0551  0.3448
   32MOL   C24615188   4.197   3.837   3.260  0.2779  0.5237 -0.2476
   32MOL   C24715189   4.177   3.847   3.121  0.7409  0.1117 -0.5338
   32MOL   S24815190   4.543   3.617   3.280  0.0832 -0.3873 -0.0358
   32MOL   O24915191   4.638   3.715   3.336 -0.5640  0.3698  0.0441
   32MOL   O25015192   4.591   3.533   3.170  0.0356  0.0581 -0.0217
   32MOL   C25115193   4.495   3.511   3.409 -0.1059 -0.1152 -0.5024
   32MOL   C25215194   4.422   3.397   3.384 -0.1985 -0.1251  1.5036
   32MOL   C25315195   4.366   3.325   3.493  0.0585 -0.2807  0.2424
   32MOL   C25415196   4.408   3.350   3.627  0.1613 -0.1323  0.3132
   32MOL   C25515197   4.492   3.459   3.650  0.5380 -0.2927  0.3174
   32MOL   C25615198   4.534   3.539   3.541  0.0882  0.0148 -0.4607
   32MOL   O25715199   4.359   3.275   3.731 -0.2531  0.5004  0.1985
   32MOL   H25815200   4.246   3.799   2.925  2.0523 -0.7557  0.0022
   32MOL   H25915201   4.446   3.669   3.016 -1.1272 -1.3564  0.2888
   32MOL   H26015202   4.349   3.795   3.412  0.0728 -0.3949  0.1679
   32MOL   H26115203   4.125   3.871   3.333  0.7376 -0.8264  0.8548
   32MOL   H26215204   4.391   3.371   3.284 -1.4287  3.2576  0.9501
   32MOL   H26315205   4.292   3.249   3.474  0.0012  0.3382 -2.1717
   32MOL   H26415206   4.539   3.469   3.747  0.4536 -0.5366  0.3832
   32MOL   H26515207   4.609   3.616   3.553 -0.0270  0.2101 -0.9576
   32MOL   C26615208   4.317   3.049   3.746  0.4699  0.1428  0.2936
   32MOL   C26715209   4.360   2.916   3.737  0.3519 -0.3547 -0.7893
   32MOL   C26815210   4.493   2.885   3.718 -0.1381  0.6134  0.4038
   32MOL   C26915211   4.596   2.986   3.728  0.3850 -1.2171 -0.1988
   32MOL   C27015212   4.551   3.122   3.740 -0.2722  0.4307 -0.1837
   32MOL   C27115213   4.414   3.148   3.739 -0.2279  0.7659 -0.9466
   32MOL   S27215214   4.522   2.711   3.693  0.3142 -0.0133 -0.3659
   32MOL   O27315215   4.471   2.635   3.807 -0.4383  0.0624 -0.0091
   32MOL   O27415216   4.667   2.706   3.662  0.0016  0.2353  0.5864
   32MOL   C27515217   4.441   2.655   3.545  0.3525 -0.2006  0.0649
   32MOL   C27615218   4.465   2.518   3.518 -0.7126  0.1544 -0.4166
   32MOL   C27715219   4.411   2.461   3.400  0.4370 -0.1881  0.7812
   32MOL   C27815220   4.337   2.539   3.308 -0.3173  0.1942  0.0553
   32MOL   C27915221   4.315   2.679   3.334 -0.0054  0.4789  0.2578
   32MOL   C28015222   4.378   2.735   3.446  0.2756 -0.4057 -0.6222
   32MOL   O28115223   4.286   2.475   3.197 -0.0704 -0.4685  0.1323
   32MOL   H28215224   4.214   3.079   3.759  0.1137 -1.1716  0.5403
   32MOL   H28315225   4.292   2.832   3.746 -0.4777  0.4362  0.4249
   32MOL   H28415226   4.701   2.965   3.713  0.9457 -0.8720  3.0012
   32MOL   H28515227   4.610   3.213   3.731  0.1490  0.1621 -0.1512
   32MOL   H28615228   4.533   2.455   3.573 -0.3074  1.3636  0.5013
   32MOL   H28715229   4.421   2.356   3.377 -2.1702 -0.6992  1.7566
   32MOL   H28815230   4.255   2.741   3.270 -1.9508  0.7579  2.2866
   32MOL   H28915231   4.388   2.842   3.458 -0.3429 -0.5071  0.8519
   32MOL   C29015232   4.054   2.516   3.140  0.7190  0.1293 -0.5644
   32MOL   C29115233   3.916   2.481   3.144  0.5104  0.3050 -0.1060
   32MOL   C29215234   3.891   2.366   3.225  0.7009 -0.1462 -0.0433
   32MOL   C29315235   3.984   2.299   3.299 -0.1262  0.0849  0.1316
   32MOL   C29415236   4.117   2.335   3.283  0.2473 -0.1864  0.2931
   32MOL   C29515237   4.154   2.438   3.204 -0.0013 -0.4770  0.0390
   32MOL   S29615238   3.718   2.314   3.232 -0.0952 -0.3429  0.2335
   32MOL   O29715239   3.726   2.173   3.199 -0.2685 -0.3036 -0.5424
   32MOL   O29815240   3.640   2.399   3.141 -0.7355  0.8443 -0.4997
   32MOL   C29915241   3.660   2.319   3.401 -0.6420  0.0599  0.3028
   32MOL   C30015242   3.586   2.208   3.452  0.5132  0.0660 -0.2698
   32MOL   C30115243   3.570   2.195   3.590  0.5240 -0.4430 -0.0273
   32MOL   C30215244   3.635   2.286   3.675  0.3627  0.4702 -0.6301
   32MOL   C30315245   3.709   2.394   3.631 -0.0930 -0.1299  0.5578
   32MOL   C30415246   3.719   2.411   3.492 -0.6698  0.6412  0.3522
   32MOL   O30515247   3.647   2.268   3.810  0.0828  0.6263 -0.2678
   32MOL   H30615248   4.086   2.602   3.082  2.3393  0.6047  1.0024
   32MOL   H30715249   3.834   2.533   3.098 -0.9193  0.0107  2.0004
   32MOL   H30815250   3.941   2.216   3.354 -1.2217  0.6480  0.1407
   32MOL   H30915251   4.193   2.277   3.333  2.9105  1.7798 -1.3781
   32MOL   H31015252   3.559   2.132   3.381  0.6266 -0.2942  0.0763
   32MOL   H31115253   3.516   2.111   3.632 -0.4849  0.4475  0.4885
   32MOL   H31215254   3.782   2.448   3.691  0.1356  1.3584 -1.0314
   32MOL   H31315255   3.794   2.478   3.455 -1.1102  1.7344  1.4299
   32MOL   C31415256   3.684   2.084   3.968  0.1460 -0.5563 -1.1826
   32MOL   C31515257   3.741   1.957   3.986 -0.6375  0.4364 -0.0706
   32MOL   C31615258   3.827   1.900   3.894  0.3353 -0.3634 -0.0872
   32MOL   C31715259   3.870   1.975   3.787  0.1254  0.6246  0.4172
   32MOL   C31815260   3.814   2.101   3.772 -0.7525 -0.1662  0.5989
   32MOL   C31915261   3.717   2.157   3.853  0.6665  0.1768  0.2768
   32MOL   S32015262   3.891   1.733   3.927 -0.0959 -0.1856  0.0248
   32MOL   O32115263   3.939   1.724   4.067  0.2547 -0.4315 -0.5120
   32MOL   O32215264   4.002   1.711   3.829 -0.0192  0.5953  0.3618
   32MOL   C32315265   3.756   1.628   3.891  0.1203  0.4965  0.2729
   32MOL   C32415266   3.784   1.519   3.808  0.8068  0.8806 -0.5990
   32MOL   C32515267   3.682   1.426   3.789  0.1975  0.1113  0.7971
   32MOL   C32615268   3.563   1.437   3.856  0.3735 -0.2342 -0.0146
   32MOL   C32715269   3.537   1.546   3.940  0.5467 -0.3803  0.1824
   32MOL   C32815270   3.634   1.644   3.954  0.5943 -0.2794 -0.1149
   32MOL   O32915271   3.466   1.344   3.857 -0.0699  0.0672 -0.6088
   32MOL   H33015272   3.611   2.126   4.036 -0.8915 -0.8172 -2.1306
   32MOL   H33115273   3.736   1.904   4.080  0.3639 -1.1453 -0.8913
   32MOL   H33215274   3.939   1.944   3.710  0.0863  0.4868  0.4371
   32MOL   H33315275   3.848   2.167   3.693 -2.7847  0.4032  0.1833
   32MOL   H33415276   3.881   1.491   3.769  0.5378  0.4945 -0.9936
   32MOL   H33515277   3.697   1.330   3.742  0.6966  0.3505  0.4760
   32MOL   H33615278   3.443   1.561   3.991  0.4934  1.6152 -0.4499
   32MOL   H33715279   3.626   1.725   4.025 -0.6963 -1.8772  1.6080
   32MOL   C33815280   3.396   1.331   3.623  0.2399  0.3323 -0.4356
   32MOL   C33915281   3.354   1.253   3.514 -0.6488 -0.8798  0.2762
   32MOL   C34015282   3.318   1.118   3.542 -0.2521 -0.2837 -0.2603
   32MOL   C34115283   3.340   1.063   3.671 -0.5104 -0.2837 -0.3684
   32MOL   C34215284   3.387   1.142   3.778 -0.1504 -0.0537 -0.5118
   32MOL   C34315285   3.414   1.277   3.753  0.1060 -0.0258 -0.3026
   32MOL   S34415286   3.230   1.023   3.420  0.0483 -0.2816 -0.0596
   32MOL   O34515287   3.142   0.932   3.493 -0.1919  0.0293 -0.4260
   32MOL   O34615288   3.326   0.958   3.332  0.1032  0.3406 -0.8216
   32MOL   C34715289   3.133   1.130   3.312 -1.3090 -0.2937 -0.2126
   32MOL   C34815290   3.133   1.110   3.175  0.5094  0.0192 -0.0140
   32MOL   C34915291   3.067   1.215   3.100  0.1032  0.9780 -0.5943
   32MOL   C35015292   3.007   1.327   3.161 -0.4218 -0.0678 -0.5923
   32MOL   C35115293   3.004   1.334   3.299 -0.0651 -0.0202 -0.7622
   32MOL   C35215294   3.069   1.239   3.372  0.3706 -0.1054 -0.2053
   32MOL   O35315295   2.949   1.418   3.078 -0.1136  0.2377  0.1600
   32MOL   H35415296   3.430   1.431   3.600  0.2987  0.4958  0.3388
   32MOL   H35515297   3.347   1.304   3.419 -0.5759 -1.8124 -0.2299
   32MOL   H35615298   3.323   0.957   3.685  2.2137 -0.7722 -0.3828
   32MOL   H35715299   3.401   1.100   3.876 -0.2940  2.6278  0.7037
   32MOL   H35815300   3.184   1.034   3.117  1.4309  1.3142 -0.9517
   32MOL   H35915301   3.068   1.217   2.992 -2.5170  0.9949 -0.6441
   32MOL   H36015302   2.944   1.399   3.360  0.0615 -0.5440 -0.0739
   32MOL   H36115303   3.073   1.246   3.479 -1.3136 -0.2765 -0.1132
   32MOL   C36215304   2.715   1.376   3.090 -0.0371  0.6538 -0.1121
   32MOL   C36315305   2.581   1.420   3.122  0.0589  0.0573  0.2930
   32MOL   C36415306   2.558   1.556   3.164 -1.0873  0.3223 -0.1172
   32MOL   C36515307   2.671   1.631   3.202  0.0687  0.4892  0.0062
   32MOL   C36615308   2.803   1.582   3.173 -0.2427 -0.2789  0.3780
   32MOL   C36715309   2.827   1.461   3.109  0.4722 -0.1557 -0.0078
   32MOL   S36815310   2.403   1.639   3.189  0.3710  0.3661  0.0499
   32MOL   O36915311   2.410   1.703   3.324 -0.1261  0.0440  0.1783
   32MOL   O37015312   2.298   1.542   3.162  0.1147 -0.4645  0.8709
   32MOL   C37115313   2.419   1.772   3.070 -0.2027  0.1958  0.0259
   32MOL   C37215314   2.444   1.738   2.933  0.2196  0.1443 -0.4523
   32MOL   C37315315   2.438   1.837   2.833 -0.0436 -0.3047 -0.1112
   32MOL   C37415316   2.417   1.967   2.875  0.4133  0.5406  1.0152
   32MOL   C37515317   2.382   2.002   3.007  0.6234 -0.4006 -0.0941
   32MOL   C37615318   2.378   1.900   3.109  0.5230  0.4763 -0.6660
   32MOL   O37715319   2.426   2.067   2.776  0.7494  0.1274  0.4040
   32MOL   H37815320   2.718   1.276   3.051 -1.4373 -0.1918  1.8622
   32MOL   H37915321   2.493   1.361   3.099  1.4375 -1.1900 -2.0051
   32MOL   H38015322   2.659   1.734   3.233 -0.8341  0.6493 -0.8474
   32MOL   H38115323   2.885   1.650   3.192  0.2147 -0.3151 -1.4298
   32MOL   H38215324   2.458   1.635   2.904  0.7921 -0.1383  0.8240
   32MOL   H38315325   2.455   1.812   2.729  1.1419 -0.7655  0.1892
   32MOL   H38415326   2.361   2.107   3.021  2.3635  0.0877 -1.0389
   32MOL   H38515327   2.339   1.917   3.208  1.6390  0.0219 -0.1480
   32MOL   C38615328   2.646   2.132   2.856  0.3569  0.8664 -0.1317
   32MOL   C38715329   2.745   2.227   2.871  0.0798  0.0070 -0.2505
   32MOL   C38815330   2.717   2.364   2.850 -0.5067  0.3318 -0.2372
   32MOL   C38915331   2.594   2.397   2.791 -0.6234 -0.5256  0.9080
   32MOL   C39015332   2.496   2.298   2.766 -0.2791 -0.1660  0.3726
   32MOL   C39115333   2.525   2.162   2.794  0.2359 -0.8708 -0.3907
   32MOL   S39215334   2.844   2.490   2.875 -0.0750  0.1371 -0.1818
   32MOL   O39315335   2.966   2.427   2.830 -0.2396  0.2707  0.2586
   32MOL   O39415336   2.839   2.543   3.010  0.3887 -0.0834  0.4630
   32MOL   C39515337   2.812   2.630   2.766 -0.1474  0.0199 -0.8133
   32MOL   C39615338   2.711   2.722   2.809  0.5258 -0.0110 -0.5415
   32MOL   C39715339   2.698   2.834   2.725  0.1455 -0.3087  0.8787
   32MOL   C39815340   2.782   2.860   2.614 -0.3912 -0.2184 -0.0091
   32MOL   C39915341   2.883   2.768   2.585 -0.2481 -0.1667 -0.1417
   32MOL   C40015342   2.899   2.651   2.660 -0.6211 -0.4723  0.0705
   32MOL   O40115343   2.764   2.969   2.539 -0.0787  0.6526  0.2570
   32MOL   H40215344   2.664   2.028   2.879 -1.9178 -0.0865 -2.4972
   32MOL   H40315345   2.843   2.203   2.909 -1.4091 -0.8815  3.3541
   32MOL   H40415346   2.577   2.503   2.778 -1.4386 -0.9779 -2.0422
   32MOL   H40515347   2.402   2.327   2.720  0.0261  0.5293  0.1854
   32MOL   H40615348   2.650   2.700   2.895 -2.9367 -1.2861 -3.2082
   32MOL   H40715349   2.611   2.894   2.744  0.3040  1.1455 -2.5603
   32MOL   H40815350   2.946   2.787   2.500 -0.6555 -0.9858 -0.6231
   32MOL   H40915351   2.976   2.577   2.646 -0.5118 -0.9917  3.1436
   32MOL   C41015352   2.824   3.158   2.686 -0.3286 -0.4697 -0.0856
   32MOL   C41115353   2.894   3.277   2.700 -0.2375  0.3226 -0.3404
   32MOL   C41215354   2.986   3.317   2.600  0.4650 -0.9159 -0.3679
   32MOL   C41315355   3.002   3.244   2.482  0.7852 -0.6003 -0.1126
   32MOL   C41415356   2.931   3.127   2.468 -0.6973  0.2953 -0.3755
   32MOL   C41515357   2.842   3.082   2.566  0.5676  0.1612  0.4535
   32MOL   S41615358   3.091   3.462   2.621 -0.1390  0.2302 -0.2243
   32MOL   O41715359   3.225   3.411   2.636  0.3091  0.1653  0.1187
   32MOL   O41815360   3.037   3.535   2.737 -0.3042  0.4258 -0.2441
   32MOL   C41915361   3.089   3.568   2.471  0.0533 -0.6050  0.1764
   32MOL   C42015362   3.156   3.521   2.362 -0.1648  0.3228  0.0817
   32MOL   C42115363   3.152   3.595   2.238  0.4902 -0.1744  0.3004
   32MOL   C42215364   3.098   3.723   2.236 -0.4792 -0.0827  0.1866
   32MOL   C42315365   3.030   3.762   2.350 -0.1723  0.5385  1.0369
   32MOL   C42415366   3.024   3.696   2.474 -0.3960 -0.4399 -0.2551
   32MOL   O42515367   3.105   3.800   2.120  0.3572  0.4979 -0.0312
   32MOL   H42615368   2.749   3.132   2.760 -0.0153  2.5469  1.3587
   32MOL   H42715369   2.870   3.334   2.789  0.0053  0.5748 -0.4361
   32MOL   H42815370   3.071   3.280   2.407  0.2122 -0.4641 -0.5797
   32MOL   H42915371   2.937   3.059   2.384 -0.9712  1.4064 -1.3023
   32MOL   H43015372   3.201   3.423   2.366  1.1450  0.8851 -0.3557
   32MOL   H43115373   3.201   3.550   2.153  1.6901 -0.4633  1.1342
   32MOL   H43215374   2.971   3.852   2.340 -0.3290  0.3439  0.1770
   32MOL   H43315375   2.971   3.733   2.560 -0.8469 -1.3058 -0.1497
   32MOL   C43415376   2.900   3.724   2.031 -0.1583 -0.0625  0.3682
   32MOL   C43515377   2.772   3.750   1.976  0.0608 -0.2308 -0.1227
   32MOL   C43615378   2.726   3.881   1.956  0.6207 -0.3780 -0.0203
   32MOL   C43715379   2.812   3.988   1.989 -0.1257  0.8444 -0.8673
   32MOL   C43815380   2.938   3.967   2.050  0.1912  0.0961 -0.3874
   32MOL   C43915381   2.982   3.837   2.070 -0.2720  0.7766 -0.1806
   32MOL   S44015382   2.556   3.914   1.898 -0.2067 -0.0402  0.0678
   32MOL   O44115383   2.480   3.948   2.019 -0.0179  0.0552 -0.7698
   32MOL   O44215384   2.518   3.799   1.819  0.1440 -0.1935 -0.4379
   32MOL   C44315385   2.572   4.056   1.781 -0.4909 -0.1394 -0.0675
   32MOL   C44415386   2.502   4.180   1.815 -0.0860 -0.1880  0.4724
   32MOL   C44515387   2.501   4.282   1.721  0.0098 -0.3545 -0.0867
   32MOL   C44615388   2.584   4.279   1.605  0.1425  0.0327 -0.1848
   32MOL   C44715389   2.663   4.166   1.582 -0.3450  0.3206 -0.0965
   32MOL   C44815390   2.657   4.055   1.669  0.2013 -0.4815  0.2962
   32MOL   O44915391   2.568   4.372   1.511 -0.6057 -0.1048  0.3705
   32MOL   H45015392   2.933   3.622   2.041 -1.9576 -0.5806  1.3293
   32MOL   H45115393   2.704   3.671   1.945 -0.6760 -0.3446  1.7248
   32MOL   H45215394   2.776   4.088   1.968  0.7938  1.3551 -0.0320
   32MOL   H45315395   3.001   4.052   2.070 -0.0376  0.0684  0.4432
   32MOL   H45415396   2.436   4.177   1.900 -2.1873 -0.8733 -1.1324
   32MOL   H45515397   2.432   4.362   1.742  1.9951  1.5506 -0.6031
   32MOL   H45615398   2.724   4.153   1.494  2.0702 -0.2936  1.5899
   32MOL   H45715399   2.699   3.958   1.648 -1.8515 -1.3685  0.1544
   32MOL   C45815400   2.536   4.421   1.286 -0.6061 -0.1864 -0.9150
   32MOL   C45915401   2.468   4.408   1.159  0.8158 -0.7818 -1.0080
   32MOL   C46015402   2.376   4.303   1.146 -0.0566  0.6940  0.0267
   32MOL   C46115403   2.355   4.211   1.252  0.5557 -0.4254  0.6670
   32MOL   C46215404   2.413   4.237   1.374 -0.7318 -0.3593 -0.6159
   32MOL   C46315405   2.501   4.343   1.395 -0.3240  0.3970  1.1055
   32MOL   S46415406   2.271   4.279   0.998 -0.3484  0.2233 -0.0804
   32MOL   O46515407   2.172   4.392   0.988 -0.1517  0.1421 -0.0488
   32MOL   O46615408   2.216   4.141   1.014  0.5726 -0.3542  0.0459
   32MOL   C46715409   2.376   4.297   0.859 -0.8028  0.2301 -0.3784
   32MOL   C46815410   2.389   4.421   0.789  0.3193 -0.0931 -0.4964
   32MOL   C46915411   2.487   4.429   0.687  0.2078  0.5247 -0.3561
   32MOL   C47015412   2.564   4.314   0.652 -0.1958  0.6894  0.1822
   32MOL   C47115413   2.540   4.190   0.717  0.0029  0.3653  0.5554
   32MOL   C47215414   2.445   4.182   0.820 -0.3302 -0.0100 -0.1907
   32MOL   O47315415   2.665   4.322   0.561 -0.0110  0.1899 -0.6271
   32MOL   H47415416   2.611   4.497   1.303  0.4326 -1.2534 -0.6196
   32MOL   H47515417   2.486   4.472   1.074 -1.0830  0.8447 -0.2391
   32MOL   H47615418   2.305   4.117   1.234  0.9856 -0.2744 -1.4419
   32MOL   H47715419   2.391   4.175   1.460 -1.4980  0.4428 -0.2318
   32MOL   H47815420   2.341   4.511   0.826 -0.0291 -0.4966  0.0330
   32MOL   H47915421   2.507   4.526   0.644 -1.6308  0.9527 -0.2857
   32MOL   H48015422   2.595   4.098   0.700 -2.3546 -1.3504  1.8330
   32MOL   H48115423   2.432   4.093   0.880 -0.8585 -0.5327 -1.0759
   32MOL   H48215424   2.710   4.240   0.542 -0.0665 -0.5304  2.0853
   33MOL     C115425   0.202   6.055   0.379 -0.0441  0.1214  0.1426
   33MOL     C215426   0.204   5.981   0.254 -0.5522 -0.2013 -0.0402
   33MOL     C315427   0.309   6.005   0.156  0.3577  0.0889 -0.5159
   33MOL     C415428   0.414   6.088   0.201 -0.4442 -0.3057  0.5438
   33MOL     C515429   0.409   6.159   0.320  0.7429  0.2797 -0.7715
   33MOL     C615430   0.302   6.144   0.412 -0.1956  0.1314  0.2176
   33MOL     S715431   0.317   5.934   8.418  0.0621  0.0496  0.1411
   33MOL     O815432   0.443   5.964   8.351 -0.1679  0.0292 -0.1778
   33MOL     O915433   0.193   5.978   8.351 -0.1101 -0.2461 -0.1599
   33MOL    C1015434   0.304   5.758   0.024 -0.4986 -0.4748 -0.1669
   33MOL    C1115435   0.182   5.698   8.409  0.9200  0.2955 -0.0721
   33MOL    C1215436   0.174   5.554   8.412 -0.6514  0.0856  0.6960
   33MOL    C1315437   0.285   5.486   0.039  0.6557 -0.4363  0.2768
   33MOL    C1415438   0.405   5.545   0.080  0.0327 -0.7749  0.0945
   33MOL    C1515439   0.409   5.687   0.084 -0.0711  0.2088  0.2509
   33MOL    O1615440   0.287   5.345   0.047 -0.2367  0.0766 -0.2775
   33MOL    H1715441   0.116   6.050   0.444  1.6717  0.2072  2.5051
   33MOL    H1815442   0.120   5.922   0.222 -0.5324  0.2846 -0.9834
   33MOL    H1915443   0.495   6.112   0.134 -2.3837  0.1413 -1.7177
   33MOL    H2015444   0.486   6.230   0.344 -1.2930  2.1644  0.2806
   33MOL    H2115445   0.103   5.752   8.359  1.2819  1.5128  0.6444
   33MOL    H2215446   0.086   5.499   8.382 -0.4631 -0.7562  1.6180
   33MOL    H2315447   0.494   5.489   0.105  2.8466  3.1719 -0.7229
   33MOL    H2415448   0.493   5.748   0.115  1.4010 -0.1585 -2.8254
   33MOL    H2515449   0.297   6.196   0.507 -2.9432  1.4443 -0.5714
   33MOL    C2615450   0.277   5.262   8.245 -0.2834 -0.1301 -0.7784
   33MOL    C2715451   0.343   5.189   8.142  0.1920  0.5004 -0.5088
   33MOL    C2815452   0.477   5.150   8.155  0.0238 -0.5624  0.3537
   33MOL    C2915453   0.543   5.170   8.277  0.1619 -0.8687 -0.6879
   33MOL    C3015454   0.475   5.227   8.384  0.0556 -0.6588 -0.0006
   33MOL    C3115455   0.346   5.278   8.369  0.2503 -0.8763 -0.2624
   33MOL    S3215456   0.563   5.082   8.015  0.3721 -0.5683 -0.0173
   33MOL    O3315457   0.686   5.024   8.068  0.2206  0.8670  0.9675
   33MOL    O3415458   0.553   5.182   7.908 -0.7081  0.1435 -0.3324
   33MOL    C3515459   0.445   4.946   7.970 -0.1507 -0.8088  0.0096
   33MOL    C3615460   0.405   4.928   7.837  0.2397 -1.2926 -0.6468
   33MOL    C3715461   0.313   4.832   7.812 -0.4260  0.2199  0.2973
   33MOL    C3815462   0.265   4.745   7.913 -0.5717  0.2740 -0.3797
   33MOL    C3915463   0.316   4.756   8.044  0.4469  0.0742 -0.0148
   33MOL    C4015464   0.413   4.858   8.070  0.1057  0.4406  0.1539
   33MOL    O4115465   0.188   4.643   7.881  0.3786  0.3945  1.0547
   33MOL    H4215466   0.187   5.314   8.216  0.2021  1.1675  0.0234
   33MOL    H4315467   0.294   5.183   8.046 -1.3840  0.9408  0.2539
   33MOL    H4415468   0.650   5.165   8.285  0.1568  1.7677  1.5823
   33MOL    H4515469   0.534   5.243   0.048  0.3159  0.9216 -0.4454
   33MOL    H4615470   0.447   4.993   7.762  1.1816  0.1619  1.0920
   33MOL    H4715471   0.285   4.822   7.709  0.7105 -2.8496  0.2295
   33MOL    H4815472   0.291   4.684   8.120 -1.5501  1.2972  0.5241
   33MOL    H4915473   0.469   4.851   8.163 -0.8095  0.4048  0.7069
   33MOL    C5015474   0.353   4.483   7.795  0.6529  0.0302 -0.0926
   33MOL    C5115475   0.413   4.354   7.815 -0.5132 -0.2291  0.2111
   33MOL    C5215476   0.364   4.267   7.914 -0.4263  0.2492 -0.1887
   33MOL    C5315477   0.260   4.306   7.996  0.1820  0.3187 -0.3212
   33MOL    C5415478   0.205   4.435   7.988  0.2922 -0.8082  0.6119
   33MOL    C5515479   0.246   4.520   7.887 -0.8471 -0.5174  0.1506
   33MOL    S5615480   0.439   4.109   7.952 -0.0053 -0.4879  0.2141
   33MOL    O5715481   0.351   4.003   7.898 -0.5742  0.1125  0.3749
   33MOL    O5815482   0.489   4.097   8.089  0.4799 -0.5970  0.0777
   33MOL    C5915483   0.589   4.109   7.850  0.0534  0.3605  0.0908
   33MOL    C6015484   0.568   4.066   7.719  0.3802 -0.1535  0.2924
   33MOL    C6115485   0.672   4.074   7.619  0.2836 -0.3981  0.1417
   33MOL    C6215486   0.796   4.126   7.659 -0.5699 -0.5641 -0.2531
   33MOL    C6315487   0.817   4.150   7.794  0.5448  0.0961  0.4909
   33MOL    C6415488   0.715   4.137   7.890 -0.0214 -0.5643 -0.0688
   33MOL    O6515489   0.887   4.151   7.561 -0.1499 -0.4237  0.1350
   33MOL    H6615490   0.389   4.559   7.728 -0.8475  1.3755  0.6179
   33MOL    H6715491   0.493   4.340   7.744  0.1470  0.4728  0.8041
   33MOL    H6815492   0.229   4.232   8.068  1.9174 -0.5587 -0.4429
   33MOL    H6915493   0.131   4.471   8.058  0.4956  1.5282 -0.3502
   33MOL    H7015494   0.468   4.046   7.685  1.3705 -0.3938 -2.6604
   33MOL    H7115495   0.655   4.044   7.517  0.9427  1.9676 -0.7067
   33MOL    H7215496   0.914   4.184   7.826 -0.6901  2.2546  2.0905
   33MOL    H7315497   0.731   4.158   7.995  0.0953 -2.4288  0.3022
   33MOL    C7415498   0.852   4.387   7.528  0.3010  0.2514 -0.3007
   33MOL    C7515499   0.898   4.520   7.523  0.2375 -0.1210  0.0676
   33MOL    C7615500   1.035   4.540   7.523  0.1092  0.6171  0.1530
   33MOL    C7715501   1.123   4.430   7.553 -1.0276 -0.5391  0.1157
   33MOL    C7815502   1.072   4.301   7.568 -0.4466  0.4336 -0.4328
   33MOL    C7915503   0.935   4.282   7.558 -0.2778  0.6612 -0.8245
   33MOL    S8015504   1.109   4.698   7.480 -0.2820 -0.3691  0.1326
   33MOL    O8115505   1.005   4.780   7.418  0.3632 -0.0242 -0.1825
   33MOL    O8215506   1.239   4.680   7.411 -0.4327 -0.0341 -0.4948
   33MOL    C8315507   1.144   4.779   7.635  0.5153  0.6841  0.6140
   33MOL    C8415508   1.276   4.775   7.686  0.2709  0.6570 -0.8807
   33MOL    C8515509   1.303   4.844   7.807 -0.8451 -0.2350  0.2005
   33MOL    C8615510   1.201   4.906   7.877  0.7218  0.2683 -0.0854
   33MOL    C8715511   1.065   4.912   7.828  0.0264 -0.6719 -0.9395
   33MOL    C8815512   1.035   4.841   7.706 -0.3963 -0.4619  0.3067
   33MOL    O8915513   1.230   4.960   7.995 -0.2102 -0.1740 -0.4185
   33MOL    H9015514   0.746   4.367   7.524 -0.1587  2.5104 -0.3894
   33MOL    H9115515   0.831   4.602   7.501 -2.9255 -3.0232 -1.6090
   33MOL    H9215516   1.229   4.443   7.569 -1.1675  0.5446  0.2371
   33MOL    H9315517   1.134   4.216   7.593  2.2949  2.0751 -1.4110
   33MOL    H9415518   1.346   4.701   7.650 -0.4079 -1.3723  1.7446
   33MOL    H9515519   1.401   4.837   7.853 -0.1794  2.2256 -0.7734
   33MOL    H9615520   0.991   4.963   7.889  0.4402  2.4503 -2.9166
   33MOL    H9715521   0.936   4.841   7.664  0.6854  1.3658 -2.3833
   33MOL    C9815522   1.260   5.199   7.961  0.3977 -0.2309  0.3045
   33MOL    C9915523   1.336   5.314   7.989 -0.1034 -0.1715  1.1876
   33MOL   C10015524   1.461   5.302   8.039  0.4385  0.0638  0.0971
   33MOL   C10115525   1.518   5.171   8.070 -0.5515  0.1510  0.1406
   33MOL   C10215526   1.437   5.056   8.048 -0.5416 -0.3693 -0.3761
   33MOL   C10315527   1.306   5.074   7.997 -0.8800 -0.7471  0.2789
   33MOL   S10415528   1.541   5.456   8.093  0.1423  0.4089  0.2321
   33MOL   O10515529   1.502   5.562   7.999  0.0488  0.4088  0.1476
   33MOL   O10615530   1.680   5.433   8.137 -0.4074  0.2000 -0.0265
   33MOL   C10715531   1.449   5.479   8.245 -0.4774 -0.5528 -0.7901
   33MOL   C10815532   1.482   5.392   8.351  0.0824  0.9057  0.0044
   33MOL   C10915533   1.443   5.426   0.053 -0.3267 -0.1041 -0.2446
   33MOL   C11015534   1.362   5.539   0.075 -0.3929 -0.0786  0.2897
   33MOL   C11115535   1.313   5.614   8.390 -0.6359 -0.3247 -0.5721
   33MOL   C11215536   1.363   5.589   8.259  0.3313  0.6110 -0.4744
   33MOL   O11315537   1.337   5.574   0.201  0.6999  0.2353 -0.6931
   33MOL   H11415538   1.161   5.203   7.919  0.4822  0.8389  0.1920
   33MOL   H11515539   1.292   5.410   7.972 -0.8825 -0.6824  0.2393
   33MOL   H11615540   1.611   5.166   8.124 -0.6350  2.5912  0.5424
   33MOL   H11715541   1.482   4.963   8.077  0.7285  0.1163 -0.7427
   33MOL   H11815542   1.550   5.308   8.348 -1.6928 -0.5250 -0.4581
   33MOL   H11915543   1.487   5.382   0.141 -0.5486  1.3229  0.5925
   33MOL   H12015544   1.246   5.698   8.395 -0.5112 -0.1515 -1.7074
   33MOL   H12115545   1.335   5.653   8.177  0.7362  1.7869  0.2792
   33MOL   C12215546   1.533   5.619   0.337 -0.3812 -0.3007 -0.0403
   33MOL   C12315547   1.617   5.716   0.407 -0.1910 -0.1925  0.6937
   33MOL   C12415548   1.592   5.855   0.374 -0.1348  0.4826  0.2848
   33MOL   C12515549   1.481   5.893   0.289  0.2649 -0.3989  0.7460
   33MOL   C12615550   1.402   5.792   0.231  0.0219 -0.0472  0.1959
   33MOL   C12715551   1.424   5.659   0.260 -0.4693 -0.4008 -0.5370
   33MOL   S12815552   1.706   5.988   0.416  0.2109 -0.0121 -0.1062
   33MOL   O12915553   1.687   6.092   0.311  0.1384 -0.6688 -0.5702
   33MOL   O13015554   1.840   5.925   0.436  0.4251 -0.6643  0.5168
   33MOL   C13115555   1.652   6.065   0.576  0.2685  0.1527  0.6006
   33MOL   C13215556   1.650   5.996   0.696  1.0070 -0.6965 -0.7384
   33MOL   C13315557   1.618   6.059   0.817 -0.5168  0.2176 -0.7890
   33MOL   C13415558   1.580   6.191   0.819  0.3707  0.5498  0.0332
   33MOL   C13515559   1.590   6.267   0.701  0.1342  0.5519  0.0161
   33MOL   C13615560   1.625   6.204   0.580  0.1309  0.6001  0.6487
   33MOL   O13715561   1.547   6.245   0.940  0.0769  0.4101 -0.2686
   33MOL   H13815562   1.549   5.514   0.357  0.2962  0.1026  1.5892
   33MOL   H13915563   1.705   5.674   0.455  0.8564 -0.3500 -1.3145
   33MOL   H14015564   1.467   5.999   0.275  0.0665 -0.1575  2.6620
   33MOL   H14115565   1.315   5.825   0.175  0.5901  0.9877 -0.0893
   33MOL   H14215566   1.677   5.891   0.695 -0.1911 -1.0723  2.0845
   33MOL   H14315567   1.611   5.994   0.903 -1.1249 -2.2412 -2.6371
   33MOL   H14415568   1.570   6.373   0.698 -0.5041  0.4453  0.3545
   33MOL   H14515569   1.623   6.256   0.485  0.4069  1.0706  0.8997
   33MOL   C14615570   1.666   6.451   0.999 -0.5251  0.1116  0.0581
   33MOL   C14715571   1.773   6.510   1.069 -0.7055  0.1633  0.4148
   33MOL   C14815572   1.877   6.429   1.119  0.2841  0.0628 -0.5440
   33MOL   C14915573   1.869   6.285   1.111  0.2387 -0.0773 -0.1009
   33MOL   C15015574   1.753   6.223   1.061 -0.1888 -0.1544  0.9693
   33MOL   C15115575   1.657   6.307   0.998 -0.1220 -1.0678 -0.2463
   33MOL   S15215576   2.024   6.505   1.192 -0.0015  0.2231  0.2754
   33MOL   O15315577   1.976   6.522   1.330 -0.3681  0.2928  0.1794
   33MOL   O15415578   2.063   6.622   1.111  0.6556  0.2512 -0.5888
   33MOL   C15515579   2.165   6.390   1.201 -0.4700 -0.4566 -0.2687
   33MOL   C15615580   2.249   6.388   1.318 -0.3513 -0.5577  0.0973
   33MOL   C15715581   2.362   6.306   1.319 -0.0127 -0.3495 -0.1119
   33MOL   C15815582   2.392   6.226   1.204  0.2087 -0.2741 -0.2201
   33MOL   C15915583   2.309   6.230   1.087 -0.1368 -0.3777 -0.3705
   33MOL   C16015584   2.200   6.318   1.084  0.2924  0.4110 -0.1567
   33MOL   O16115585   2.504   6.145   1.212 -1.1540  0.1206 -0.1462
   33MOL   H16215586   1.593   6.512   0.949 -1.1838 -0.1401  0.7043
   33MOL   H16315587   1.790   6.616   1.076  1.6726  0.1936 -3.8008
   33MOL   H16415588   1.954   6.222   1.133 -0.7547 -0.7561  1.9119
   33MOL   H16515589   1.742   6.116   1.051  0.1387 -0.1576  0.6128
   33MOL   H16615590   2.224   6.450   1.403  0.5848  1.1099 -0.8167
   33MOL   H16715591   2.429   6.307   1.403  3.5252 -0.4142 -2.7852
   33MOL   H16815592   2.330   6.170   1.000  0.1487 -0.6845 -0.0888
   33MOL   H16915593   2.143   6.333   0.993  1.1405  3.0394 -0.2906
   33MOL   C17015594   2.438   5.943   1.341 -0.2654 -0.5220  0.3028
   33MOL   C17115595   2.464   5.862   1.451  0.4972  0.8481  0.2624
   33MOL   C17215596   2.562   5.887   1.542 -0.4776 -0.3674  0.2862
   33MOL   C17315597   2.639   6.001   1.534  0.0069 -0.3313  0.4922
   33MOL   C17415598   2.622   6.087   1.419 -0.0219 -0.0176 -0.6564
   33MOL   C17515599   2.519   6.057   1.318 -0.0805 -0.1540 -0.0678
   33MOL   S17615600   2.602   5.766   1.672 -0.0457 -0.1267 -0.0031
   33MOL   O17715601   2.644   5.832   1.795 -0.4994  0.0734 -0.7077
   33MOL   O17815602   2.698   5.671   1.611  0.2546  0.0518 -0.1917
   33MOL   C17915603   2.450   5.683   1.699 -0.6955  0.5039 -0.0084
   33MOL   C18015604   2.452   5.545   1.675  0.0176 -0.7046  0.4984
   33MOL   C18115605   2.338   5.470   1.689 -0.3415  0.0646  0.8560
   33MOL   C18215606   2.217   5.527   1.732  0.1116 -0.1583 -0.0294
   33MOL   C18315607   2.215   5.672   1.753  0.2225 -0.3185  0.2646
   33MOL   C18415608   2.329   5.748   1.740  0.9091 -0.0849  0.6388
   33MOL   O18515609   2.099   5.457   1.736  0.1529  0.3366  0.1559
   33MOL   H18615610   2.366   5.917   1.265  2.2762 -2.8435 -1.4173
   33MOL   H18715611   2.411   5.768   1.450  0.3170  0.9632 -1.1069
   33MOL   H18815612   2.719   6.011   1.606 -0.5925 -0.9277  1.2569
   33MOL   H18915613   2.696   6.162   1.399  0.9756 -0.9025 -0.3017
   33MOL   H19015614   2.539   5.490   1.645  0.5316  0.9171 -1.0373
   33MOL   H19115615   2.340   5.362   1.689  1.1905  0.0795  2.2000
   33MOL   H19215616   2.128   5.727   1.784  1.3047  2.1113 -0.9131
   33MOL   H19315617   2.330   5.856   1.743  0.0391 -0.0727  0.4588
   33MOL   C19415618   2.080   5.250   1.604  0.4908 -0.6068 -0.9650
   33MOL   C19515619   2.063   5.188   1.482 -0.0424  0.0263 -0.4913
   33MOL   C19615620   2.029   5.269   1.370  0.3612  0.1128 -0.0754
   33MOL   C19715621   2.027   5.407   1.377  0.9892 -0.6520 -0.0659
   33MOL   C19815622   2.033   5.472   1.505 -0.5502 -0.2900  0.1305
   33MOL   C19915623   2.073   5.395   1.615 -0.1522 -0.3758 -0.3030
   33MOL   S20015624   1.993   5.195   1.213 -0.3017 -0.1421 -0.0230
   33MOL   O20115625   1.919   5.298   1.141  0.1387  0.4330  0.4856
   33MOL   O20215626   1.934   5.064   1.245  0.0876  0.3679 -0.1076
   33MOL   C20315627   2.147   5.171   1.130  0.1133  0.2486 -0.3275
   33MOL   C20415628   2.154   5.104   1.002  0.3755  0.2456 -0.1285
   33MOL   C20515629   2.277   5.090   0.938  0.2610  0.0594 -0.5675
   33MOL   C20615630   2.393   5.142   0.992  0.2508 -1.2414 -0.4579
   33MOL   C20715631   2.388   5.215   1.113  0.0291  0.8424 -0.1355
   33MOL   C20815632   2.265   5.228   1.180 -0.1094  0.6759 -0.5330
   33MOL   O20915633   2.508   5.129   0.928 -0.8964 -0.6162 -0.6993
   33MOL   H21015634   2.116   5.188   1.685  0.7336 -0.6569 -1.1083
   33MOL   H21115635   2.073   5.081   1.470  1.7686 -0.1010  1.8140
   33MOL   H21215636   2.009   5.479   1.299  2.0856  1.7850  1.8679
   33MOL   H21315637   2.023   5.580   1.511 -1.3169 -0.4851  3.0803
   33MOL   H21415638   2.069   5.060   0.952  0.6377 -3.3346  2.3651
   33MOL   H21515639   2.291   5.037   0.845  1.0221  0.3018 -0.6022
   33MOL   H21615640   2.474   5.252   1.166 -1.0544  0.9923  1.5337
   33MOL   H21715641   2.265   5.282   1.274 -1.0067  2.0112 -1.2762
   33MOL   C21815642   2.635   5.337   0.946 -0.2063  0.4647 -0.6115
   33MOL   C21915643   2.672   5.462   0.894  0.1312 -0.5688 -0.3110
   33MOL   C22015644   2.637   5.490   0.760  0.2401  0.2769  0.3341
   33MOL   C22115645   2.575   5.400   0.676 -0.0271  0.6281 -0.1023
   33MOL   C22215646   2.528   5.282   0.739  0.2216  0.2216  0.1460
   33MOL   C22315647   2.557   5.246   0.869  0.1985  0.1139  0.4015
   33MOL   S22415648   2.671   5.654   0.684  0.1024  0.4000 -0.4046
   33MOL   O22515649   2.590   5.755   0.760 -0.4497  0.0612  0.4073
   33MOL   O22615650   2.656   5.641   0.540 -0.2661  0.4147 -0.3826
   33MOL   C22715651   2.849   5.688   0.708  0.3413  0.0700  0.6686
   33MOL   C22815652   2.946   5.588   0.690 -0.1396  0.1744 -0.3519
   33MOL   C22915653   3.084   5.617   0.716  0.1964  0.2232  0.7383
   33MOL   C23015654   3.119   5.743   0.772  0.7302 -0.1056  0.1509
   33MOL   C23115655   3.020   5.847   0.787  0.0207  0.0091  0.1301
   33MOL   C23215656   2.887   5.814   0.754  0.0223  0.3791 -1.2505
   33MOL   O23315657   3.248   5.764   0.807 -0.2293  0.1833  0.0286
   33MOL   H23415658   2.661   5.315   1.049  1.9997  2.3191 -0.7635
   33MOL   H23515659   2.738   5.534   0.939 -0.9051  0.7246 -0.8151
   33MOL   H23615660   2.561   5.416   0.570 -1.1909  2.4733  0.3129
   33MOL   H23715661   2.472   5.206   0.685 -0.2218  0.1500  0.7010
   33MOL   H23815662   2.905   5.492   0.664 -2.3431  0.9515  0.1374
   33MOL   H23915663   3.159   5.542   0.694 -0.6888 -0.1357 -1.1797
   33MOL   H24015664   3.045   5.944   0.829  2.4851 -0.5667  0.0993
   33MOL   H24115665   2.806   5.882   0.780 -0.4509 -1.3053  2.0614
   33MOL   C24215666   3.368   5.867   0.979  0.7264 -0.2352  0.1886
   33MOL   C24315667   3.411   5.872   1.110 -0.5997 -0.5639  0.5774
   33MOL   C24415668   3.354   5.784   1.203 -0.2894 -1.0850 -0.2853
   33MOL   C24515669   3.264   5.682   1.169  0.8777 -0.2724  0.2935
   33MOL   C24615670   3.230   5.669   1.032 -0.0367 -0.6844  0.2848
   33MOL   C24715671   3.278   5.773   0.941 -0.3181 -0.0208 -0.6381
   33MOL   S24815672   3.420   5.792   1.371  0.1219 -0.6166 -0.1412
   33MOL   O24915673   3.568   5.790   1.367  0.5814 -0.1510 -0.3171
   33MOL   O25015674   3.349   5.685   1.443 -0.4507  0.4080 -0.4997
   33MOL   C25115675   3.368   5.959   1.420  0.6034 -0.1675 -0.9323
   33MOL   C25215676   3.239   5.999   1.396  0.7587  0.4617  0.3214
   33MOL   C25315677   3.198   6.129   1.433 -0.7857  0.2795  0.1023
   33MOL   C25415678   3.286   6.215   1.495 -0.4526  0.2317 -0.0138
   33MOL   C25515679   3.415   6.170   1.532 -0.2065 -0.2526  0.1196
   33MOL   C25615680   3.448   6.037   1.503  0.2587  0.7936 -0.6157
   33MOL   O25715681   3.245   6.344   1.529  0.2152  1.0653 -0.0687
   33MOL   H25815682   3.409   5.936   0.907 -0.2656 -0.2564 -0.4060
   33MOL   H25915683   3.485   5.942   1.143 -1.5553  0.7963 -0.1107
   33MOL   H26015684   3.226   5.605   1.235 -0.1416 -0.8080 -0.9017
   33MOL   H26115685   3.154   5.596   1.011 -0.3912 -1.2529  3.2716
   33MOL   H26215686   3.171   5.936   1.340  0.8809  1.1419 -0.6042
   33MOL   H26315687   3.101   6.156   1.396 -0.3823  0.8388 -0.5535
   33MOL   H26415688   3.491   6.227   1.584  1.4151 -0.8995 -1.4552
   33MOL   H26515689   3.548   6.009   1.531  0.9945  1.8321 -2.1367
   33MOL   C26615690   3.135   6.359   1.744  0.1776  0.1975  0.3206
   33MOL   C26715691   3.017   6.374   1.825  0.7997 -0.1786 -0.6227
   33MOL   C26815692   2.893   6.384   1.767  0.9724  0.0109 -0.0244
   33MOL   C26915693   2.886   6.384   1.626 -0.1340  0.4621  0.3197
   33MOL   C27015694   2.999   6.372   1.545  0.4738 -0.2347 -0.4017
   33MOL   C27115695   3.130   6.358   1.605  1.4228 -0.3827 -0.9317
   33MOL   S27215696   2.737   6.374   1.866 -0.2224 -0.1888 -0.4210
   33MOL   O27315697   2.765   6.378   2.010  0.0200 -0.0256 -0.2740
   33MOL   O27415698   2.670   6.259   1.807  0.9092 -0.3314 -0.1772
   33MOL   C27515699   2.648   6.512   1.814 -0.0520  0.1569 -0.0624
   33MOL   C27615700   2.542   6.506   1.724  0.4180 -0.1426  0.1879
   33MOL   C27715701   2.477   6.618   1.677 -0.4857 -0.3994  0.0997
   33MOL   C27815702   2.517   6.747   1.715  0.1566  0.8024  0.3956
   33MOL   C27915703   2.625   6.759   1.798 -0.2874 -0.3397 -0.3075
   33MOL   C28015704   2.693   6.642   1.851  0.1501  0.5591  0.4287
   33MOL   O28115705   2.463   6.861   1.668  0.1614  0.8270  0.3145
   33MOL   H28215706   3.231   6.348   1.791 -0.5776 -3.6032  1.1229
   33MOL   H28315707   3.022   6.369   1.933 -1.3710  2.0476 -0.3882
   33MOL   H28415708   2.794   6.370   1.572 -0.3152 -0.4753  0.8568
   33MOL   H28515709   2.991   6.379   1.438  1.4929  0.2267 -0.4565
   33MOL   H28615710   2.505   6.409   1.694  3.0863 -1.0735 -0.2241
   33MOL   H28715711   2.394   6.609   1.608 -0.6300  3.7337 -0.3663
   33MOL   H28815712   2.666   6.855   1.825  2.0447 -1.6071  0.7567
   33MOL   H28915713   2.775   6.654   1.920 -1.5177 -0.3064  2.6216
   33MOL   C29015714   2.609   6.967   1.510 -0.0164 -0.4551 -0.6214
   33MOL   C29115715   2.640   7.015   1.380  0.0298  0.3967 -0.5188
   33MOL   C29215716   2.554   6.982   1.276  0.1232  0.1777 -0.2273
   33MOL   C29315717   2.437   6.904   1.309  0.9620 -0.0348 -0.0437
   33MOL   C29415718   2.416   6.851   1.437 -0.8646  0.2784  0.7333
   33MOL   C29515719   2.496   6.892   1.542  0.5968 -0.7082 -0.2522
   33MOL   S29615720   2.565   7.055   1.113  0.3447  0.1420 -0.4222
   33MOL   O29715721   2.485   6.969   1.022  0.0363  0.1870 -0.4377
   33MOL   O29815722   2.707   7.073   1.085  0.4082  0.6690  0.1278
   33MOL   C29915723   2.487   7.223   1.121  0.7914 -0.4592 -0.1653
   33MOL   C30015724   2.553   7.339   1.068 -0.3543  0.2723  0.2500
   33MOL   C30115725   2.508   7.471   1.093  0.1489  0.2518 -0.7013
   33MOL   C30215726   2.382   7.487   1.155  0.5366 -0.2002 -0.1932
   33MOL   C30315727   2.302   7.373   1.187  0.3089  0.1930 -0.6111
   33MOL   C30415728   2.355   7.241   1.174 -0.3141 -0.5546 -0.2167
   33MOL   O30515729   2.328   7.608   1.173  0.2423  0.2397 -0.5794
   33MOL   H30615730   2.677   6.995   1.589 -1.7413  1.6159  0.1681
   33MOL   H30715731   2.733   7.066   1.360  0.7366  0.2550  2.2136
   33MOL   H30815732   2.374   6.880   1.225  1.4134  0.6434 -0.5845
   33MOL   H30915733   2.329   6.791   1.460 -0.7511 -0.6244 -1.0567
   33MOL   H31015734   2.648   7.324   1.018 -0.4450 -1.4261  0.5664
   33MOL   H31115735   2.572   7.550   1.056  1.0668  0.3411  1.0002
   33MOL   H31215736   2.203   7.385   1.228  0.9507 -1.3738  1.5159
   33MOL   H31315737   2.300   7.160   1.220  1.8682 -1.6155  0.5839
   33MOL   C31415738   2.389   7.835   1.139  0.4226  1.4325 -0.0474
   33MOL   C31515739   2.460   7.947   1.186 -0.4024 -0.0869  0.2496
   33MOL   C31615740   2.536   7.945   1.298 -0.0595 -0.8627 -0.0799
   33MOL   C31715741   2.533   7.834   1.382  0.2545  0.3869 -0.2579
   33MOL   C31815742   2.470   7.716   1.333  0.3023 -0.1197 -1.4966
   33MOL   C31915743   2.398   7.719   1.212 -0.4919  0.0533 -0.4338
   33MOL   S32015744   2.632   8.085   1.353  0.1879  0.3055  0.0092
   33MOL   O32115745   2.693   8.053   1.489 -0.0231 -0.2115 -0.6723
   33MOL   O32215746   2.543   8.201   1.336  0.0078 -0.1687 -0.1633
   33MOL   C32315747   2.765   8.105   1.239 -0.5104  0.1151 -0.5862
   33MOL   C32415748   2.837   8.221   1.250  0.4417 -0.0378  0.5582
   33MOL   C32515749   2.935   8.250   1.155 -0.1407 -0.3580 -0.4466
   33MOL   C32615750   2.963   8.157   1.048 -1.2605  0.2334  0.5766
   33MOL   C32715751   2.890   8.036   1.037 -0.2441 -0.3540  0.0183
   33MOL   C32815752   2.790   8.012   1.132  0.4542  0.4592 -0.7391
   33MOL   O32915753   3.046   8.194   0.945 -0.1099  0.6175  0.3456
   33MOL   H33015754   2.341   7.840   1.042 -2.0330 -1.2189  0.9593
   33MOL   H33115755   2.456   8.032   1.120  1.3006  0.8345  1.2755
   33MOL   H33215756   2.586   7.826   1.476  0.9757 -1.8961 -0.8264
   33MOL   H33315757   2.473   7.632   1.401 -0.6361  1.0215 -0.0128
   33MOL   H33415758   2.820   8.294   1.328  2.5521  0.3762  0.6863
   33MOL   H33515759   2.986   8.345   1.160 -0.7889 -0.0192 -0.0936
   33MOL   H33615760   2.917   7.970   0.956 -0.7688  0.9837 -1.2813
   33MOL   H33715761   2.720   7.931   1.117 -0.4879  0.8288  1.4544
   33MOL   C33815762   3.234   8.330   0.890  0.2700 -0.2760 -0.1843
   33MOL   C33915763   3.366   8.371   0.909  1.1070 -0.8684  0.2231
   33MOL   C34015764   3.453   8.303   0.995  0.1053  0.8462 -0.0807
   33MOL   C34115765   3.400   8.196   1.066 -0.0006  0.2421 -0.4401
   33MOL   C34215766   3.264   8.166   1.060  0.1666 -0.4010  0.1368
   33MOL   C34315767   3.177   8.229   0.973  0.0997  0.4781  0.4583
   33MOL   S34415768   3.620   8.357   1.036 -0.2368 -0.2944  0.6413
   33MOL   O34515769   3.655   0.040   0.942 -0.2786 -0.3423  0.0522
   33MOL   O34615770   3.704   8.235   1.037  0.0788 -0.2724 -0.5191
   33MOL   C34715771   3.612   8.416   1.200 -0.5854  0.0993  0.3347
   33MOL   C34815772   3.600   8.319   1.301  0.1631  0.0764  0.2049
   33MOL   C34915773   3.598   8.364   1.434 -0.3249  0.2667 -0.1137
   33MOL   C35015774   3.595   0.074   1.471 -0.3369  0.3547  0.0086
   33MOL   C35115775   3.604   0.168   1.369  0.0788  0.1559 -0.4629
   33MOL   C35215776   3.616   0.124   1.233 -0.1628  0.1691  0.3038
   33MOL   O35315777   3.620   0.108   1.598  0.6026 -0.4101  0.2745
   33MOL   H35415778   3.172   8.373   0.812 -0.1203  1.8200  1.2540
   33MOL   H35515779   3.406   0.033   0.861 -1.6132  0.2373 -0.1105
   33MOL   H35615780   3.453   8.141   1.142 -0.7856  1.6107  1.1420
   33MOL   H35715781   3.220   8.086   1.118 -0.6556 -0.0024  0.0577
   33MOL   H35815782   3.604   8.214   1.276 -1.3748  0.0340  0.0678
   33MOL   H35915783   3.600   8.291   1.514 -2.8871 -1.5634 -1.6303
   33MOL   H36015784   3.612   0.272   1.399  1.6084  0.1799 -0.8890
   33MOL   H36115785   3.616   0.193   1.151  1.1401 -1.4874 -1.1189
   33MOL   C36215786   3.546   0.055   1.818  0.0022 -0.1725 -0.2716
   33MOL   C36315787   3.452   0.056   1.918 -0.7949 -0.6247 -0.5172
   33MOL   C36415788   3.335   0.134   1.893 -0.1234  0.5461  0.6860
   33MOL   C36515789   3.309   0.196   1.772  0.0599 -0.3704  0.4478
   33MOL   C36615790   3.403   0.182   1.668  0.2866  0.6734 -0.4359
   33MOL   C36715791   3.523   0.116   1.693  0.3151  0.1005 -0.0416
   33MOL   S36815792   3.207   0.160   2.030 -0.0284  0.0885 -0.2182
   33MOL   O36915793   3.068   0.157   1.974  0.2270  0.4207  0.2254
   33MOL   O37015794   3.248   0.276   2.110  0.1097 -0.1555  0.3033
   33MOL   C37115795   3.220   0.019   2.134 -0.8015  0.5294  0.4854
   33MOL   C37215796   3.265   0.026   2.267  0.7727 -0.4032 -0.1341
   33MOL   C37315797   3.285   8.334   2.343  0.5258 -0.2610  0.4403
   33MOL   C37415798   3.258   8.209   2.283  0.0396  0.4964 -0.3071
   33MOL   C37515799   3.208   8.200   2.152  0.0726 -0.8179  0.0523
   33MOL   C37615800   3.198   8.315   2.078 -0.1548 -0.2061  0.0391
   33MOL   O37715801   3.263   8.098   2.362  0.1695 -0.2675 -0.6727
   33MOL   H37815802   3.635   8.420   1.826  1.2345  1.3118 -2.2944
   33MOL   H37915803   3.463   0.005   2.012 -2.0589 -0.6364 -0.3777
   33MOL   H38015804   3.215   0.249   1.761  0.7339  1.4710  3.0383
   33MOL   H38115805   3.381   0.229   1.573 -0.3915  4.0607  1.3320
   33MOL   H38215806   3.277   0.126   2.306  2.3187  0.6802 -3.2246
   33MOL   H38315807   3.311   8.330   2.448  1.9635  0.6393  0.1291
   33MOL   H38415808   3.193   8.107   2.098  0.1741 -0.8338  0.0490
   33MOL   H38515809   3.177   8.308   1.972 -1.3224 -5.3332  0.4605
   33MOL   C38615810   3.491   8.015   2.331 -0.0984  0.0367  0.5399
   33MOL   C38715811   3.566   7.901   2.321 -0.2330  0.0818  0.1721
   33MOL   C38815812   3.509   7.771   2.308  0.0460  0.0901 -0.4652
   33MOL   C38915813   3.371   7.756   2.298 -0.2410  0.5555  0.0573
   33MOL   C39015814   3.287   7.871   2.314 -0.5376  0.3581  0.1351
   33MOL   C39115815   3.349   7.999   2.333  0.2224  0.2983  0.4786
   33MOL   S39215816   3.610   7.616   2.319  0.0536 -0.2724  0.2460
   33MOL   O39315817   3.732   7.662   2.393 -0.4881  0.5359  0.2906
   33MOL   O39415818   3.615   7.554   2.186 -0.1623  0.6171  0.7223
   33MOL   C39515819   3.516   7.520   2.433 -0.1521 -0.2191  0.4862
   33MOL   C39615820   3.425   7.432   2.378  0.3091 -0.6859 -0.1631
   33MOL   C39715821   3.354   7.343   2.458  0.3175 -0.3040 -0.4886
   33MOL   C39815822   3.378   7.338   2.599  0.2175  0.2317 -0.0441
   33MOL   C39915823   3.475   7.423   2.647  1.0942 -0.2081  0.1076
   33MOL   C40015824   3.538   7.517   2.564 -0.2271  0.3180  0.5026
   33MOL   O40115825   3.307   7.256   2.683 -0.3444  0.3651  0.2806
   33MOL   H40215826   3.550   8.104   2.343 -0.2407  0.0467  1.1857
   33MOL   H40315827   3.674   7.905   2.330 -0.1853  2.4542 -1.2250
   33MOL   H40415828   3.323   7.662   2.277 -0.5051  0.7262 -0.1012
   33MOL   H40515829   3.179   7.872   2.321 -0.4742 -1.3017  1.6534
   33MOL   H40615830   3.419   7.424   2.271 -0.9352 -3.1076  0.0587
   33MOL   H40715831   3.283   7.277   2.411  1.2839 -0.0059 -2.4077
   33MOL   H40815832   3.495   7.417   2.753 -0.2976  0.3536  0.4173
   33MOL   H40915833   3.606   7.590   2.607  1.7750 -1.1314 -0.1347
   33MOL   C41015834   3.135   7.404   2.770 -0.4396  0.4907  0.6983
   33MOL   C41115835   3.073   7.457   2.887  0.9016 -0.2831  0.5553
   33MOL   C41215836   3.125   7.437   3.014  0.3325  0.1940 -0.1784
   33MOL   C41315837   3.226   7.341   3.034  0.1174  0.4905  0.2756
   33MOL   C41415838   3.284   7.281   2.919 -0.2526  0.4040 -0.3115
   33MOL   C41515839   3.244   7.315   2.789 -1.2066  0.0681 -0.1397
   33MOL   S41615840   3.031   7.491   3.158 -0.2674 -0.2662  0.6940
   33MOL   O41715841   2.931   7.592   3.112  0.0083  0.3943  0.3321
   33MOL   O41815842   3.132   7.526   3.263  0.2366  0.7130  0.3554
   33MOL   C41915843   2.936   7.344   3.204 -0.3351 -0.4212  0.2091
   33MOL   C42015844   2.962   7.284   3.329 -0.3268 -0.7324  0.3837
   33MOL   C42115845   2.904   7.158   3.358 -0.0979 -0.6916 -0.0526
   33MOL   C42215846   2.832   7.091   3.258 -0.3899  0.1862  0.0705
   33MOL   C42315847   2.807   7.154   3.132  0.4715 -0.1461  0.1267
   33MOL   C42415848   2.851   7.290   3.113  0.7870 -0.3336 -0.5289
   33MOL   O42515849   2.783   6.962   3.272 -0.3241 -0.1116  0.2025
   33MOL   H42615850   3.100   7.430   2.671  0.1271  1.3731  0.7269
   33MOL   H42715851   2.986   7.521   2.893  1.2946  0.2265  0.9395
   33MOL   H42815852   3.256   7.305   3.131  0.0674 -0.9666 -0.2232
   33MOL   H42915853   3.363   7.208   2.926 -2.0803 -1.6062  0.0136
   33MOL   H43015854   3.018   7.339   3.403 -1.9957  2.8658 -0.9033
   33MOL   H43115855   2.933   7.104   3.447  0.2083  0.3676  0.4988
   33MOL   H43215856   2.748   7.101   3.059 -0.5868  0.6027  0.4150
   33MOL   H43315857   2.830   7.338   3.018  0.8191 -2.4850 -1.6535
   33MOL   C43415858   2.919   6.826   3.128  0.8620  0.9589  0.1983
   33MOL   C43515859   2.934   6.723   3.035 -0.1609  0.0984 -0.3516
   33MOL   C43615860   2.819   6.666   2.981  0.7674 -0.3588 -0.8245
   33MOL   C43715861   2.690   6.715   3.010 -0.4278  0.1574  0.1411
   33MOL   C43815862   2.682   6.824   3.105 -0.5149 -0.4787  0.1683
   33MOL   C43915863   2.796   6.875   3.167  0.4346 -0.1423  0.7194
   33MOL   S44015864   2.848   6.518   2.888 -0.0844 -0.1668 -0.1512
   33MOL   O44115865   2.942   6.437   2.962 -0.4850  0.1757  0.4822
   33MOL   O44215866   2.877   6.572   2.754  0.0429  0.2177 -0.6805
   33MOL   C44315867   2.687   6.431   2.875  0.2627  0.8755  0.6661
   33MOL   C44415868   2.609   6.403   2.989 -0.4810  0.0197  0.5360
   33MOL   C44515869   2.489   6.331   2.970  0.5735  0.1280 -0.6597
   33MOL   C44615870   2.442   6.289   2.845 -0.3196 -0.1388  1.0526
   33MOL   C44715871   2.526   6.319   2.740 -0.6748 -0.4583  0.9774
   33MOL   C44815872   2.648   6.385   2.747 -0.1702 -1.0901 -0.2375
   33MOL   O44915873   2.326   6.217   2.831  0.7588  0.1224  0.3968
   33MOL   H45015874   3.008   6.869   3.172  1.0469 -0.5266  1.2995
   33MOL   H45115875   3.036   6.696   3.012  0.5727  1.1366  1.5664
   33MOL   H45215876   2.601   6.672   2.966  0.0955  0.0903 -0.8660
   33MOL   H45315877   2.582   6.860   3.124 -1.3124 -2.2038 -0.6250
   33MOL   H45415878   2.640   6.443   3.084 -1.5246 -1.7334  1.6541
   33MOL   H45515879   2.434   6.302   3.058  1.4131 -0.3494 -0.2844
   33MOL   H45615880   2.497   6.291   2.640 -1.8471  0.0033  1.1765
   33MOL   H45715881   2.703   6.404   2.655 -2.2146 -0.1565 -1.2987
   33MOL   C45815882   2.185   6.134   3.013  0.3196  0.9785  0.5147
   33MOL   C45915883   2.165   6.040   3.116  0.0474  0.0960  0.0500
   33MOL   C46015884   2.251   5.929   3.123  0.7656 -0.7690  0.4842
   33MOL   C46115885   2.354   5.908   3.026  0.4576  0.9974  0.6115
   33MOL   C46215886   2.378   6.009   2.930 -0.5809 -0.0563  0.2724
   33MOL   C46315887   2.297   6.124   2.926  0.2586 -0.3223  0.0525
   33MOL   S46415888   2.233   5.818   3.260 -0.2554 -0.0115 -0.1508
   33MOL   O46515889   2.316   5.700   3.231  0.4422  0.3211 -0.2335
   33MOL   O46615890   2.087   5.808   3.278  0.4520  0.0399 -0.2394
   33MOL   C46715891   2.290   5.896   3.414 -0.6103  0.7403 -0.3052
   33MOL   C46815892   2.429   5.889   3.448  0.1828 -0.2044  0.0313
   33MOL   C46915893   2.486   5.959   3.559 -0.1107 -0.1063 -0.1567
   33MOL   C47015894   2.392   6.010   3.652 -0.6575  0.1385 -1.0356
   33MOL   C47115895   2.253   6.019   3.626 -0.4895  0.6037  0.0414
   33MOL   C47215896   2.208   5.951   3.512 -0.4984  0.0715  0.8392
   33MOL   O47315897   2.443   6.062   3.761  0.5527 -0.1410  0.6126
   33MOL   H47415898   2.132   6.228   3.015  0.7557  1.2642 -0.7727
   33MOL   H47515899   2.089   6.043   3.192 -0.5453 -0.2398 -0.5228
   33MOL   H47615900   2.421   5.825   3.039 -2.4066 -1.6334 -0.6196
   33MOL   H47715901   2.462   5.997   2.864 -0.7327 -1.0429  0.2436
   33MOL   H47815902   2.507   5.845   3.388  0.2385 -0.3131  0.1829
   33MOL   H47915903   2.592   5.958   3.578 -0.1620  1.5829  0.2927
   33MOL   H48015904   2.194   6.056   3.709  0.6623 -1.1867  1.6990
   33MOL   H48115905   2.105   5.960   3.479 -0.1285 -1.8524 -0.9689
   33MOL   H48215906   2.383   6.092   3.827 -0.4547  0.0134 -0.3544
   34MOL     C115907   2.254   3.625   4.625  0.1070  1.0405  0.1623
   34MOL     C215908   2.370   3.603   4.553  0.6972 -0.4239  0.5842
   34MOL     C315909   2.358   3.544   4.421  0.7206 -0.5553 -0.2135
   34MOL     C415910   2.231   3.519   4.368  0.2662  0.1175 -0.4544
   34MOL     C515911   2.115   3.536   4.450  0.0709 -0.1099 -0.7341
   34MOL     C615912   2.126   3.595   4.575  0.1457 -0.0992 -0.3404
   34MOL     S715913   2.513   3.506   4.341  0.3370 -0.1667  0.2929
   34MOL     O815914   2.543   3.365   4.374 -0.0653  0.2114  0.1101
   34MOL     O915915   2.608   3.615   4.367  0.1042 -0.0198  0.0388
   34MOL    C1015916   2.472   3.500   4.168 -0.1509  0.3997  0.2055
   34MOL    C1115917   2.448   3.378   4.099  0.1702 -0.1079  0.9341
   34MOL    C1215918   2.390   3.370   3.969 -0.1581 -0.5678  0.2525
   34MOL    C1315919   2.336   3.491   3.922  0.0651 -0.1049  0.0584
   34MOL    C1415920   2.351   3.614   3.988 -0.8817  0.0941 -0.0067
   34MOL    C1515921   2.427   3.619   4.105 -0.3349 -0.6162  0.2180
   34MOL    O1615922   2.287   3.481   3.794 -0.1914  0.2862  0.2729
   34MOL    H1715923   2.259   3.668   4.724 -0.4795  0.0158  0.6519
   34MOL    H1815924   2.466   3.620   4.598  0.5961 -2.4643  1.6027
   34MOL    H1915925   2.234   3.505   4.261 -1.5905  1.8362 -0.7643
   34MOL    H2015926   2.017   3.507   4.416  1.2729 -4.7099 -0.6620
   34MOL    H2115927   2.484   3.290   4.151 -1.5788 -0.4135  1.6606
   34MOL    H2215928   2.375   3.276   3.918  0.4654 -0.2296 -0.5576
   34MOL    H2315929   2.314   3.701   3.936 -0.8832 -0.0678 -0.2751
   34MOL    H2415930   2.434   3.711   4.160 -1.3151 -1.3462  1.5866
   34MOL    H2515931   2.039   3.621   4.633  1.6697  2.9527  0.7523
   34MOL    C2615932   2.495   3.548   3.689  0.4192  0.0706  0.1478
   34MOL    C2715933   2.585   3.533   3.583 -0.4546  0.1551  0.3083
   34MOL    C2815934   2.530   3.478   3.461 -0.3033 -0.4408 -0.4159
   34MOL    C2915935   2.403   3.424   3.456  0.0872 -0.0994 -0.0891
   34MOL    C3015936   2.322   3.419   3.572  0.1057 -0.6290 -0.1598
   34MOL    C3115937   2.368   3.491   3.686 -0.6881  0.7830 -0.0674
   34MOL    S3215938   2.629   3.506   3.313 -0.0194  0.0012  0.2975
   34MOL    O3315939   2.758   3.437   3.337 -0.5242  0.3044  0.3978
   34MOL    O3415940   2.633   3.646   3.281 -0.0108 -0.0389 -0.3788
   34MOL    C3515941   2.560   3.418   3.176  0.5334  0.5986 -0.8113
   34MOL    C3615942   2.570   3.276   3.170 -0.4346 -0.2664  0.0070
   34MOL    C3715943   2.505   3.203   3.061  0.0216  0.1881 -0.6452
   34MOL    C3815944   2.434   3.277   2.965 -0.3217  0.9229  0.5393
   34MOL    C3915945   2.425   3.418   2.977  0.4257  0.0518  0.4459
   34MOL    C4015946   2.481   3.489   3.079 -0.0965  0.6587  0.3208
   34MOL    O4115947   2.379   3.208   2.858  0.3042 -0.8000  0.0110
   34MOL    H4215948   2.511   3.607   3.778  1.7196  1.2748 -0.8704
   34MOL    H4315949   2.688   3.564   3.587 -0.2085 -0.7707  1.5073
   34MOL    H4415950   2.366   3.376   3.366  3.8791  0.7645 -2.1975
   34MOL    H4515951   2.226   3.370   3.576 -1.2318  2.0183  0.8604
   34MOL    H4615952   2.616   3.220   3.250  1.1935 -1.1462 -1.5261
   34MOL    H4715953   2.497   3.095   3.064 -1.4691  0.2894 -0.7317
   34MOL    H4815954   2.359   3.475   2.913  0.9647  2.2112  1.7851
   34MOL    H4915955   2.469   3.596   3.089 -1.9544  0.5042 -0.1974
   34MOL    C5015956   2.282   3.372   2.714  0.4535 -0.1450  0.1050
   34MOL    C5115957   2.293   3.450   2.598  0.2027 -0.0801  0.6268
   34MOL    C5215958   2.399   3.427   2.509 -0.3838 -0.6636  0.0356
   34MOL    C5315959   2.496   3.330   2.533 -0.0428  0.6838  0.4991
   34MOL    C5415960   2.487   3.252   2.651  0.2417  0.5151 -0.0799
   34MOL    C5515961   2.380   3.278   2.744 -0.3078 -0.4587  0.2068
   34MOL    S5615962   2.405   3.540   2.370 -0.3372 -0.4459 -0.3541
   34MOL    O5715963   2.411   3.679   2.414  0.2597 -0.2822  0.1491
   34MOL    O5815964   2.293   3.493   2.283 -0.0395  0.5029  0.3076
   34MOL    C5915965   2.549   3.495   2.278 -0.6711 -0.2560  0.2953
   34MOL    C6015966   2.671   3.556   2.294  0.2332  0.4735 -0.0834
   34MOL    C6115967   2.790   3.492   2.244  0.6659 -0.2505  0.1448
   34MOL    C6215968   2.789   3.366   2.189  0.0223 -0.5006 -0.2592
   34MOL    C6315969   2.661   3.311   2.168  0.2064 -0.7777 -0.3859
   34MOL    C6415970   2.542   3.374   2.210 -1.0568 -0.2637 -0.1895
   34MOL    O6515971   2.909   3.316   2.147  0.1560  0.1012  0.3325
   34MOL    H6615972   2.189   3.379   2.770  0.6470  0.0564  0.4023
   34MOL    H6715973   2.224   3.529   2.573  1.1877  0.9997  1.2923
   34MOL    H6815974   2.583   3.321   2.469 -0.6086  1.1070 -0.3342
   34MOL    H6915975   2.549   3.167   2.672  1.4829  1.8414  1.8091
   34MOL    H7015976   2.675   3.649   2.349 -1.7241 -0.9385  2.5802
   34MOL    H7115977   2.887   3.537   2.262  1.7404 -1.7840 -1.6047
   34MOL    H7215978   2.658   3.207   2.141  0.0090 -0.7191 -0.5951
   34MOL    H7315979   2.452   3.316   2.198  0.1662 -2.0257 -1.1581
   34MOL    C7415980   2.857   3.090   2.060  0.3150 -0.4803  0.0957
   34MOL    C7515981   2.841   3.010   1.947 -0.3273  0.1531 -0.2031
   34MOL    C7615982   2.898   3.053   1.827 -0.5183 -0.1476  0.1742
   34MOL    C7715983   2.950   3.188   1.814 -0.4683 -0.3283 -0.0423
   34MOL    C7815984   2.949   3.273   1.923  0.8634 -0.5599 -0.1230
   34MOL    C7915985   2.900   3.226   2.043 -0.5836  0.3080 -0.5399
   34MOL    S8015986   2.914   2.939   1.694 -0.2087 -0.0606 -0.3004
   34MOL    O8115987   3.025   2.992   1.617  0.7404  0.4388 -0.0024
   34MOL    O8215988   2.783   2.917   1.627  0.0951 -0.7426 -0.1034
   34MOL    C8315989   2.977   2.782   1.755  0.1388  0.2314  0.1693
   34MOL    C8415990   2.902   2.667   1.752  0.1235  0.0558 -0.4867
   34MOL    C8515991   2.952   2.559   1.823  0.1436  0.0748 -0.0906
   34MOL    C8615992   3.072   2.558   1.892  0.3835  0.4218 -0.2665
   34MOL    C8715993   3.150   2.674   1.890  0.3775  0.0443 -0.2870
   34MOL    C8815994   3.102   2.786   1.823 -0.3351 -0.1773 -0.2668
   34MOL    O8915995   3.104   2.455   1.981  0.4249 -0.0021  0.3370
   34MOL    H9015996   2.828   3.055   2.158  0.7718 -0.2858  0.3005
   34MOL    H9115997   2.784   2.920   1.965 -0.6522  0.3078 -0.4330
   34MOL    H9215998   2.996   3.218   1.721 -0.1174 -1.3884 -0.2193
   34MOL    H9315999   2.983   3.375   1.919 -1.6009  0.2593 -1.3534
   34MOL    H9416000   2.803   2.655   1.710 -0.8379  1.8819  1.2062
   34MOL    H9516001   2.903   2.463   1.832  1.3318 -0.2497  4.1959
   34MOL    H9616002   3.242   2.674   1.948 -0.5083 -0.1987  1.1513
   34MOL    H9716003   3.157   2.878   1.834  1.5315 -1.0471 -2.0366
   34MOL    C9816004   2.988   2.515   2.184 -0.2206  0.4169 -0.4881
   34MOL    C9916005   2.896   2.483   2.290  0.5022 -0.0660 -0.2462
   34MOL   C10016006   2.839   2.357   2.288  0.0953  0.5737 -0.7585
   34MOL   C10116007   2.851   2.272   2.172  0.1004  0.3066 -0.0532
   34MOL   C10216008   2.940   2.302   2.070 -0.4021 -0.1150  0.4327
   34MOL   C10316009   3.017   2.424   2.079 -0.6041 -1.1860  0.3507
   34MOL   S10416010   2.735   2.312   2.427  0.0963 -0.3492 -0.1041
   34MOL   O10516011   2.616   2.237   2.380  0.0936  0.2182  0.1897
   34MOL   O10616012   2.709   2.434   2.500 -0.2089  0.1427  0.1531
   34MOL   C10716013   2.836   2.200   2.527 -0.6046 -0.5956  0.3746
   34MOL   C10816014   2.791   2.071   2.545 -0.1601 -0.1414 -0.5215
   34MOL   C10916015   2.866   1.987   2.634  0.0185  0.4434  0.0204
   34MOL   C11016016   2.991   2.027   2.689 -0.5453 -0.1283  0.4831
   34MOL   C11116017   3.040   2.157   2.661  0.5466  0.3388  0.6843
   34MOL   C11216018   2.954   2.243   2.592  0.8268 -0.6625  0.3801
   34MOL   O11316019   3.069   1.952   2.764  0.1462  0.0879 -0.2656
   34MOL   H11416020   3.034   2.612   2.183  2.6138 -0.8545  0.7371
   34MOL   H11516021   2.867   2.548   2.371 -0.9293 -0.8189 -0.1258
   34MOL   H11616022   2.802   2.176   2.182  1.6421 -0.2091  3.2866
   34MOL   H11716023   2.961   2.244   1.981 -0.9581  0.7468 -0.2749
   34MOL   H11816024   2.695   2.043   2.504 -0.9544  1.1000  0.4706
   34MOL   H11916025   2.823   1.888   2.646 -1.8354  0.7357 -3.5499
   34MOL   H12016026   3.129   2.193   2.712 -1.4150  1.2992  3.5636
   34MOL   H12116027   2.981   2.346   2.571  1.0253 -0.9375 -0.7595
   34MOL   C12216028   3.041   1.722   2.830  0.3816 -0.6911 -0.4408
   34MOL   C12316029   3.086   1.593   2.810  0.1201 -0.4209  1.0987
   34MOL   C12416030   3.160   1.557   2.689 -0.9343  0.6111  0.0609
   34MOL   C12516031   3.178   1.648   2.589 -0.3888  0.1158  0.2266
   34MOL   C12616032   3.143   1.782   2.620  0.2741  0.6860  0.4827
   34MOL   C12716033   3.075   1.817   2.736  0.3632 -0.1558 -0.1456
   34MOL   S12816034   3.211   1.379   2.669  0.3463  0.3772 -0.3902
   34MOL   O12916035   3.243   1.353   2.530  0.0837 -0.3842 -0.1887
   34MOL   O13016036   3.104   1.298   2.731  0.0723 -0.2086  0.1652
   34MOL   C13116037   3.360   1.355   2.772  0.3108  0.1411  0.1615
   34MOL   C13216038   3.482   1.361   2.706 -0.3712  0.5855  0.4877
   34MOL   C13316039   3.595   1.362   2.778 -0.1164  0.4483  0.2901
   34MOL   C13416040   3.595   1.369   2.917  0.3860 -0.0074  0.0729
   34MOL   C13516041   3.467   1.369   2.980 -0.3480  0.4855 -0.3883
   34MOL   C13616042   3.345   1.363   2.912 -0.1915 -0.0954  0.1003
   34MOL   O13716043   3.715   1.368   2.983  0.2390  0.0212  0.7655
   34MOL   H13816044   2.996   1.754   2.922 -0.6703 -2.6362 -0.2458
   34MOL   H13916045   3.077   1.513   2.882 -0.9061 -1.0746  0.2570
   34MOL   H14016046   3.232   1.615   2.501  2.0748  1.1714  1.3168
   34MOL   H14116047   3.176   1.853   2.546 -0.4740  2.0515  1.4399
   34MOL   H14216048   3.488   1.356   2.598 -0.4880 -3.5707  0.5800
   34MOL   H14316049   3.694   1.373   2.737  1.2215  0.0627  3.2679
   34MOL   H14416050   3.473   1.362   3.088  0.8458 -2.2229 -0.5911
   34MOL   H14516051   3.247   1.358   2.957  0.1356 -1.2774  0.7005
   34MOL   C14616052   3.738   1.433   3.212 -0.1405 -0.4087 -0.4283
   34MOL   C14716053   3.737   1.526   3.317  0.2793 -0.2339  0.6012
   34MOL   C14816054   3.733   1.662   3.283  0.2173 -0.0084  0.5085
   34MOL   C14916055   3.701   1.700   3.152  0.1646  0.1767  0.0051
   34MOL   C15016056   3.703   1.608   3.042  0.4889 -0.8594 -0.1069
   34MOL   C15116057   3.722   1.472   3.076  1.2955  0.5148  0.7002
   34MOL   S15216058   3.762   1.791   3.411 -0.1953  0.1308 -0.2983
   34MOL   O15316059   3.745   1.729   3.546  0.6702 -0.2427 -0.2299
   34MOL   O15416060   3.673   1.908   3.387  0.8012  0.2681  0.7837
   34MOL   C15516061   3.927   1.844   3.382 -0.2526  0.0626 -0.0958
   34MOL   C15616062   3.960   1.915   3.262  0.9742 -0.4883 -0.2641
   34MOL   C15716063   4.085   1.975   3.246 -0.5541 -0.2508 -0.0794
   34MOL   C15816064   4.184   1.959   3.349 -0.5530 -0.5516  0.4891
   34MOL   C15916065   4.152   1.890   3.469  0.0244  0.2378 -0.1272
   34MOL   C16016066   4.025   1.822   3.485  0.2635 -0.9934  0.0572
   34MOL   O16116067   4.304   2.019   3.337  0.0370 -0.0884  0.1366
   34MOL   H16216068   3.764   1.329   3.223  1.7509 -0.3644 -3.6509
   34MOL   H16316069   3.741   1.501   3.422 -4.4408 -0.7547  0.7803
   34MOL   H16416070   3.681   1.804   3.132  1.2326  1.3007  4.2149
   34MOL   H16516071   3.680   1.642   2.943  0.4267 -0.3221  0.0909
   34MOL   H16616072   3.883   1.926   3.187  0.6728 -1.4757 -0.1207
   34MOL   H16716073   4.114   2.041   3.166  0.4634  2.7923  2.6889
   34MOL   H16816074   4.227   1.880   3.546  1.6970  3.8977 -1.1739
   34MOL   H16916075   4.001   1.760   3.569 -0.0021 -2.5173 -1.1196
   34MOL   C17016076   4.415   1.838   3.232 -0.3954  0.9878  0.2427
   34MOL   C17116077   4.491   1.781   3.128  0.0443 -0.4422 -0.2028
   34MOL   C17216078   4.539   1.873   3.036 -0.6136  0.0305 -0.3262
   34MOL   C17316079   4.520   2.011   3.035  0.0516  0.0249 -0.2026
   34MOL   C17416080   4.440   2.058   3.140 -1.0916  0.0724 -0.2841
   34MOL   C17516081   4.382   1.974   3.233 -0.4250  0.1999 -0.1766
   34MOL   S17616082   4.633   1.788   2.917  0.2440 -0.0035  0.0099
   34MOL   O17716083   4.562   1.661   2.897 -0.1289  0.3050  0.5896
   34MOL   O17816084   4.772   1.778   2.955 -0.2063 -0.1959 -0.5756
   34MOL   C17916085   4.631   1.885   2.765  0.5894  0.2210  0.5305
   34MOL   C18016086   4.514   1.891   2.689 -0.3128 -0.5907 -0.9284
   34MOL   C18116087   4.512   1.956   2.566 -0.0071 -0.0053 -0.2372
   34MOL   C18216088   4.633   2.013   2.517 -0.3406  0.1026  0.2060
   34MOL   C18316089   4.750   2.002   2.590  0.4850  0.8509  0.3689
   34MOL   C18416090   4.751   1.935   2.711  0.6579 -0.0246  0.1182
   34MOL   O18516091   4.632   2.060   2.389  0.3781  0.0390 -0.0685
   34MOL   H18616092   4.368   1.773   3.305 -0.7395 -0.3855 -1.1663
   34MOL   H18716093   4.513   1.676   3.120  0.6761 -0.1323 -2.8244
   34MOL   H18816094   4.564   2.074   2.960 -1.4368  1.0860 -0.2078
   34MOL   H18916095   4.405   2.159   3.132 -2.0740 -0.3559 -1.4840
   34MOL   H19016096   4.423   1.848   2.727  0.9452 -1.4248  1.1920
   34MOL   H19116097   4.422   1.955   2.507 -1.5542  1.1031  2.0361
   34MOL   H19216098   4.834   2.051   2.543  0.4016  0.7326  0.0952
   34MOL   H19316099   4.847   1.919   2.757 -0.4628  0.0672  2.5679
   34MOL   C19416100   4.556   1.876   2.244 -0.3508  0.0388  0.0554
   34MOL   C19516101   4.579   1.790   2.134  0.1585  0.1688 -0.2349
   34MOL   C19616102   4.709   1.788   2.073 -0.1179  0.0409 -0.3997
   34MOL   C19716103   4.804   1.887   2.108 -0.2566 -0.0811  0.3333
   34MOL   C19816104   4.780   1.977   2.209  0.6600 -0.0088  0.6049
   34MOL   C19916105   4.658   1.971   2.285  0.6595  0.1004 -0.3031
   34MOL   S20016106   4.744   1.681   1.932  0.2358  0.1319 -0.1594
   34MOL   O20116107   4.623   1.677   1.847 -0.1258  0.3048 -0.5776
   34MOL   O20216108   4.797   1.557   1.992  0.0698  0.3684 -0.0922
   34MOL   C20316109   4.877   1.764   1.832  0.5270 -0.2466 -0.2512
   34MOL   C20416110   5.007   1.765   1.886  0.3774  0.3374 -0.4652
   34MOL   C20516111   5.112   1.817   1.804 -0.2911  0.2317 -0.1130
   34MOL   C20616112   5.088   1.857   1.671 -0.9908  0.5921 -0.4675
   34MOL   C20716113   4.961   1.837   1.622 -0.0764 -0.1093  0.2523
   34MOL   C20816114   4.850   1.810   1.705 -1.0511  0.8004 -0.5562
   34MOL   O20916115   5.192   1.904   1.602  0.2856  0.4703  0.3198
   34MOL   H21016116   4.459   1.874   2.292  0.3409  0.4113  1.5078
   34MOL   H21116117   4.501   1.727   2.094  0.4313 -0.5882  0.4206
   34MOL   H21216118   4.894   1.911   2.053  0.0923 -0.5344  0.6971
   34MOL   H21316119   4.857   2.048   2.236 -0.7058  2.1132 -0.8818
   34MOL   H21416120   5.026   1.721   1.982  0.4272 -0.2541 -0.7434
   34MOL   H21516121   5.214   1.809   1.839 -0.0760 -0.6395 -0.9135
   34MOL   H21616122   4.948   1.842   1.515 -1.7006  0.1466  0.4542
   34MOL   H21716123   4.759   1.787   1.652 -0.5305 -0.6377 -0.8705
   34MOL   C21816124   5.357   2.075   1.634  0.4916  0.5228  0.5413
   34MOL   C21916125   5.386   2.210   1.631  0.2029 -0.6179  0.2971
   34MOL   C22016126   5.283   2.307   1.629  0.2659  0.4812 -0.4512
   34MOL   C22116127   5.147   2.267   1.610 -0.3357 -0.0443  0.4771
   34MOL   C22216128   5.121   2.131   1.586 -0.0107 -0.0974  0.6802
   34MOL   C22316129   5.222   2.036   1.609 -0.0833  0.0807 -0.2049
   34MOL   S22416130   5.323   2.483   1.625  0.5137 -0.1927  0.6631
   34MOL   O22516131   5.282   2.528   1.492 -0.4729  0.6103 -0.1917
   34MOL   O22616132   5.457   2.511   1.671  0.0285 -0.8523 -1.3884
   34MOL   C22716133   5.203   2.540   1.750 -0.2020  0.1889 -0.7645
   34MOL   C22816134   5.222   2.507   1.887  0.0603  0.0180  0.3506
   34MOL   C22916135   5.130   2.546   1.984 -0.0840  0.6437 -0.6793
   34MOL   C23016136   5.024   2.630   1.950  0.1965 -0.2467  0.1299
   34MOL   C23116137   5.006   2.667   1.819 -0.2036  1.0224  0.2374
   34MOL   C23216138   5.094   2.626   1.718  0.3203  0.3002 -0.2314
   34MOL   O23316139   4.946   2.674   2.051  0.2619 -0.7359 -0.4028
   34MOL   H23416140   5.430   1.996   1.651 -0.4232 -0.4751 -0.0831
   34MOL   H23516141   5.490   2.239   1.624 -0.4358  1.8161  0.4776
   34MOL   H23616142   5.073   2.346   1.601 -1.0009 -0.5560  1.3884
   34MOL   H23716143   5.022   2.100   1.555 -0.0455 -0.9207  1.5995
   34MOL   H23816144   5.304   2.440   1.907  0.2449 -0.4265 -1.7911
   34MOL   H23916145   5.148   2.528   2.088 -1.8264 -3.8355 -1.0736
   34MOL   H24016146   4.926   2.733   1.787  0.8559  2.1324 -0.1262
   34MOL   H24116147   5.078   2.654   1.615 -1.7852 -2.0966 -0.5974
   34MOL   C24216148   4.894   2.910   2.055  0.1487  0.2490  0.4164
   34MOL   C24316149   4.916   3.036   2.105 -0.7828 -0.0081 -0.4784
   34MOL   C24416150   5.021   3.052   2.205  0.3098  0.1774  0.3250
   34MOL   C24516151   5.097   2.942   2.251 -0.1455  0.0355 -0.3081
   34MOL   C24616152   5.082   2.818   2.187 -0.4804 -0.4771  0.0745
   34MOL   C24716153   4.973   2.802   2.095 -1.1319 -0.5014 -0.1091
   34MOL   S24816154   5.065   3.211   2.272  0.0534  0.1831  0.0809
   34MOL   O24916155   5.194   3.205   2.348 -0.2311 -0.4207  0.3377
   34MOL   O25016156   4.944   3.263   2.338 -0.4211  0.1552 -0.0159
   34MOL   C25116157   5.096   3.315   2.124  0.2519 -0.4888  0.4939
   34MOL   C25216158   5.023   3.432   2.121 -0.8810 -0.0782  0.0996
   34MOL   C25316159   5.026   3.521   2.005 -1.1347  0.0347  0.4017
   34MOL   C25416160   5.126   3.490   1.904  1.0705  0.1572  0.8659
   34MOL   C25516161   5.210   3.373   1.922  0.6320 -0.0404  0.2249
   34MOL   C25616162   5.189   3.282   2.024  0.4098 -0.4115 -0.0650
   34MOL   O25716163   5.152   3.581   1.806 -0.1184 -0.5099  0.0700
   34MOL   H25816164   4.812   2.894   1.986  0.2330  0.4184  0.2770
   34MOL   H25916165   4.854   3.119   2.073  0.5584  0.6787 -1.3330
   34MOL   H26016166   5.167   2.955   2.333 -1.1259  1.4346  0.3318
   34MOL   H26116167   5.140   2.731   2.215  0.1606 -0.4733 -1.1800
   34MOL   H26216168   4.956   3.465   2.200 -0.4470  0.9486  0.0458
   34MOL   H26316169   4.966   3.610   2.002 -0.6362  0.3241 -1.4421
   34MOL   H26416170   5.289   3.353   1.850  0.4795 -3.2033  0.8667
   34MOL   H26516171   5.248   3.191   2.027 -0.8477 -1.3091 -1.6269
   34MOL   C26616172   5.096   3.460   1.603 -0.2112  0.2547  0.0842
   34MOL   C26716173   5.016   3.451   1.482 -0.4809  0.2895  0.9006
   34MOL   C26816174   4.920   3.550   1.468  0.2497  0.6650  0.8321
   34MOL   C26916175   4.910   3.657   1.554  0.0143  0.2323 -0.0683
   34MOL   C27016176   4.981   3.669   1.672  0.5787 -0.3357 -0.2432
   34MOL   C27116177   5.077   3.567   1.694  0.1261  0.3194 -0.3869
   34MOL   S27216178   4.814   3.538   1.324 -0.1545  0.0113 -0.4458
   34MOL   O27316179   4.821   3.398   1.288  0.4252  0.0795  0.5272
   34MOL   O27416180   4.862   3.638   1.234  0.0373 -0.4490  0.5284
   34MOL   C27516181   4.648   3.580   1.385  0.0386  0.1690  0.8355
   34MOL   C27616182   4.581   3.685   1.318  0.1803  0.4232  0.6065
   34MOL   C27716183   4.445   3.717   1.352  0.2927 -0.7018  0.1081
   34MOL   C27816184   4.388   3.650   1.462 -0.6202 -0.7076 -0.2951
   34MOL   C27916185   4.455   3.544   1.529  0.4466  0.1694 -0.2951
   34MOL   C28016186   4.589   3.508   1.491 -0.0671 -0.4131  0.5967
   34MOL   O28116187   4.257   3.677   1.492  0.0126 -0.1227 -0.2686
   34MOL   H28216188   5.178   3.390   1.609 -0.1644  0.1431 -1.4636
   34MOL   H28316189   5.037   3.376   1.407  1.5614  1.3192  0.3989
   34MOL   H28416190   4.834   3.732   1.537 -0.2914 -0.5822 -2.5066
   34MOL   H28516191   4.975   3.754   1.738  0.9464  0.4555 -1.2087
   34MOL   H28616192   4.628   3.746   1.243 -0.6274 -0.5956 -0.7705
   34MOL   H28716193   4.398   3.805   1.311  1.8056  0.1376  0.1355
   34MOL   H28816194   4.398   3.494   1.606  0.1120  1.4378  0.2966
   34MOL   H28916195   4.644   3.424   1.529  1.9489  1.1989  1.3305
   34MOL   C29016196   4.062   3.552   1.524 -0.3648 -0.3864  0.5306
   34MOL   C29116197   3.967   3.465   1.471 -0.1507 -0.5593 -0.3729
   34MOL   C29216198   3.964   3.443   1.332 -0.2774  0.1560 -0.2542
   34MOL   C29316199   4.055   3.501   1.244 -0.1263  0.2065  0.2695
   34MOL   C29416200   4.155   3.581   1.294  0.2408  0.9260  0.5668
   34MOL   C29516201   4.160   3.601   1.437 -0.3740 -0.3420 -0.8663
   34MOL   S29616202   3.825   3.346   1.282  0.1503 -0.2653 -0.4951
   34MOL   O29716203   3.706   3.430   1.288  0.4830  0.3502  0.1369
   34MOL   O29816204   3.830   3.223   1.361  0.3160 -0.8933 -0.5111
   34MOL   C29916205   3.850   3.302   1.103 -0.3999 -0.6572 -0.3863
   34MOL   C30016206   3.892   3.175   1.074 -0.5294  0.6249 -0.4913
   34MOL   C30116207   3.900   3.129   0.941 -0.6339  0.2971  0.4312
   34MOL   C30216208   3.864   3.224   0.836  0.5720 -0.0247  0.3019
   34MOL   C30316209   3.820   3.353   0.869 -0.1186 -0.0621  0.7417
   34MOL   C30416210   3.816   3.397   1.008  0.1690  0.7543  0.1370
   34MOL   O30516211   3.870   3.193   0.702  0.0885  0.2683 -0.3145
   34MOL   H30616212   4.075   3.576   1.629  0.2674  3.2672 -0.3208
   34MOL   H30716213   3.889   3.427   1.534 -1.1727  0.9009 -0.7230
   34MOL   H30816214   4.047   3.477   1.139  0.0075 -3.6391  1.0712
   34MOL   H30916215   4.236   3.610   1.229 -1.5889  1.8588 -1.3708
   34MOL   H31016216   3.929   3.118   1.158 -0.8184 -0.3768 -1.0276
   34MOL   H31116217   3.931   3.028   0.923  0.0808  0.6010 -0.0869
   34MOL   H31216218   3.807   3.428   0.792  3.3654 -0.0075  0.1270
   34MOL   H31316219   3.810   3.498   1.046 -0.4198  1.1350 -0.9408
   34MOL   C31416220   3.842   2.962   0.653  0.5111 -0.1997  0.4115
   34MOL   C31516221   3.761   2.863   0.596  0.5027  0.6343  0.5371
   34MOL   C31616222   3.623   2.891   0.569 -0.4142  0.1051  0.1403
   34MOL   C31716223   3.574   3.023   0.578  0.4142 -0.4676  0.8458
   34MOL   C31816224   3.661   3.123   0.619  0.3513  0.1471  0.1910
   34MOL   C31916225   3.791   3.092   0.662  0.3399  0.2926  0.1299
   34MOL   S32016226   3.510   2.763   0.511  0.2008 -0.6174 -0.1521
   34MOL   O32116227   3.377   2.826   0.482  0.9180 -0.1581  0.1416
   34MOL   O32216228   3.510   2.653   0.612  0.2236  0.0037 -0.1016
   34MOL   C32316229   3.580   2.696   0.358 -0.1881  0.1253 -0.5336
   34MOL   C32416230   3.677   2.591   0.388 -0.1603  0.2336  0.0376
   34MOL   C32516231   3.739   2.524   0.278 -0.1780 -0.2700 -0.7213
   34MOL   C32616232   3.688   2.548   0.149  0.0357  0.1208  0.4293
   34MOL   C32716233   3.589   2.645   0.127 -0.3771 -0.4929  0.8894
   34MOL   C32816234   3.535   2.720   0.231  0.0127 -0.6924 -1.0147
   34MOL   O32916235   3.737   2.469   0.043 -0.3387  0.1329 -0.1612
   34MOL   H33016236   3.945   2.939   0.676  0.5687 -0.0485  0.3008
   34MOL   H33116237   3.803   2.765   0.581 -1.0013  0.3656 -2.2907
   34MOL   H33216238   3.474   3.047   0.544  0.5918 -0.9265 -0.0348
   34MOL   H33316239   3.621   3.224   0.624 -0.0369  0.1832 -2.6959
   34MOL   H33416240   3.711   2.572   0.488  0.3710 -0.6177 -0.3081
   34MOL   H33516241   3.814   2.450   0.301 -0.1475  0.1209  0.4599
   34MOL   H33616242   3.571   2.670   0.024  0.2949 -1.5472  0.5067
   34MOL   H33716243   3.467   2.800   0.204 -1.5385 -0.6196  2.7837
   34MOL   C33816244   3.557   2.436   8.297  1.1364  0.0380  0.5902
   34MOL   C33916245   3.439   2.373   8.255  0.0640  0.6111  0.1348
   34MOL   C34016246   3.398   2.265   8.337  0.0747 -0.2408  0.7425
   34MOL   C34116247   3.488   2.207   0.005  0.3199 -0.6958  0.4235
   34MOL   C34216248   3.613   2.271   0.031 -0.1982  0.5773 -0.7679
   34MOL   C34316249   3.641   2.393   8.400 -0.1248  0.5303 -0.2257
   34MOL   S34416250   3.243   2.178   8.313 -0.1664  0.2014  0.0108
   34MOL   O34516251   3.273   2.032   8.305  0.6117  0.1262  0.4257
   34MOL   O34616252   3.182   2.244   8.195  0.3598 -0.0243  0.1755
   34MOL   C34716253   3.140   2.204   0.030  0.0394  0.0081 -0.3528
   34MOL   C34816254   3.032   2.109   0.058  0.5278 -0.5139  0.9808
   34MOL   C34916255   2.930   2.152   0.155 -1.2024  0.2358  0.8505
   34MOL   C35016256   2.956   2.273   0.230 -0.4479  0.2563 -0.5368
   34MOL   C35116257   3.073   2.356   0.205  0.4419  0.6381 -0.5330
   34MOL   C35216258   3.160   2.325   0.100  0.0738 -0.2708 -0.4944
   34MOL   O35316259   2.865   2.291   0.333  0.3449  0.4221 -0.2134
   34MOL   H35416260   3.594   2.522   8.243  1.2851  1.4070  2.8209
   34MOL   H35516261   3.385   2.414   8.171 -0.4766  2.0177  1.1458
   34MOL   H35616262   3.457   2.126   0.068  2.9731 -1.3567  0.9666
   34MOL   H35716263   3.675   2.232   0.111 -0.0621 -0.5364 -1.4128
   34MOL   H35816264   3.027   2.014   0.007  0.4807  0.1785 -0.3107
   34MOL   H35916265   2.843   2.089   0.166 -0.4364 -1.1278 -0.7817
   34MOL   H36016266   3.082   2.445   0.264 -0.7734 -0.1614  0.9100
   34MOL   H36116267   3.242   2.392   0.081  0.1368 -0.4331 -0.7874
   34MOL   C36216268   2.831   2.503   0.438  1.7583  0.1042 -0.0992
   34MOL   C36316269   2.775   2.634   0.440 -0.0231  0.0458  0.2590
   34MOL   C36416270   2.690   2.666   0.330  0.2182  0.2334  0.4485
   34MOL   C36516271   2.658   2.575   0.226  0.3190 -0.5074 -0.7104
   34MOL   C36616272   2.718   2.451   0.224  0.4303  0.3319 -0.7323
   34MOL   C36716273   2.803   2.413   0.335  0.4580  0.0655  0.2670
   34MOL   S36816274   2.644   2.843   0.325  0.1626 -0.2527 -0.0704
   34MOL   O36916275   2.589   2.887   0.454 -0.5283 -0.0537 -0.5257
   34MOL   O37016276   2.552   2.864   0.211 -0.1293 -0.0961  0.0807
   34MOL   C37116277   2.796   2.933   0.300 -0.2815  0.2137 -0.4085
   34MOL   C37216278   2.921   2.879   0.252  0.4298  0.5389  0.2167
   34MOL   C37316279   3.034   2.958   0.247  0.1488 -0.0528  0.2955
   34MOL   C37416280   3.033   3.084   0.306  0.0611  0.6854  0.2845
   34MOL   C37516281   2.916   3.136   0.357 -0.3694 -0.1003  0.4028
   34MOL   C37616282   2.794   3.065   0.353  0.1637 -0.6880  0.1861
   34MOL   O37716283   3.150   3.162   0.310 -0.5910 -0.0996 -0.4873
   34MOL   H37816284   2.891   2.468   0.521 -2.2466 -1.2240  2.3959
   34MOL   H37916285   2.790   2.707   0.519 -0.2621  1.9323 -1.4056
   34MOL   H38016286   2.598   2.614   0.146 -1.3171 -0.8904  0.3198
   34MOL   H38116287   2.707   2.386   0.138  0.9122  0.5618 -0.9691
   34MOL   H38216288   2.929   2.778   0.215  3.4712  0.8397 -0.0903
   34MOL   H38316289   3.121   2.916   0.198 -0.0971 -2.0468  1.5100
   34MOL   H38416290   2.927   3.237   0.395  0.0278  0.3687 -0.8863
   34MOL   H38516291   2.705   3.109   0.396  0.6207 -0.4655  0.9188
   34MOL   C38616292   3.146   3.277   0.107 -0.3592  0.0586 -0.2325
   34MOL   C38716293   3.201   3.317   8.410 -0.4514 -0.2754 -0.5787
   34MOL   C38816294   3.320   3.259   8.375 -0.8337  0.2906 -0.0307
   34MOL   C38916295   3.399   3.172   0.033 -0.0838 -0.0199 -1.0173
   34MOL   C39016296   3.341   3.142   0.160 -0.5497 -0.1407  0.2514
   34MOL   C39116297   3.211   3.185   0.193  0.0708  0.6328 -0.2735
   34MOL   S39216298   3.382   3.285   8.206  0.1738 -0.3826 -0.2534
   34MOL   O39316299   3.345   3.424   8.169  0.3927 -0.3318 -0.3213
   34MOL   O39416300   3.340   3.170   8.118 -0.3190  0.0816 -0.1239
   34MOL   C39516301   3.560   3.273   8.212  0.5186  0.0242  0.2599
   34MOL   C39616302   3.634   3.181   8.138 -0.2098  0.0232 -0.6034
   34MOL   C39716303   3.773   3.169   8.152  0.0040 -0.4262  0.0329
   34MOL   C39816304   3.847   3.256   8.239 -0.2082  0.2626  0.5038
   34MOL   C39916305   3.777   3.357   8.307  0.2117 -0.5321 -0.0454
   34MOL   C40016306   3.638   3.366   8.292  0.1051  0.4091  0.0776
   34MOL   O40116307   3.980   3.243   8.267  0.2325 -0.5787 -0.2396
   34MOL   H40216308   3.056   3.320   0.147  1.2634  1.1065  2.5011
   34MOL   H40316309   3.153   3.372   8.330 -1.8621 -2.3691 -1.1983
   34MOL   H40416310   3.484   3.117   8.421  0.0334  1.5208 -3.1070
   34MOL   H40516311   3.396   3.086   0.234  0.0427  0.0531 -0.0431
   34MOL   H40616312   3.585   3.117   8.066  0.4170  0.5388 -1.4880
   34MOL   H40716313   3.820   3.083   8.108  0.2859  0.1578 -0.8268
   34MOL   H40816314   3.833   3.434   8.358 -1.2226  1.1958 -1.0277
   34MOL   H40916315   3.582   3.441   8.347  1.4149  0.7144  1.0046
   34MOL   C41016316   4.120   3.442   8.232  0.0332 -0.4514  0.5831
   34MOL   C41116317   4.222   3.498   8.152 -0.2353 -0.3401  0.4064
   34MOL   C41216318   4.268   3.428   8.033  0.4151 -0.1987  0.4025
   34MOL   C41316319   4.213   3.306   7.995 -0.5135 -0.0272 -0.2147
   34MOL   C41416320   4.108   3.250   8.070 -0.2795  0.4528 -0.5362
   34MOL   C41516321   4.065   3.313   8.188 -0.7429 -0.2593  0.3493
   34MOL   S41616322   4.372   3.519   7.917 -0.0250  0.0464 -0.2529
   34MOL   O41716323   4.424   3.432   7.809 -0.2288  0.8315  0.6290
   34MOL   O41816324   4.472   3.594   7.994  0.0472  0.3307 -0.1535
   34MOL   C41916325   4.272   3.644   7.827 -0.6733 -0.8484 -0.4122
   34MOL   C42016326   4.287   3.664   7.689 -0.6090 -0.5309 -0.2339
   34MOL   C42116327   4.218   3.770   7.625 -0.5766 -0.6083 -0.3042
   34MOL   C42216328   4.119   3.847   7.698 -0.4785  0.6990  0.4411
   34MOL   C42316329   4.101   3.813   7.832  0.3411  0.5413 -0.3484
   34MOL   C42416330   4.175   3.715   7.898 -0.3707  0.2707 -0.3634
   34MOL   O42516331   4.039   3.948   7.645 -0.0017  0.4288 -0.3040
   34MOL   H42616332   4.080   3.482   8.324  1.9025 -0.3485  1.3844
   34MOL   H42716333   4.271   3.592   8.171  0.3710 -0.3185 -1.1438
   34MOL   H42816334   4.250   3.260   7.905 -4.1225 -1.1250 -1.2253
   34MOL   H42916335   4.059   3.161   8.035  3.2712 -0.6711 -2.9246
   34MOL   H43016336   4.355   3.607   7.628  0.8551  1.1196 -0.1656
   34MOL   H43116337   4.243   3.776   7.521 -1.5145 -2.0134 -0.6339
   34MOL   H43216338   4.035   3.857   7.905  1.0049  1.0533 -0.0577
   34MOL   H43316339   4.152   3.702   8.002 -0.2230 -0.6871 -0.4479
   34MOL   C43416340   4.189   4.068   7.506 -0.8116  0.2591 -0.2397
   34MOL   C43516341   4.223   4.120   7.379  0.1994  0.0299 -0.0181
   34MOL   C43616342   4.142   4.086   7.264  0.3998 -0.8731  0.2869
   34MOL   C43716343   4.030   4.002   7.286  0.6092 -0.3838 -0.2672
   34MOL   C43816344   3.992   3.965   7.419 -0.1122  0.4015 -0.3620
   34MOL   C43916345   4.072   3.993   7.526 -0.1037  1.2016  0.6162
   34MOL   S44016346   4.184   4.160   7.107 -0.1967  0.3771  0.1341
   34MOL   O44116347   4.307   4.106   7.051  0.2740  0.1894 -0.6503
   34MOL   O44216348   4.172   4.305   7.130  0.7898 -0.3716  0.2769
   34MOL   C44316349   4.051   4.118   6.992 -0.5186 -0.8520  0.6994
   34MOL   C44416350   4.053   3.992   6.937 -0.6283 -0.8569  0.2649
   34MOL   C44516351   3.960   3.954   6.837  0.3316  0.2369  0.3067
   34MOL   C44616352   3.858   4.046   6.802 -0.7203 -0.2385  0.1230
   34MOL   C44716353   3.856   4.174   6.857  0.0366 -0.0886  0.1189
   34MOL   C44816354   3.953   4.216   6.955  0.7491 -0.5692 -0.3611
   34MOL   O44916355   3.773   4.001   6.705 -0.0763  0.0031 -0.1931
   34MOL   H45016356   4.247   4.095   7.594  0.2397 -1.9367 -0.2089
   34MOL   H45116357   4.315   4.176   7.366 -1.0573  2.0090 -0.5446
   34MOL   H45216358   3.970   3.961   7.206  0.3570  0.1238 -0.3332
   34MOL   H45316359   3.905   3.908   7.449  0.7013 -0.9688 -0.5490
   34MOL   H45416360   4.135   3.924   6.953 -0.1019 -0.7423 -1.8114
   34MOL   H45516361   3.971   3.854   6.800 -0.4300 -0.6035  2.3089
   34MOL   H45616362   3.777   4.238   6.820  0.7282  0.2754 -0.7473
   34MOL   H45716363   3.944   4.313   7.002 -0.4924 -0.9414  0.1781
   34MOL   C45816364   3.693   3.963   6.484 -0.3959 -0.4870 -0.3669
   34MOL   C45916365   3.674   4.012   6.351 -0.4014 -0.5718  0.2230
   34MOL   C46016366   3.722   4.137   6.312 -0.0841  0.1500  0.3341
   34MOL   C46116367   3.788   4.221   6.409 -0.4381  0.3489  0.0162
   34MOL   C46216368   3.810   4.174   6.539  0.7021 -0.7853  0.0601
   34MOL   C46316369   3.768   4.046   6.579 -0.0579 -0.3667  0.9353
   34MOL   S46416370   3.704   4.190   6.143 -0.3369 -0.2851  0.0420
   34MOL   O46516371   3.582   4.132   6.087  0.6418  0.4963  0.4836
   34MOL   O46616372   3.841   4.174   6.076 -0.7579  0.6074  0.8702
   34MOL   C46716373   3.666   4.371   6.154 -0.3607  0.3654  0.1293
   34MOL   C46816374   3.762   4.470   6.145  0.3809  0.1471 -0.2326
   34MOL   C46916375   3.726   4.607   6.153  0.4210 -0.5849 -0.1333
   34MOL   C47016376   3.592   4.645   6.172  0.6687  0.0212  0.6178
   34MOL   C47116377   3.491   4.547   6.193 -0.3553 -0.1363  0.5959
   34MOL   C47216378   3.532   4.415   6.181 -0.8170  0.3906 -0.2257
   34MOL   O47316379   3.561   4.774   6.187 -0.2468 -0.7142  0.0561
   34MOL   H47416380   3.666   3.862   6.511 -0.9421  0.4362  2.8154
   34MOL   H47516381   3.616   3.950   6.284 -2.9611  2.4983 -0.4941
   34MOL   H47616382   3.809   4.324   6.386  0.4684 -0.0729 -1.0407
   34MOL   H47716383   3.859   4.229   6.618 -1.4252  0.6851  0.3889
   34MOL   H47816384   3.866   4.439   6.142  0.2591 -0.3206  0.1829
   34MOL   H47916385   3.804   4.681   6.153 -0.4923  0.3893  0.1664
   34MOL   H48016386   3.395   4.586   6.223 -0.3859 -0.9841  1.6354
   34MOL   H48116387   3.453   4.342   6.192 -0.0658 -0.2037  1.3834
   34MOL   H48216388   3.469   4.792   6.182  0.1576  1.3430 -0.4111
   35MOL     C116389   5.689   4.583   7.899  0.1264  0.1883  0.5585
   35MOL     C216390   5.725   4.560   8.036  0.2025 -0.4010 -0.2634
   35MOL     C316391   5.865   4.539   8.062  0.6076 -0.3696 -0.2935
   35MOL     C416392   5.962   4.546   7.959  0.2523 -0.2765 -0.1177
   35MOL     C516393   5.920   4.558   7.823  0.3921  0.1328  0.2053
   35MOL     C616394   5.782   4.573   7.794  0.3978  0.4474 -0.2660
   35MOL     S716395   5.925   4.525   8.229  0.5432 -0.1329  0.0914
   35MOL     O816396   5.890   4.651   8.299 -0.0499 -0.2434 -0.1385
   35MOL     O916397   6.067   4.487   8.234  0.6509  0.1641  0.2444
   35MOL    C1016398   5.837   4.386   8.300 -0.0968  0.4908 -0.4530
   35MOL    C1116399   5.845   4.260   8.236  0.3407 -0.2796 -0.5613
   35MOL    C1216400   5.778   4.146   8.287  0.1687 -0.1121 -0.7567
   35MOL    C1316401   5.703   4.154   8.413 -0.5471 -0.2168 -0.0080
   35MOL    C1416402   5.698   4.285   0.048  0.4194  0.3765 -0.3661
   35MOL    C1516403   5.762   4.401   8.415 -0.5187  0.7226  0.5932
   35MOL    O1616404   5.641   4.043   0.052  0.0790 -0.3639  0.6666
   35MOL    H1716405   5.584   4.594   7.877  0.2060 -2.2799 -1.3129
   35MOL    H1816406   5.645   4.552   8.108 -0.8099 -1.4995 -1.4850
   35MOL    H1916407   6.061   4.580   7.985  1.0829 -0.0108 -3.4344
   35MOL    H2016408   6.003   4.577   7.755 -0.3342  1.7541 -0.2688
   35MOL    H2116409   5.885   4.255   8.136 -0.1645  1.5199 -0.8815
   35MOL    H2216410   5.771   4.051   8.237  0.0709  0.1763 -1.2877
   35MOL    H2316411   5.642   4.299   0.140 -0.2842  0.5898 -0.8187
   35MOL    H2416412   5.747   4.500   0.029  1.0589  1.5762 -0.8705
   35MOL    H2516413   5.751   4.591   7.692 -0.1317  1.0307 -0.0021
   35MOL    C2616414   5.667   3.810   0.035 -0.0090 -0.9229  0.5053
   35MOL    C2716415   5.751   3.696   0.038  0.1166  0.0398 -0.7475
   35MOL    C2816416   5.887   3.710   0.071 -0.2130 -0.0726 -0.3280
   35MOL    C2916417   5.938   3.839   0.116 -0.3610  0.1864  0.8137
   35MOL    C3016418   5.854   3.952   0.110 -0.1731 -0.3720 -0.2315
   35MOL    C3116419   5.720   3.939   0.069  0.3770  0.1044  0.0513
   35MOL    S3216420   5.982   3.559   0.091  0.4312  0.6863  0.0714
   35MOL    O3316421   6.122   3.594   0.080  1.0514  0.1382 -0.1033
   35MOL    O3416422   5.926   3.457   0.004  0.5763  0.1017  0.3505
   35MOL    C3516423   5.960   3.517   0.260  0.0635  0.4521  0.9734
   35MOL    C3616424   5.832   3.463   0.294 -0.3655  0.2328 -0.1930
   35MOL    C3716425   5.816   3.402   0.414 -0.0793 -0.5006 -0.9930
   35MOL    C3816426   5.921   3.411   0.510  0.8453  0.2327  0.2007
   35MOL    C3916427   6.039   3.472   0.479  0.4952 -0.1928  0.2618
   35MOL    C4016428   6.064   3.519   0.357  0.4847 -0.5775  0.5424
   35MOL    O4116429   5.895   3.367   0.643  0.5689 -0.1267  0.0056
   35MOL    H4216430   5.563   3.814   0.005  0.4908  1.9605 -1.0740
   35MOL    H4316431   5.710   3.602   0.005  1.8602 -1.0197  0.0941
   35MOL    H4416432   6.042   3.836   0.146  0.0528 -1.9136 -0.7282
   35MOL    H4516433   5.900   4.045   0.142  0.6108 -0.8709  0.1261
   35MOL    H4616434   5.752   3.456   0.221 -1.0079 -0.0456  0.5327
   35MOL    H4716435   5.723   3.353   0.439 -0.7397  1.3590  0.2707
   35MOL    H4816436   6.113   3.469   0.558  0.9456  1.3757 -0.0845
   35MOL    H4916437   6.161   3.560   0.334  0.8597 -1.8144 -0.1303
   35MOL    C5016438   6.000   3.169   0.731 -0.3787 -0.6715 -0.5851
   35MOL    C5116439   6.001   3.043   0.779  0.5256 -0.0879 -0.6802
   35MOL    C5216440   5.886   2.964   0.755  0.3178 -0.2367 -0.4349
   35MOL    C5316441   5.774   3.020   0.685  0.0167  0.3613  0.6582
   35MOL    C5416442   5.774   3.159   0.648  0.0169 -0.2627  0.8786
   35MOL    C5516443   5.891   3.234   0.669  0.2315  0.1025 -0.3432
   35MOL    S5616444   5.883   2.787   0.774  0.2113 -0.1032 -0.2406
   35MOL    O5716445   6.025   2.749   0.789  0.2624  0.1094 -0.1885
   35MOL    O5816446   5.791   2.723   0.679 -0.1790 -0.2036  0.1329
   35MOL    C5916447   5.801   2.764   0.937  0.0297 -0.3359 -0.3178
   35MOL    C6016448   5.673   2.819   0.965  0.0681  0.0918  0.4352
   35MOL    C6116449   5.606   2.779   1.076 -0.3447  1.2525  0.2663
   35MOL    C6216450   5.663   2.691   1.180 -0.2897  0.1739  1.5460
   35MOL    C6316451   5.792   2.642   1.156  0.8862 -0.6678 -0.9679
   35MOL    C6416452   5.861   2.680   1.037  0.0057  0.5562 -0.3544
   35MOL    O6516453   5.593   2.660   1.294  0.1459  0.1324 -0.0984
   35MOL    H6616454   6.090   3.227   0.748 -1.2414  0.5891 -0.2276
   35MOL    H6716455   6.093   3.006   0.823  0.8927  0.8577 -0.6545
   35MOL    H6816456   5.683   2.973   0.651 -0.2373 -0.2815  2.1955
   35MOL    H6916457   5.688   3.207   0.605  1.3465  1.2062 -0.2416
   35MOL    H7016458   5.620   2.886   0.899  0.8192  0.5442  0.2928
   35MOL    H7116459   5.510   2.822   1.098 -1.0386  0.1876 -0.5889
   35MOL    H7216460   5.844   2.587   1.234  0.3631  1.4809  0.9376
   35MOL    H7316461   5.959   2.637   1.023 -1.0774 -2.2447  0.4714
   35MOL    C7416462   5.435   2.828   1.366  0.2938  0.5725  0.6111
   35MOL    C7516463   5.410   2.939   1.450 -0.4399 -0.1325 -0.4973
   35MOL    C7616464   5.506   2.984   1.541 -0.1740  0.0204 -0.5413
   35MOL    C7716465   5.627   2.916   1.560  0.1177  0.9806  0.1973
   35MOL    C7816466   5.660   2.805   1.480  0.0065  0.2784  0.0872
   35MOL    C7916467   5.563   2.761   1.381 -0.1783 -0.1395 -0.0592
   35MOL    S8016468   5.470   3.122   1.654  0.3370  0.1030  0.1114
   35MOL    O8116469   5.339   3.179   1.615 -0.1381  0.1086  0.2106
   35MOL    O8216470   5.590   3.213   1.651 -0.3031  0.4081 -0.5431
   35MOL    C8316471   5.454   3.054   1.816  0.5825 -0.2947  0.1035
   35MOL    C8416472   5.389   2.931   1.833 -0.0027  0.7398 -1.0669
   35MOL    C8516473   5.379   2.880   1.961  0.5685 -0.4382 -0.1251
   35MOL    C8616474   5.433   2.949   2.073 -0.8919 -0.0763 -0.3847
   35MOL    C8716475   5.505   3.064   2.057  0.7616 -0.7077 -0.4795
   35MOL    C8816476   5.516   3.122   1.928  0.6830 -0.6456  0.4823
   35MOL    O8916477   5.413   2.900   2.204  0.3398 -0.4900  0.1923
   35MOL    H9016478   5.351   2.800   1.304 -0.6315  1.7745  1.2921
   35MOL    H9116479   5.319   2.995   1.434 -1.1046 -1.2797 -0.7351
   35MOL    H9216480   5.700   2.959   1.626  0.3277  0.4101  0.3371
   35MOL    H9316481   5.758   2.760   1.482 -0.4976 -0.9177 -1.2261
   35MOL    H9416482   5.343   2.879   1.750 -0.5753 -0.0986 -0.2337
   35MOL    H9516483   5.306   2.804   1.985  2.2965 -1.7531  1.1148
   35MOL    H9616484   5.553   3.118   2.137  1.9334 -1.0520 -0.9471
   35MOL    H9716485   5.569   3.214   1.908 -1.4063  0.5375  0.3183
   35MOL    C9816486   5.463   2.666   2.212  0.0277 -0.4997  0.7304
   35MOL    C9916487   5.534   2.563   2.274 -0.7012 -0.0031 -0.2991
   35MOL   C10016488   5.636   2.581   2.376  0.6733  1.1775  0.1412
   35MOL   C10116489   5.653   2.712   2.416 -0.0466  0.3333 -0.2061
   35MOL   C10216490   5.588   2.819   2.352 -0.9207  0.5686  0.2551
   35MOL   C10316491   5.489   2.801   2.247  0.1814  0.3127 -0.5322
   35MOL   S10416492   5.726   2.445   2.447 -0.1617  0.2229  0.1395
   35MOL   O10516493   5.634   2.328   2.456 -0.3060 -0.5603  0.1226
   35MOL   O10616494   5.797   2.497   2.565  0.0739  0.4438 -0.3261
   35MOL   C10716495   5.844   2.406   2.317  0.7411  0.6972 -0.1731
   35MOL   C10816496   5.889   2.481   2.208  0.1080 -0.3777 -0.0113
   35MOL   C10916497   5.987   2.426   2.118 -0.5687  0.0387 -0.4320
   35MOL   C11016498   6.038   2.298   2.140 -0.0492 -0.1230  0.2808
   35MOL   C11116499   6.001   2.222   2.252 -0.2540 -0.2609  0.8188
   35MOL   C11216500   5.904   2.277   2.339 -0.2186 -0.2195 -0.2827
   35MOL   O11316501   6.131   2.254   2.048  0.7192 -0.0969  0.2817
   35MOL   H11416502   5.390   2.641   2.137  1.4875 -2.3957 -0.1150
   35MOL   H11516503   5.505   2.460   2.256 -1.9403  0.3224 -0.1850
   35MOL   H11616504   5.730   2.719   2.491 -0.6026 -2.4192  0.6792
   35MOL   H11716505   5.611   2.919   2.384  0.7283  0.0604  0.7086
   35MOL   H11816506   5.837   2.574   2.189  2.2624  0.8328 -0.2178
   35MOL   H11916507   6.012   2.486   2.032  1.4832  2.0282  1.4978
   35MOL   H12016508   6.049   2.128   2.275  1.2307  0.1915 -0.3532
   35MOL   H12116509   5.877   2.215   2.423  0.1460  0.2171  0.1568
   35MOL   C12216510   6.169   2.019   1.988  0.2383  0.3734  0.1760
   35MOL   C12316511   6.114   1.903   1.921  0.2581 -0.7378  1.0564
   35MOL   C12416512   5.993   1.908   1.843  0.4592 -0.4759 -0.0393
   35MOL   C12516513   5.926   2.029   1.833  0.0705  1.0649 -0.5205
   35MOL   C12616514   5.977   2.145   1.896  0.1206  1.1370 -0.4487
   35MOL   C12716515   6.092   2.135   1.980 -0.1400 -0.4086  0.4893
   35MOL   S12816516   5.934   1.756   1.756 -0.0620 -0.2987  0.3175
   35MOL   O12916517   5.803   1.783   1.702  0.7606  0.4435  0.2246
   35MOL   O13016518   5.960   1.643   1.848 -0.4943 -0.0611  0.2772
   35MOL   C13116519   6.050   1.741   1.619  0.3335 -0.0346  0.6006
   35MOL   C13216520   6.135   1.626   1.611  0.0583  0.3576 -0.7909
   35MOL   C13316521   6.235   1.625   1.511  0.0241  0.2437 -0.3831
   35MOL   C13416522   6.224   1.716   1.401 -0.1908  0.2540 -0.2172
   35MOL   C13516523   6.133   1.824   1.400  0.0384  0.4983  0.8676
   35MOL   C13616524   6.053   1.841   1.516 -0.0419  0.1463  0.2364
   35MOL   O13716525   6.328   1.716   1.309 -0.2360 -0.0949 -0.2108
   35MOL   H13816526   6.258   2.014   2.048  0.6271  0.0930 -0.4177
   35MOL   H13916527   6.166   1.809   1.928 -0.4742 -1.2572 -0.4146
   35MOL   H14016528   5.843   2.029   1.764 -1.4352 -0.4068  1.2554
   35MOL   H14116529   5.910   2.229   1.883 -2.8739 -1.4199 -2.4606
   35MOL   H14216530   6.133   1.552   1.689  0.8554  2.4188  1.2383
   35MOL   H14316531   6.308   1.545   1.501 -0.2202 -0.0495  0.1349
   35MOL   H14416532   6.127   1.891   1.316 -3.8219  0.3866  0.9753
   35MOL   H14516533   5.994   1.931   1.522  1.2431  1.0706 -0.4936
   35MOL   C14616534   6.397   1.733   1.081 -0.4913 -0.6306 -0.3827
   35MOL   C14716535   6.384   1.696   0.943 -0.6307 -0.2558  0.2112
   35MOL   C14816536   6.286   1.605   0.906  0.5250 -0.2051 -0.1017
   35MOL   C14916537   6.202   1.545   1.000 -0.6485  0.4773  0.2505
   35MOL   C15016538   6.215   1.580   1.136  0.2532  0.6848 -0.5313
   35MOL   C15116539   6.305   1.685   1.176 -0.7989  0.0206  0.1184
   35MOL   S15216540   6.271   1.539   0.734  0.0043  0.2352 -0.5259
   35MOL   O15316541   6.127   1.506   0.715 -0.3950 -0.1986  0.0077
   35MOL   O15416542   6.375   1.435   0.722 -0.5196  0.1664 -0.3954
   35MOL   C15516543   6.313   1.677   0.628  0.1654 -0.7177 -0.0357
   35MOL   C15616544   6.244   1.802   0.641  0.0113  0.3928 -0.0988
   35MOL   C15716545   6.275   1.915   0.560  0.1733 -0.5627 -0.6150
   35MOL   C15816546   6.360   1.897   0.451 -0.4277  0.5650  0.1394
   35MOL   C15916547   6.430   1.775   0.434  0.1345  0.5182 -0.3104
   35MOL   C16016548   6.405   1.662   0.519 -0.1985 -0.2761 -0.2713
   35MOL   O16116549   6.390   1.988   0.350 -0.0515  0.2962 -0.0365
   35MOL   H16216550   6.478   1.795   1.117 -1.4236 -0.3454  1.2463
   35MOL   H16316551   6.457   1.726   0.870 -2.5017  0.1757 -1.5157
   35MOL   H16416552   6.132   1.466   0.976  0.5260 -0.3277 -0.6337
   35MOL   H16516553   6.146   1.532   1.204  2.0418 -1.1357  0.0372
   35MOL   H16616554   6.170   1.810   0.719  0.6195 -0.4164  0.5705
   35MOL   H16716555   6.228   2.011   0.576  2.4716  0.6539 -0.8967
   35MOL   H16816556   6.503   1.769   0.356 -0.2937 -0.0210 -0.6773
   35MOL   H16916557   6.464   1.571   0.512  1.4152  0.7030  0.4587
   35MOL   C17016558   6.435   2.198   0.471 -0.3551 -0.3375 -0.2584
   35MOL   C17116559   6.407   2.338   0.485  0.1458  0.2494  0.2335
   35MOL   C17216560   6.289   2.391   0.424 -0.6545 -0.0567  0.8220
   35MOL   C17316561   6.208   2.308   0.346 -0.1519 -0.1433 -0.0646
   35MOL   C17416562   6.248   2.173   0.320  0.6163  0.1113 -0.0186
   35MOL   C17516563   6.361   2.120   0.380  0.2307 -0.1785 -0.4378
   35MOL   S17616564   6.234   2.561   0.435  0.0397 -0.4776  0.3220
   35MOL   O17716565   6.306   2.626   0.544 -0.2098 -0.6815 -0.2542
   35MOL   O17816566   6.087   2.559   0.436  0.2744 -0.2306 -0.0581
   35MOL   C17916567   6.281   2.648   0.280  0.6015 -0.6449  0.2128
   35MOL   C18016568   6.348   2.774   0.282  0.1331  0.3957  0.0857
   35MOL   C18116569   6.418   2.826   0.172 -0.6094 -0.2256  0.1918
   35MOL   C18216570   6.427   2.744   0.056 -0.0674 -0.2799  0.3892
   35MOL   C18316571   6.348   2.628   0.046  0.8704 -0.2216 -0.2650
   35MOL   C18416572   6.280   2.572   0.158  0.1175 -0.0745  0.7829
   35MOL   O18516573   6.512   2.789   8.384  0.2732  0.2784  0.4577
   35MOL   H18616574   6.527   2.163   0.515 -0.5557  0.4366  0.7789
   35MOL   H18716575   6.473   2.396   0.548 -2.3414  2.0444  1.2771
   35MOL   H18816576   6.112   2.348   0.317 -0.2316  0.3308  0.8236
   35MOL   H18916577   6.179   2.119   0.256 -0.7138  1.3178  0.3674
   35MOL   H19016578   6.371   2.830   0.371  0.9533  1.2416 -0.6504
   35MOL   H19116579   6.481   2.914   0.180 -1.3815  0.2915  0.5471
   35MOL   H19216580   6.341   2.578   8.375  0.2616  1.0716 -0.9106
   35MOL   H19316581   6.236   2.476   0.138  1.3844 -1.1099  2.8132
   35MOL   C19416582   6.679   2.620   8.397  0.5321 -0.1343 -0.6930
   35MOL   C19516583   6.813   2.579   8.402 -0.1312 -0.2528 -0.0496
   35MOL   C19616584   6.914   2.679   8.409  0.1132 -0.2519 -0.4059
   35MOL   C19716585   6.876   2.812   8.417 -0.3012 -0.3211 -0.2371
   35MOL   C19816586   6.739   2.860   8.407  0.5092  0.1211 -0.1044
   35MOL   C19916587   6.641   2.757   8.397 -0.5493 -0.5148 -0.6611
   35MOL   S20016588   7.085   2.633   8.380  0.5216  0.0092  0.4441
   35MOL   O20116589   7.091   2.600   8.234 -0.0104  0.0897 -0.7314
   35MOL   O20216590   7.115   2.527   0.049 -0.3326 -0.2506  0.1055
   35MOL   C20316591   7.189   2.776   8.395  0.7499  0.3927  0.6972
   35MOL   C20416592   7.255   2.803   0.093 -0.0602 -0.5909 -0.1477
   35MOL   C20516593   7.345   2.912   0.098 -0.2504 -0.9401 -0.7000
   35MOL   C20616594   7.384   2.980   8.408 -0.5148 -0.0545 -0.3459
   35MOL   C20716595   7.326   2.944   8.289  0.0059  1.3364 -0.2032
   35MOL   C20816596   7.233   2.843   8.279 -0.3403  0.0953  0.5667
   35MOL   O20916597   7.478   3.086   8.420 -0.0566 -0.1306  0.0450
   35MOL   H21016598   6.608   2.538   8.389 -0.2769  0.0834  3.1718
   35MOL   H21116599   6.842   2.475   8.401 -1.7389 -0.7123 -1.1005
   35MOL   H21216600   6.952   2.888   8.407 -0.4170 -0.5278 -3.1222
   35MOL   H21316601   6.725   2.967   8.401  1.2253  0.1674 -1.1466
   35MOL   H21416602   7.224   2.749   0.181  1.9950 -1.0322  0.3293
   35MOL   H21516603   7.392   2.946   0.189 -1.8331  0.0540 -0.2246
   35MOL   H21616604   7.362   2.991   8.199 -0.2673  0.0777 -0.9736
   35MOL   H21716605   7.200   2.812   8.180 -1.3040  1.7810  0.3411
   35MOL   C21816606   7.672   3.116   0.123 -0.4190  0.5961 -0.4471
   35MOL   C21916607   7.807   3.087   0.151  0.4153  0.2715 -0.6929
   35MOL   C22016608   7.877   2.988   0.080 -0.5302  0.3025 -1.0104
   35MOL   C22116609   7.806   2.917   8.405  0.0227 -0.2522  0.3401
   35MOL   C22216610   7.670   2.945   8.380  0.0055 -0.5321  0.4517
   35MOL   C22316611   7.604   3.051   0.025  0.6624  0.8761  0.2438
   35MOL   S22416612   8.050   2.966   0.103  0.1672  0.2135  0.0046
   35MOL   O22516613   8.083   2.825   0.077  0.2799 -0.3647 -0.4062
   35MOL   O22616614   8.072   3.022   0.236 -0.1862  0.1137 -0.0126
   35MOL   C22716615   8.127   3.081   8.406 -0.7610 -0.1991  0.4534
   35MOL   C22816616   8.212   3.028   8.303 -0.0025 -0.5767 -0.6403
   35MOL   C22916617   8.279   3.113   8.211 -0.1146 -1.1103 -0.3436
   35MOL   C23016618   8.251   3.254   8.219  0.2672  0.7625 -0.5307
   35MOL   C23116619   8.160   3.297   8.314 -0.4224 -0.9687  0.7527
   35MOL   C23216620   8.106   3.217   8.417  0.1465 -0.7215  0.2104
   35MOL   O23316621   8.297   3.344   8.127 -0.1215 -0.3130  0.5485
   35MOL   H23416622   7.629   3.199   0.178  0.0623 -0.2644  1.2926
   35MOL   H23516623   7.850   3.149   0.228  1.0148  0.2131 -0.9834
   35MOL   H23616624   7.860   2.840   8.352 -0.0570 -1.3626  1.8545
   35MOL   H23716625   7.627   2.880   8.306  2.4797  0.3911 -1.8810
   35MOL   H23816626   8.213   2.920   8.296 -0.7153 -0.7338  1.3735
   35MOL   H23916627   8.329   3.066   8.128 -2.8359 -0.9234 -2.1793
   35MOL   H24016628   8.144   3.403   8.315  0.1098 -0.8934  1.3589
   35MOL   H24116629   8.045   3.239   0.079 -1.4979 -2.4671 -0.4591
   35MOL   C24216630   8.220   3.298   7.912 -0.0852  0.0020 -0.0063
   35MOL   C24316631   8.240   3.263   7.776 -0.4512 -0.0904 -0.0258
   35MOL   C24416632   8.374   3.233   7.732  0.5959 -0.1337 -0.0673
   35MOL   C24516633   0.057   3.243   7.826 -0.1954 -0.3042 -0.1378
   35MOL   C24616634   0.031   3.280   7.959 -0.5794 -0.2824 -0.4975
   35MOL   C24716635   8.327   3.312   8.000 -0.0429  0.0778 -0.2753
   35MOL   S24816636   8.407   3.200   7.557  0.0382  0.5667 -0.1766
   35MOL   O24916637   0.093   3.287   7.517  0.0055  0.1945  0.3792
   35MOL   O25016638   8.279   3.208   7.486 -0.3602  0.0444  0.2907
   35MOL   C25116639   0.035   3.031   7.565 -0.1194 -0.5935 -0.3980
   35MOL   C25216640   8.363   2.937   7.610  0.0906 -0.6808  0.0573
   35MOL   C25316641   8.407   2.803   7.626  1.0519 -0.5542  0.0614
   35MOL   C25416642   0.118   2.764   7.608 -0.4149 -0.1997 -0.0018
   35MOL   C25516643   0.213   2.860   7.570  0.4499 -0.4321 -0.6470
   35MOL   C25616644   0.174   2.997   7.550 -0.0378  0.1875 -0.5182
   35MOL   O25716645   0.151   2.631   7.634 -0.2356 -0.8289  0.1875
   35MOL   H25816646   8.121   3.328   7.942  0.2155 -0.2097  1.2025
   35MOL   H25916647   8.171   3.271   7.694  0.6477 -1.2162 -1.0847
   35MOL   H26016648   0.157   3.220   7.794 -0.0497  1.2053 -0.7876
   35MOL   H26116649   0.101   3.273   8.040 -1.5106  0.2780  0.3821
   35MOL   H26216650   8.260   2.964   7.632  0.7343  1.7612  0.1984
   35MOL   H26316651   8.341   2.730   7.669 -1.2286  0.9466 -0.8335
   35MOL   H26416652   0.316   2.836   7.548  0.1145 -1.8368 -0.7143
   35MOL   H26516653   0.245   3.068   7.511 -0.2930  0.2561 -0.8677
   35MOL   C26616654   0.023   2.478   7.501 -0.3844  0.0055  1.0700
   35MOL   C26716655   0.006   2.392   7.392 -0.0466 -0.3105 -0.0602
   35MOL   C26816656   0.115   2.369   7.306  0.1493 -0.0766  0.6969
   35MOL   C26916657   0.240   2.428   7.336  0.8849  0.9278 -0.1681
   35MOL   C27016658   0.255   2.519   7.445 -0.2354 -0.6217  0.5514
   35MOL   C27116659   0.143   2.546   7.530  0.3030 -0.7907 -0.4893
   35MOL   S27216660   0.079   2.275   7.159 -0.0513  0.7304  0.0784
   35MOL   O27316661   0.183   2.298   7.065 -0.3626 -0.0858  0.1435
   35MOL   O27416662   8.360   2.301   7.126  0.3269 -0.4352  0.0767
   35MOL   C27516663   0.095   2.100   7.208  1.0944 -0.0468 -0.0094
   35MOL   C27616664   0.182   2.070   7.315  0.6345  0.7153 -0.3826
   35MOL   C27716665   0.181   1.936   7.366 -0.4711 -0.1587  0.1832
   35MOL   C27816666   0.086   1.841   7.311  0.1530  0.1817  0.2677
   35MOL   C27916667   0.010   1.871   7.199  0.4865  0.1513  0.3910
   35MOL   C28016668   0.014   2.002   7.145 -0.6740  0.3686 -0.2416
   35MOL   O28116669   0.074   1.724   7.377 -0.0304 -0.2201 -0.3056
   35MOL   H28216670   8.355   2.498   7.552 -0.9184  1.5896 -0.4703
   35MOL   H28316671   8.333   2.351   7.372 -0.2494  0.1070  0.0648
   35MOL   H28416672   0.326   2.431   7.271  0.1852 -3.7291 -1.5170
   35MOL   H28516673   0.354   2.558   7.459 -0.9515  0.9771  1.3063
   35MOL   H28616674   0.257   2.134   7.360  0.2821  1.1390 -0.3899
   35MOL   H28716675   0.239   1.911   7.453 -0.9057  1.8181  1.0548
   35MOL   H28816676   8.376   1.796   7.148  0.4410  2.0556 -2.4451
   35MOL   H28916677   8.381   2.024   7.056 -0.8476  0.6512 -0.0602
   35MOL   C29016678   8.295   1.720   7.505 -0.1184  0.1026 -0.5350
   35MOL   C29116679   8.159   1.672   7.518 -0.3955  0.2524 -0.7950
   35MOL   C29216680   8.108   1.584   7.420  1.1783 -0.8488 -0.7053
   35MOL   C29316681   8.185   1.546   7.308  0.3690  0.1417 -0.4704
   35MOL   C29416682   8.315   1.594   7.295  0.1274 -0.4174 -0.3063
   35MOL   C29516683   8.374   1.674   7.396 -0.0408  0.4077 -0.5089
   35MOL   S29616684   7.938   1.521   7.438 -0.6464  0.0033  0.2203
   35MOL   O29716685   7.943   1.444   7.564 -0.4204  0.1050  0.1926
   35MOL   O29816686   7.894   1.458   7.312 -0.1270  0.4861 -0.2580
   35MOL   C29916687   7.832   1.660   7.472  0.0419  1.1068  0.6164
   35MOL   C30016688   7.798   1.693   7.607  0.4031  0.6803  0.1545
   35MOL   C30116689   7.685   1.771   7.625 -0.4922 -0.2471  0.0208
   35MOL   C30216690   7.620   1.838   7.522  0.4760  0.6904 -0.0265
   35MOL   C30316691   7.668   1.823   7.394 -0.3218  0.0945 -0.3131
   35MOL   C30416692   7.770   1.731   7.369 -0.4443 -0.1216 -0.0208
   35MOL   O30516693   7.506   1.913   7.548 -0.1830 -0.8631 -0.4798
   35MOL   H30616694   8.329   1.789   7.581 -1.2525  1.6961 -1.4430
   35MOL   H30716695   8.111   1.699   7.611 -0.0524 -0.6134 -0.3616
   35MOL   H30816696   8.142   1.488   7.228  1.7726 -0.0588 -1.0996
   35MOL   H30916697   8.379   1.566   7.213 -1.2628 -1.6362 -0.9818
   35MOL   H31016698   7.847   1.649   7.693  1.9491 -0.8741 -1.4744
   35MOL   H31116699   7.651   1.782   7.727 -1.4155 -0.6675 -0.2328
   35MOL   H31216700   7.626   1.875   7.309 -3.1682  0.7122  1.4386
   35MOL   H31316701   7.815   1.723   7.272  4.4279  0.7457  1.9979
   35MOL   C31416702   7.312   1.841   7.432 -0.0746  0.5103  0.5390
   35MOL   C31516703   7.190   1.774   7.443 -0.0825  0.1754  0.4682
   35MOL   C31616704   7.146   1.708   7.559  0.4361  0.8537 -0.0632
   35MOL   C31716705   7.224   1.722   7.674 -0.4788 -0.1840  0.8349
   35MOL   C31816706   7.351   1.781   7.673  0.4467 -0.2505 -0.1575
   35MOL   C31916707   7.387   1.847   7.552  0.4756  0.3121 -0.6180
   35MOL   S32016708   6.998   1.608   7.569 -0.0581  0.1739 -0.2509
   35MOL   O32116709   6.924   1.673   7.682 -0.3815 -0.2154  0.1521
   35MOL   O32216710   7.054   1.475   7.587 -0.1355  0.0284 -0.0813
   35MOL   C32316711   6.899   1.610   7.419 -0.5052  0.6153  0.3165
   35MOL   C32416712   6.792   1.696   7.405 -0.1089 -0.2867  0.4840
   35MOL   C32516713   6.714   1.700   7.281  0.1581 -0.4330  0.6370
   35MOL   C32616714   6.770   1.628   7.175  0.0423  0.1069 -0.0967
   35MOL   C32716715   6.873   1.538   7.189  0.8118 -0.0105  0.3345
   35MOL   C32816716   6.940   1.531   7.309 -0.7514  0.4732 -0.7028
   35MOL   O32916717   6.718   1.650   7.051 -0.4028 -0.0603  0.4682
   35MOL   H33016718   7.350   1.878   7.339 -0.8805 -1.1680 -0.4809
   35MOL   H33116719   7.122   1.775   7.359 -1.6975  1.2201  1.7330
   35MOL   H33216720   7.183   1.676   7.762  0.3929 -1.4457  0.6067
   35MOL   H33316721   7.403   1.800   7.766  0.9909 -0.4326 -0.4284
   35MOL   H33416722   6.752   1.750   7.489  0.4865 -0.2196  0.7223
   35MOL   H33516723   6.634   1.772   7.269 -0.2966 -1.0644 -0.2181
   35MOL   H33616724   6.901   1.484   7.099 -0.3711 -2.0407  1.1516
   35MOL   H33716725   7.018   1.459   7.328 -1.1706 -0.1655 -1.4005
   35MOL   C33816726   6.726   1.750   6.847 -0.0948  0.1125 -1.3055
   35MOL   C33916727   6.788   1.836   6.753 -0.1106 -0.2267  0.4444
   35MOL   C34016728   6.904   1.903   6.782 -0.5525 -0.0190  0.1860
   35MOL   C34116729   6.961   1.896   6.910  0.1211 -0.7174 -0.1025
   35MOL   C34216730   6.909   1.804   7.002  0.3393 -0.0683 -0.2436
   35MOL   C34316731   6.782   1.738   6.970  0.3161  0.4145  0.1078
   35MOL   S34416732   6.990   2.003   6.669  0.2189  0.2722  0.0786
   35MOL   O34516733   7.066   2.107   6.739  0.2605 -0.3513 -0.1399
   35MOL   O34616734   6.907   2.044   6.554 -0.6342  0.1277 -0.2390
   35MOL   C34716735   7.124   1.899   6.601  0.2681 -0.0896 -0.7554
   35MOL   C34816736   7.155   1.918   6.466 -0.0244 -0.3025 -0.2519
   35MOL   C34916737   7.247   1.836   6.407 -0.0942  0.3324 -0.1925
   35MOL   C35016738   7.315   1.736   6.482  0.4594  0.4703 -0.7271
   35MOL   C35116739   7.276   1.709   6.615  0.0386 -0.7720 -0.4111
   35MOL   C35216740   7.181   1.795   6.680 -0.3363  0.6968  0.4622
   35MOL   O35316741   7.415   1.653   6.432  0.2360 -0.9255 -0.5391
   35MOL   H35416742   6.629   1.711   6.820  0.6595 -2.8834  0.0817
   35MOL   H35516743   6.742   1.868   6.661 -0.1645  0.2194  0.6208
   35MOL   H35616744   7.063   1.926   6.930  0.1472 -0.4567 -0.6367
   35MOL   H35716745   6.961   1.785   7.095  0.2867  2.5956  0.3937
   35MOL   H35816746   7.111   1.994   6.402 -1.4555  0.5793  1.7153
   35MOL   H35916747   7.278   1.840   6.304  0.1671  0.3470 -0.1146
   35MOL   H36016748   7.314   1.624   6.669 -1.5988 -2.6777 -2.1645
   35MOL   H36116749   7.144   1.770   6.778  1.4756 -3.0915  0.2896
   35MOL   C36216750   7.618   1.762   6.372  0.6635  0.3246 -0.1132
   35MOL   C36316751   7.698   1.817   6.277 -0.6277  0.3873 -0.1190
   35MOL   C36416752   7.661   1.804   6.134 -1.0137  0.4688 -0.6261
   35MOL   C36516753   7.543   1.739   6.095  0.6706 -0.7753  0.1139
   35MOL   C36616754   7.460   1.682   6.195  0.4752 -0.2106 -0.5175
   35MOL   C36716755   7.500   1.691   6.333 -0.0918 -0.3461  0.1451
   35MOL   S36816756   7.753   1.891   6.007 -0.3677  0.6003 -0.2629
   35MOL   O36916757   7.689   1.854   5.883  0.0327  0.0853  0.3025
   35MOL   O37016758   7.900   1.877   6.022 -0.1288 -0.4202 -0.7959
   35MOL   C37116759   7.717   2.068   6.047  0.9399 -0.2246 -0.3502
   35MOL   C37216760   7.812   2.146   6.116  0.3309 -0.4488 -0.3252
   35MOL   C37316761   7.775   2.279   6.162 -0.0429  0.3695  0.3425
   35MOL   C37416762   7.647   2.327   6.132  0.0230 -0.5865  0.7014
   35MOL   C37516763   7.568   2.259   6.044  0.5010  0.1030 -0.1830
   35MOL   C37616764   7.598   2.126   6.005  0.1183 -0.1158 -0.0892
   35MOL   O37716765   7.614   2.452   6.175  0.1496  0.1494  0.4704
   35MOL   H37816766   7.650   1.770   6.475 -0.0950 -2.9027  0.4211
   35MOL   H37916767   7.787   1.872   6.305 -0.6278  1.2373 -1.7234
   35MOL   H38016768   7.512   1.745   5.992 -1.0160 -0.3832  0.6249
   35MOL   H38116769   7.365   1.640   6.165  0.3219  2.2967 -3.7541
   35MOL   H38216770   7.909   2.101   6.135 -0.7697 -2.4273  0.7824
   35MOL   H38316771   7.844   2.339   6.219  0.1675  1.4905 -1.0684
   35MOL   H38416772   7.471   2.287   6.005  1.5565  1.3274 -1.9996
   35MOL   H38516773   7.529   2.061   5.952 -1.2286  1.3710 -0.1761
   35MOL   C38616774   7.497   2.656   6.110  0.0512 -0.8611  0.0748
   35MOL   C38716775   7.465   2.753   6.013 -0.4726  0.2150 -0.2216
   35MOL   C38816776   7.529   2.743   5.890  0.2800  0.4627  0.5080
   35MOL   C38916777   7.634   2.647   5.856 -0.2609  0.1525 -0.2335
   35MOL   C39016778   7.644   2.544   5.952 -0.2850 -0.2477 -0.1293
   35MOL   C39116779   7.586   2.549   6.081  1.2352 -0.6480  0.3877
   35MOL   S39216780   7.466   2.848   5.757 -0.1791  0.3403 -0.0159
   35MOL   O39316781   7.464   2.987   5.800  0.0021 -0.9330  0.4581
   35MOL   O39416782   7.345   2.786   5.700  0.0970  0.3361  0.3389
   35MOL   C39516783   7.589   2.840   5.632  0.2314  0.4193  0.0363
   35MOL   C39616784   7.719   2.893   5.659  0.6128 -0.4281  0.1815
   35MOL   C39716785   7.816   2.887   5.561  0.3042 -0.7668 -0.1386
   35MOL   C39816786   7.794   2.828   5.438 -0.6112 -0.1549 -0.1557
   35MOL   C39916787   7.661   2.778   5.407 -0.1343 -0.0219  0.0784
   35MOL   C40016788   7.562   2.790   5.504  0.1169  0.2255 -0.9183
   35MOL   O40116789   7.895   2.827   5.345 -0.0660  0.0853  0.3584
   35MOL   H40216790   7.455   2.666   6.209 -2.8264  3.8344 -1.4496
   35MOL   H40316791   7.387   2.820   6.044 -0.7281  0.5421 -1.5439
   35MOL   H40416792   7.687   2.639   5.763  0.7119 -0.0059  0.3296
   35MOL   H40516793   7.713   2.465   5.926  0.9800  1.0155 -0.6613
   35MOL   H40616794   7.745   2.940   5.753  2.4488  0.1106 -0.5628
   35MOL   H40716795   7.909   2.938   5.585  0.4784 -0.9338 -0.4591
   35MOL   H40816796   7.649   2.724   5.314  2.6157 -2.3454  1.0236
   35MOL   H40916797   7.467   2.742   5.486 -0.0271  0.1123  0.1003
   35MOL   C41016798   7.848   3.056   5.287 -0.0120 -0.1566  0.5308
   35MOL   C41116799   7.843   3.154   5.185  0.6536  0.8577  0.2275
   35MOL   C41216800   7.913   3.132   5.061 -0.5060 -0.0462 -0.2768
   35MOL   C41316801   7.976   3.012   5.039  0.5717 -0.7112  0.0781
   35MOL   C41416802   7.967   2.911   5.136  0.1025 -0.6365  0.0949
   35MOL   C41516803   7.897   2.930   5.254 -0.6897 -0.2082 -0.2608
   35MOL   S41616804   7.908   3.241   4.916  0.1481  0.0096 -0.2067
   35MOL   O41716805   7.778   3.305   4.912 -0.1681 -0.2556  0.7336
   35MOL   O41816806   7.953   3.164   4.802 -0.3239  0.5297  0.1330
   35MOL   C41916807   8.026   3.375   4.949 -0.7210  0.7828 -0.1995
   35MOL   C42016808   7.980   3.497   5.014  0.3422  0.6991  0.1317
   35MOL   C42116809   8.068   3.598   5.048  0.0417  0.8392  0.1363
   35MOL   C42216810   8.207   3.579   5.017  0.7644 -0.3192 -0.2605
   35MOL   C42316811   8.248   3.461   4.953  0.0982  0.2856  0.0124
   35MOL   C42416812   8.162   3.366   4.911  0.4821  0.7140  0.9061
   35MOL   O42516813   8.296   3.675   5.053 -0.8364 -0.3839 -0.1288
   35MOL   H42616814   7.798   3.075   5.381 -1.1586 -0.3325 -0.0324
   35MOL   H42716815   7.815   3.255   5.208 -0.9429  0.3904  0.3819
   35MOL   H42816816   8.030   2.992   4.947 -0.6957 -2.1693 -0.3658
   35MOL   H42916817   8.020   2.819   5.115  0.8254 -0.1238 -0.3479
   35MOL   H43016818   7.876   3.512   5.037 -0.1302 -0.6241 -1.1156
   35MOL   H43116819   8.030   3.688   5.094 -0.2437  1.1325 -0.6601
   35MOL   H43216820   8.356   3.454   4.945  0.0571 -1.2749  0.6339
   35MOL   H43316821   8.203   3.276   4.869 -1.0488 -0.0415  0.9984
   35MOL   C43416822   8.295   3.828   4.862 -0.2658  0.4088  0.2795
   35MOL   C43516823   8.295   3.960   4.811 -0.4001  0.5265  0.1945
   35MOL   C43616824   8.277   4.062   4.902 -0.1401 -0.9065 -0.5072
   35MOL   C43716825   8.259   4.040   5.039 -0.1942 -0.7198 -0.0742
   35MOL   C43816826   8.273   3.906   5.088 -0.1540 -0.0152  0.2284
   35MOL   C43916827   8.286   3.797   4.998  0.6515 -0.1844  0.1842
   35MOL   S44016828   8.258   4.222   4.836  0.3619  0.3174  0.1677
   35MOL   O44116829   8.283   4.220   4.689  0.5637  0.2028 -0.2569
   35MOL   O44216830   8.340   4.313   4.914  0.1710 -0.1124 -0.2239
   35MOL   C44316831   8.082   4.265   4.857 -0.1348  0.7713  0.5974
   35MOL   C44416832   7.981   4.168   4.862  0.1011  0.6433  0.2094
   35MOL   C44516833   7.849   4.205   4.891 -0.8940 -0.1371  0.2122
   35MOL   C44616834   7.820   4.339   4.909 -0.3171 -0.3794 -0.1539
   35MOL   C44716835   7.917   4.440   4.889  0.4267 -0.2757 -0.0809
   35MOL   C44816836   8.047   4.397   4.863  0.3822 -0.2569 -0.1222
   35MOL   O44916837   7.692   4.377   4.943 -0.0447  0.0845 -0.4227
   35MOL   H45016838   8.306   3.740   4.800 -3.1149 -1.0229  1.7063
   35MOL   H45116839   8.298   3.981   4.705  0.2034 -1.1027 -0.1394
   35MOL   H45216840   8.258   4.121   5.111 -0.3888 -0.9468  0.1792
   35MOL   H45316841   8.292   3.888   5.192  0.8984 -0.5539 -0.0463
   35MOL   H45416842   8.006   4.063   4.850 -0.9908  0.4170 -0.1606
   35MOL   H45516843   7.766   4.137   4.900  0.9986 -2.4182  0.9018
   35MOL   H45616844   7.894   4.545   4.902 -2.1548 -0.7050 -1.0318
   35MOL   H45716845   8.121   4.476   4.854  0.7029 -0.4635  0.6720
   35MOL   C45816846   7.764   4.393   5.179  0.6972 -0.3215  0.1599
   35MOL   C45916847   7.744   4.459   5.304 -0.0053 -0.1837 -0.1353
   35MOL   C46016848   7.657   4.569   5.315 -0.2998 -0.7210  0.2975
   35MOL   C46116849   7.584   4.604   5.201  0.1322  0.0093 -0.3326
   35MOL   C46216850   7.591   4.535   5.075 -0.3498 -1.0328 -0.5140
   35MOL   C46316851   7.683   4.431   5.066 -0.3220 -0.4647 -0.5104
   35MOL   S46416852   7.630   4.664   5.463  0.0821 -0.0342  0.0019
   35MOL   O46516853   7.558   4.784   5.418  0.4926  0.2791 -0.2076
   35MOL   O46616854   7.757   4.673   5.539  0.1073 -0.0090  0.6254
   35MOL   C46716855   7.514   4.566   5.556  0.1709  0.4086  0.3464
   35MOL   C46816856   7.553   4.456   5.641 -0.0589  0.5497  0.1423
   35MOL   C46916857   7.455   4.393   5.717 -0.5370 -0.6073 -0.4935
   35MOL   C47016858   7.318   4.420   5.700  0.3751 -0.8406 -0.7888
   35MOL   C47116859   7.281   4.527   5.617  0.1770 -0.1810  0.0074
   35MOL   C47216860   7.376   4.604   5.550 -0.0825 -0.6397 -0.4290
   35MOL   O47316861   7.222   4.360   5.775  0.7202 -0.1697  0.2248
   35MOL   H47416862   7.832   4.309   5.168 -0.2161 -0.9326 -1.0474
   35MOL   H47516863   7.802   4.426   5.389 -1.7046  0.3731  1.2736
   35MOL   H47616864   7.510   4.682   5.203 -0.5915 -0.6819  0.9272
   35MOL   H47716865   7.529   4.571   4.994 -1.8518 -2.0309  0.1675
   35MOL   H47816866   7.659   4.436   5.637  0.5421  3.3001  1.3590
   35MOL   H47916867   7.479   4.312   5.785 -0.5276 -0.3207 -0.1573
   35MOL   H48016868   7.179   4.558   5.601 -0.1021 -0.2064  1.6291
   35MOL   H48116869   7.352   4.693   5.493  3.7259  0.4672 -0.4274
   35MOL   H48216870   7.252   4.276   5.806 -0.5402 -1.3957 -1.7412
   36MOL     C116871   5.592   8.284   1.959  0.4203 -0.0710 -0.2148
   36MOL     C216872   5.514   8.325   1.848 -0.2789  0.1412 -0.3724
   36MOL     C316873   5.375   8.318   1.853  0.1498  0.0851 -0.4225
   36MOL     C416874   5.310   8.271   1.968 -0.2423 -0.1774 -0.1602
   36MOL     C516875   5.381   8.241   2.085  0.0475  0.3941 -0.4317
   36MOL     C616876   5.527   8.251   2.082  0.5181  0.1006  0.7836
   36MOL     S716877   5.279   8.370   1.712  0.1353  0.1542 -0.5579
   36MOL     O816878   5.372   0.015   1.624  0.0409  0.1842 -0.3306
   36MOL     O916879   5.160   0.019   1.753  0.0940 -0.2653  0.1455
   36MOL    C1016880   5.225   8.225   1.630 -0.3556  0.2208 -0.4465
   36MOL    C1116881   5.294   8.100   1.639 -0.2832 -0.3630 -0.3275
   36MOL    C1216882   5.231   7.997   1.567  0.1595 -0.2025 -0.5911
   36MOL    C1316883   5.106   8.003   1.505 -0.3617 -0.5111  0.1157
   36MOL    C1416884   5.041   8.126   1.500 -0.2370  0.1095  1.0500
   36MOL    C1516885   5.104   8.234   1.562 -0.2475 -0.3237  0.6387
   36MOL    O1616886   5.058   7.897   1.434  0.2568  0.2211 -0.3567
   36MOL    H1716887   5.699   8.296   1.963  0.3502  0.5389 -0.0527
   36MOL    H1816888   5.572   8.351   1.760 -0.6765 -0.9932 -0.9720
   36MOL    H1916889   5.202   8.266   1.973 -0.3069 -0.8549 -2.1286
   36MOL    H2016890   5.333   8.204   2.174 -0.2100 -2.5355 -1.6989
   36MOL    H2116891   5.393   8.097   1.682 -0.2897  1.4646 -0.1668
   36MOL    H2216892   5.292   7.908   1.561  0.9932  0.1908  1.7154
   36MOL    H2316893   4.946   8.135   1.449  0.4764  1.3344 -0.0965
   36MOL    H2416894   5.058   8.332   1.558 -1.1882 -0.7198  1.4812
   36MOL    H2516895   5.588   8.216   2.164 -1.0003 -0.6030  1.6369
   36MOL    C2616896   4.987   7.887   1.205 -0.4272  0.1404  0.1381
   36MOL    C2716897   5.023   7.864   1.067  0.0758  0.1599 -0.8876
   36MOL    C2816898   5.160   7.849   1.029  0.0641 -0.1597  0.4383
   36MOL    C2916899   5.260   7.842   1.127 -0.4317 -0.0958  0.1313
   36MOL    C3016900   5.226   7.863   1.259  0.4570 -0.0319  0.3108
   36MOL    C3116901   5.089   7.882   1.303 -0.0447 -0.3524  0.0154
   36MOL    S3216902   5.197   7.820   0.856  0.2029 -0.1571  0.1322
   36MOL    O3316903   5.085   7.741   0.803 -0.1998 -0.1419 -0.0493
   36MOL    O3416904   5.329   7.758   0.848 -0.4120 -0.4237 -0.0287
   36MOL    C3516905   5.193   7.980   0.772 -0.5188 -0.0130 -0.0911
   36MOL    C3616906   5.258   7.988   0.649  0.2841  0.2808  0.4330
   36MOL    C3716907   5.250   8.104   0.572  0.0951 -0.1136  0.2827
   36MOL    C3816908   5.163   8.207   0.611  0.4208 -0.2922  0.1549
   36MOL    C3916909   5.095   8.200   0.735 -0.4363 -0.0859  0.6841
   36MOL    C4016910   5.103   8.084   0.817  0.0849  0.0550  0.1044
   36MOL    O4116911   5.162   8.316   0.526 -0.8778 -0.0026 -0.4152
   36MOL    H4216912   4.886   7.891   1.244  0.1577 -1.3721  1.9240
   36MOL    H4316913   4.947   7.874   0.991  0.3955  1.6673 -1.0129
   36MOL    H4416914   5.362   7.832   1.093 -1.9129  0.6531 -4.9836
   36MOL    H4516915   5.304   7.856   1.333 -0.8218  2.6561  2.0305
   36MOL    H4616916   5.314   7.903   0.614 -0.6231 -0.0477 -0.2240
   36MOL    H4716917   5.314   8.105   0.485 -0.4883  0.2198 -0.1465
   36MOL    H4816918   5.025   8.277   0.764 -1.4930 -0.3611 -1.0793
   36MOL    H4916919   5.049   8.090   0.911 -0.0017 -0.1165  0.0645
   36MOL    C5016920   4.977   0.047   0.517  0.4507  0.1465  0.3276
   36MOL    C5116921   4.917   0.163   0.571 -0.1594 -0.0619 -0.5838
   36MOL    C5216922   4.984   0.237   0.672 -0.7816  0.7506 -0.3690
   36MOL    C5316923   5.110   0.204   0.724  0.9815 -0.1689  0.2251
   36MOL    C5416924   5.166   0.091   0.659  0.3061  0.0529 -0.1717
   36MOL    C5516925   5.101   0.007   0.565 -0.0674  0.1546  0.0878
   36MOL    S5616926   4.893   0.372   0.751  0.1884  0.0450  0.1269
   36MOL    O5716927   4.982   0.490   0.748  0.3351  0.0362 -0.4265
   36MOL    O5816928   4.831   0.323   0.875 -0.0664 -0.0060  0.4964
   36MOL    C5916929   4.753   0.417   0.641 -0.7727 -0.3156  0.1489
   36MOL    C6016930   4.619   0.375   0.666 -0.3957  0.1065 -0.1408
   36MOL    C6116931   4.516   0.391   0.571 -0.5923  0.7985 -0.2593
   36MOL    C6216932   4.542   0.467   0.455  0.1022 -1.0018  0.3900
   36MOL    C6316933   4.670   0.524   0.434 -0.3854 -0.6590  0.4158
   36MOL    C6416934   4.774   0.501   0.529  0.0767 -0.0971 -0.8934
   36MOL    O6516935   4.437   0.493   0.370  0.0095 -0.6537 -0.1879
   36MOL    H6616936   4.929   8.403   0.449  0.8963 -0.6752  0.8384
   36MOL    H6716937   4.822   0.195   0.528 -0.2449  1.5054  0.7407
   36MOL    H6816938   5.153   0.267   0.801 -0.6965  0.6151  0.5446
   36MOL    H6916939   5.263   0.053   0.687 -0.1391 -0.9329  0.0695
   36MOL    H7016940   4.608   0.308   0.751  0.5833  0.6412  0.4147
   36MOL    H7116941   4.415   0.358   0.592 -0.0411  0.5062  1.9816
   36MOL    H7216942   4.681   0.580   0.343  0.3912 -0.5182  0.5966
   36MOL    H7316943   4.875   0.531   0.503  0.6129  0.0627  1.2961
   36MOL    C7416944   4.429   0.277   0.263 -1.0983  0.2278 -0.6757
   36MOL    C7516945   4.363   0.169   0.206  0.1187 -0.1580 -0.7844
   36MOL    C7616946   4.221   0.172   0.195  0.0066 -0.0836 -0.1386
   36MOL    C7716947   4.155   0.282   0.249  0.3537 -0.3991  0.5851
   36MOL    C7816948   4.226   0.387   0.304  0.6373  0.5335  0.2921
   36MOL    C7916949   4.363   0.390   0.316  0.5768  0.9005  0.4554
   36MOL    S8016950   4.121   0.036   0.131  0.0436  0.2577 -0.3357
   36MOL    O8116951   4.030   0.094   0.035 -0.3251 -0.0810 -0.1553
   36MOL    O8216952   4.070   8.390   0.255  0.4000  0.1209 -0.5839
   36MOL    C8316953   4.233   8.349   0.046 -0.0314  0.1873 -0.5428
   36MOL    C8416954   4.292   8.233   0.107 -0.4051  0.4242 -0.1781
   36MOL    C8516955   4.372   8.148   0.026 -0.0136 -0.6200 -0.1613
   36MOL    C8616956   4.404   8.184   8.322 -0.1828 -0.5537  0.2744
   36MOL    C8716957   4.349   8.299   8.266 -0.1348 -0.2126 -0.8188
   36MOL    C8816958   4.265   8.384   8.339  0.5855 -0.3187  0.0440
   36MOL    O8916959   4.477   8.096   8.245 -0.1580 -0.1864  1.0503
   36MOL    H9016960   4.536   0.259   0.265 -1.2022 -0.2553  1.4932
   36MOL    H9116961   4.416   0.088   0.157 -0.6170 -0.3885 -1.2140
   36MOL    H9216962   4.048   0.285   0.233  0.5693  0.9509 -0.7501
   36MOL    H9316963   4.168   0.467   0.348 -2.4196 -0.9723 -0.7766
   36MOL    H9416964   4.266   8.206   0.208 -1.4034 -1.8270 -1.0075
   36MOL    H9516965   4.410   8.056   0.069 -0.0255 -0.0284  1.1158
   36MOL    H9616966   4.380   8.331   8.168  0.1033 -0.1574 -0.7256
   36MOL    H9716967   4.221   0.052   8.305  1.3825  0.9716  2.4402
   36MOL    C9816968   4.678   8.234   8.244  0.9316 -0.3041 -0.1301
   36MOL    C9916969   4.817   8.240   8.245 -0.1890 -0.6574 -0.0950
   36MOL   C10016970   4.894   8.119   8.246  0.0456 -0.2440  0.3313
   36MOL   C10116971   4.827   7.999   8.264 -0.7790 -0.1718  0.1829
   36MOL   C10216972   4.685   7.991   8.255  0.4090  0.0939  0.7372
   36MOL   C10316973   4.612   8.110   8.250 -0.0034 -0.0654  0.4767
   36MOL   S10416974   5.070   8.113   8.214  0.2051 -0.1285 -0.0625
   36MOL   O10516975   5.086   8.020   8.103  0.0858  0.8392 -0.2962
   36MOL   O10616976   5.140   8.106   8.344 -0.0507 -0.4196  0.3060
   36MOL   C10716977   5.091   8.282   8.156 -0.8384 -0.4763 -0.1679
   36MOL   C10816978   5.118   8.384   8.245  0.2106 -0.2964 -0.4273
   36MOL   C10916979   5.110   0.093   8.199 -0.5478 -0.1181  0.2602
   36MOL   C11016980   5.074   0.114   8.066 -0.3912  0.2991  0.9213
   36MOL   C11116981   5.058   0.011   7.971  0.0145 -0.1928 -0.3611
   36MOL   C11216982   5.064   8.307   8.020 -0.1595  0.4205 -0.0310
   36MOL   O11316983   5.024   0.236   8.039 -0.2976  0.0380  0.8260
   36MOL   H11416984   4.617   8.323   8.246 -0.5558 -1.2768 -1.1588
   36MOL   H11516985   4.851   8.343   8.242  0.8911 -0.9774  1.0519
   36MOL   H11616986   4.881   7.905   8.256 -0.1378  0.2772 -0.7528
   36MOL   H11716987   4.635   7.896   8.239  0.8068  0.3428 -2.2359
   36MOL   H11816988   5.148   8.362   8.346  0.6226 -0.3606 -0.5626
   36MOL   H11916989   5.118   0.171   8.273  3.1447 -0.1873  0.0299
   36MOL   H12016990   5.050   0.034   7.866 -0.2974  1.1254 -0.0481
   36MOL   H12116991   5.048   8.222   7.955 -0.2127 -0.8513  1.6274
   36MOL   C12216992   4.903   0.392   8.174 -0.0683 -0.5198  0.0248
   36MOL   C12316993   4.784   0.436   8.237  0.4531 -0.0770  0.9075
   36MOL   C12416994   4.671   0.354   8.235 -0.4270  0.5275 -0.1413
   36MOL   C12516995   4.673   0.232   8.161 -0.1298 -0.7422  0.2138
   36MOL   C12616996   4.790   0.200   8.088  0.0433  0.5326  0.6244
   36MOL   C12716997   4.907   0.277   8.101  0.0621  0.1939  0.6342
   36MOL   S12816998   4.518   0.411   8.312  0.1533  0.5696  0.1316
   36MOL   O12916999   4.548   0.498   0.001  0.3978 -0.0692  0.0486
   36MOL   O13017000   4.425   0.297   8.326 -0.2028  0.2344 -0.0851
   36MOL   C13117001   4.444   0.516   8.179 -0.1899 -0.2494  1.0718
   36MOL   C13217002   4.308   0.549   8.188  0.4246  0.7152 -0.7838
   36MOL   C13317003   4.252   0.632   8.097  0.3956 -0.2364  0.5904
   36MOL   C13417004   4.330   0.699   8.000  0.0110 -0.5580 -0.2208
   36MOL   C13517005   4.468   0.676   7.991 -0.1160 -0.4038 -0.3844
   36MOL   C13617006   4.527   0.588   8.084  0.1302  0.2536 -0.0327
   36MOL   O13717007   4.262   0.782   7.913  0.1278  0.7274 -0.0341
   36MOL   H13817008   4.991   0.454   8.175  0.6449 -1.4908 -0.7558
   36MOL   H13917009   4.781   0.518   8.307 -0.6384 -1.7137  2.8293
   36MOL   H14017010   4.587   0.166   8.158  0.0073 -0.9145  0.1448
   36MOL   H14117011   4.786   0.113   8.025 -1.3833  1.2343 -0.2810
   36MOL   H14217012   4.248   0.500   8.263 -0.1856  2.2479 -0.2507
   36MOL   H14317013   4.146   0.648   8.112 -0.0889  0.1743 -2.8071
   36MOL   H14417014   4.532   0.733   7.926 -1.8655  1.5714 -0.4284
   36MOL   H14517015   4.633   0.571   8.081 -0.1100 -1.1870 -1.2142
   36MOL   C14617016   4.401   0.900   7.752 -0.2265 -0.0244 -0.0465
   36MOL   C14717017   4.459   0.905   7.624  0.1022  0.4045  0.0330
   36MOL   C14817018   4.427   0.807   7.527  0.0639  0.0306  0.1501
   36MOL   C14917019   4.347   0.695   7.565  0.0466 -0.2641 -0.0004
   36MOL   C15017020   4.281   0.693   7.688  0.0176  0.6524 -0.1705
   36MOL   C15117021   4.314   0.791   7.780  0.3799  0.0322 -0.6328
   36MOL   S15217022   4.498   0.804   7.362  0.0416  0.0892 -0.0098
   36MOL   O15317023   4.469   0.938   7.311 -0.2883  0.8970 -0.7089
   36MOL   O15417024   4.446   0.683   7.296 -0.6791 -0.1478  0.4171
   36MOL   C15517025   4.674   0.784   7.379  0.0502  0.4007 -0.1081
   36MOL   C15617026   4.743   0.779   7.258 -0.2814  0.3364  0.6929
   36MOL   C15717027   4.881   0.743   7.262 -0.1692  0.5567  0.0779
   36MOL   C15817028   4.947   0.714   7.383 -0.1214 -0.4381  0.3910
   36MOL   C15917029   4.877   0.737   7.504  0.0321  0.6075  0.4537
   36MOL   C16017030   4.742   0.771   7.506  0.6620 -0.3057 -0.2845
   36MOL   O16117031   5.076   0.669   7.384 -0.0299  0.2126  0.0487
   36MOL   H16217032   4.427   0.966   7.834  1.2854  0.5250 -0.9362
   36MOL   H16317033   4.537   0.976   7.602  0.7900  0.1523  1.5872
   36MOL   H16417034   4.323   0.631   7.481  0.1341  0.3534 -0.5000
   36MOL   H16517035   4.207   0.618   7.715  0.6619  0.1825  0.3334
   36MOL   H16617036   4.681   0.792   7.170  0.9848 -0.3725 -0.3409
   36MOL   H16717037   4.939   0.723   7.172  1.4130  0.3070  1.1248
   36MOL   H16817038   4.935   0.718   7.593  1.8600  0.7452 -0.6852
   36MOL   H16917039   4.702   0.769   7.606  0.1113  2.6925 -0.4009
   36MOL   C17017040   5.185   0.880   7.419 -0.4895  0.2951  0.2072
   36MOL   C17117041   5.290   0.970   7.385 -0.0413  0.2053  0.4533
   36MOL   C17217042   5.385   0.947   7.279  0.0777 -0.8555 -0.0713
   36MOL   C17317043   5.366   0.829   7.207  0.0550 -0.3642 -0.7852
   36MOL   C17417044   5.264   0.733   7.238  0.0968 -0.1767 -0.5483
   36MOL   C17517045   5.175   0.756   7.344 -0.9474  0.6869  0.3015
   36MOL   S17617046   5.518   1.070   7.242 -0.2344 -0.0355  0.0364
   36MOL   O17717047   5.532   1.170   7.348 -0.6371 -0.5129 -0.8886
   36MOL   O17817048   5.493   1.122   7.106 -0.2352  0.1846 -0.0449
   36MOL   C17917049   5.669   0.974   7.253  0.3331  0.5258  0.3516
   36MOL   C18017050   5.781   1.005   7.175  0.0568 -0.1663  0.0653
   36MOL   C18117051   5.901   0.926   7.183  0.0727  0.8369  0.7316
   36MOL   C18217052   5.899   0.813   7.265 -0.7711 -1.0803 -0.3813
   36MOL   C18317053   5.788   0.775   7.335  0.5201 -0.8516  0.9590
   36MOL   C18417054   5.680   0.864   7.344 -0.2228 -0.0513  0.0252
   36MOL   O18517055   6.016   0.733   7.279 -0.2830 -0.1253 -0.7655
   36MOL   H18617056   5.115   0.911   7.496 -1.4674  1.0764 -0.9637
   36MOL   H18717057   5.303   1.067   7.429 -0.0552 -0.0901  1.1144
   36MOL   H18817058   5.434   0.805   7.127 -0.2540  2.3121 -1.9101
   36MOL   H18917059   5.254   0.636   7.191 -0.0508 -1.5114  2.1500
   36MOL   H19017060   5.761   1.089   7.111 -2.2026 -0.4701  0.3238
   36MOL   H19117061   5.986   0.950   7.122 -2.4203  0.8644 -2.9390
   36MOL   H19217062   5.799   0.682   7.387 -0.4182 -0.6612  1.4931
   36MOL   H19317063   5.601   0.820   7.403  1.2356 -2.5050  0.2457
   36MOL   C19417064   5.990   0.568   7.108  0.4611 -0.7323 -0.3739
   36MOL   C19517065   6.053   0.495   7.009  0.4457  0.5393 -0.5247
   36MOL   C19617066   6.189   0.514   6.973 -0.6581  0.1981  0.3226
   36MOL   C19717067   6.264   0.611   7.035  0.8325  0.1893 -0.5050
   36MOL   C19817068   6.208   0.691   7.139 -0.7432  0.0079  0.3772
   36MOL   C19917069   6.068   0.667   7.177 -0.4815 -0.3169  0.4661
   36MOL   S20017070   6.262   0.422   6.838  0.2638 -0.2720 -0.1365
   36MOL   O20117071   6.153   0.370   6.753 -0.4810  0.1540 -0.0426
   36MOL   O20217072   6.359   0.334   6.900 -0.0609 -0.4110 -0.1516
   36MOL   C20317073   6.362   0.542   6.741  0.3847 -0.9094  0.0081
   36MOL   C20417074   6.318   0.674   6.709  0.0552  0.0385  0.2337
   36MOL   C20517075   6.404   0.759   6.634  0.3094 -0.2216 -0.0025
   36MOL   C20617076   6.526   0.711   6.593 -0.0843  0.1302 -0.1203
   36MOL   C20717077   6.564   0.575   6.611 -0.2844 -0.0203  0.3336
   36MOL   C20817078   6.483   0.493   6.690 -0.2419 -0.1344 -0.9468
   36MOL   O20917079   6.609   0.789   6.521  0.2461  0.8141 -0.2093
   36MOL   H21017080   5.889   0.545   7.138  0.8524 -1.6867  0.2152
   36MOL   H21117081   5.998   0.418   6.957  1.3390  1.0309 -2.2485
   36MOL   H21217082   6.368   0.627   7.009  1.4935 -0.0024  1.9266
   36MOL   H21317083   6.262   0.768   7.192  0.3306 -0.5476  0.0869
   36MOL   H21417084   6.221   0.709   6.741 -0.4009 -0.4996 -0.5293
   36MOL   H21517085   6.373   0.861   6.616  1.7372  0.0061 -1.1797
   36MOL   H21617086   6.660   0.537   6.580  0.3544  1.4443  0.5020
   36MOL   H21717087   6.525   0.395   6.712  1.7514  0.6219 -1.2833
   36MOL   C21817088   6.788   0.951   6.505  0.3210 -0.0289 -0.2086
   36MOL   C21917089   6.882   1.039   6.556  0.0887 -0.1914 -0.6584
   36MOL   C22017090   6.892   1.046   6.696 -0.8492 -0.1313 -0.1911
   36MOL   C22117091   6.805   0.974   6.782  1.0673  0.6943  0.4972
   36MOL   C22217092   6.711   0.882   6.726  0.5744  0.2173  0.6343
   36MOL   C22317093   6.702   0.876   6.585  0.1327 -0.6487  0.2644
   36MOL   S22417094   7.007   1.152   6.771 -0.0254 -0.0308  0.1901
   36MOL   O22517095   7.141   1.105   6.734 -0.1040  0.4015 -0.9078
   36MOL   O22617096   6.971   1.174   6.913 -0.2415 -0.2329 -0.6716
   36MOL   C22717097   6.983   1.311   6.688 -0.3969 -0.7455 -0.1632
   36MOL   C22817098   6.861   1.380   6.709  1.1992  0.2474 -0.2033
   36MOL   C22917099   6.829   1.497   6.641 -0.1640 -0.9276  0.0859
   36MOL   C23017100   6.928   1.551   6.559 -0.4543 -0.8993  0.4451
   36MOL   C23117101   7.056   1.491   6.544  0.7850  0.0299 -0.5655
   36MOL   C23217102   7.085   1.374   6.615 -0.3652 -0.6497  0.8533
   36MOL   O23317103   6.903   1.668   6.488  0.6817  0.4047  0.1923
   36MOL   H23417104   6.772   0.935   6.400 -0.1063 -4.3391  0.4415
   36MOL   H23517105   6.940   1.101   6.490  0.2524 -0.2478 -0.5656
   36MOL   H23617106   6.825   0.977   6.888 -0.9492 -0.8088  0.9408
   36MOL   H23717107   6.644   0.823   6.787  0.8418 -0.9006 -0.1374
   36MOL   H23817108   6.787   1.335   6.774 -0.4033  1.2013 -1.3233
   36MOL   H23917109   6.737   1.551   6.654 -1.0199 -1.8972 -1.8065
   36MOL   H24017110   7.130   1.530   6.476  0.3397  0.1033 -1.0190
   36MOL   H24117111   7.178   1.319   6.602 -0.1085 -0.3875  1.5991
   36MOL   C24217112   6.900   1.621   6.246 -0.7072 -0.9778 -0.2585
   36MOL   C24317113   6.827   1.585   6.129  0.3868 -0.4320  0.0411
   36MOL   C24417114   6.685   1.573   6.136  0.1722  0.3237 -0.1033
   36MOL   C24517115   6.617   1.618   6.254  0.4753 -0.2792  0.8886
   36MOL   C24617116   6.696   1.655   6.365  0.0836 -0.4548 -0.0235
   36MOL   C24717117   6.834   1.655   6.367  0.1376 -0.0680  0.1389
   36MOL   S24817118   6.588   1.486   6.022 -0.0174 -0.1281 -0.0227
   36MOL   O24917119   6.481   1.576   5.994 -0.0387  0.2000 -0.1857
   36MOL   O25017120   6.564   1.347   6.062  0.3483  0.3014 -0.2165
   36MOL   C25117121   6.675   1.469   5.865 -0.7876 -0.4681  0.1531
   36MOL   C25217122   6.719   1.340   5.825 -0.4152 -0.6275 -0.1557
   36MOL   C25317123   6.798   1.328   5.706  0.0417 -0.0933  0.1275
   36MOL   C25417124   6.839   1.446   5.635  0.3549 -0.3282 -0.7124
   36MOL   C25517125   6.786   1.574   5.675 -1.1349  0.0511 -0.1158
   36MOL   C25617126   6.701   1.580   5.779  0.2773 -0.3744 -0.1915
   36MOL   O25717127   6.944   1.438   5.542  0.1082 -0.6576 -0.7685
   36MOL   H25817128   7.007   1.625   6.238 -0.7357 -0.4460 -0.3573
   36MOL   H25917129   6.873   1.556   6.036  1.5701  0.4484  0.3440
   36MOL   H26017130   6.510   1.607   6.257  0.4626 -0.3603  0.3252
   36MOL   H26117131   6.655   1.683   6.461 -1.0977 -0.4250 -0.5343
   36MOL   H26217132   6.699   1.244   5.869 -1.2922 -0.9808 -1.3159
   36MOL   H26317133   6.840   1.232   5.682 -0.5413 -0.3019 -0.0633
   36MOL   H26417134   6.801   1.667   5.622 -0.7408  0.2015  0.2484
   36MOL   H26517135   6.646   1.672   5.791  0.1408 -0.4641 -0.1283
   36MOL   C26617136   7.123   1.287   5.601 -0.0816  0.6874  0.3605
   36MOL   C26717137   7.241   1.254   5.669  0.6138  0.4222 -0.5714
   36MOL   C26817138   7.306   1.359   5.735  0.7185 -0.0271 -0.0519
   36MOL   C26917139   7.262   1.493   5.723  0.5773 -0.1496  0.0033
   36MOL   C27017140   7.146   1.524   5.652  0.3220 -0.3590  1.3416
   36MOL   C27117141   7.075   1.424   5.593 -0.0573  0.6277  0.0925
   36MOL   S27217142   7.444   1.337   5.847 -0.0085  0.3205  0.6423
   36MOL   O27317143   7.478   1.198   5.860  0.5571 -0.0106  0.3939
   36MOL   O27417144   7.421   1.418   5.970  0.2422  0.9158  0.1963
   36MOL   C27517145   7.585   1.404   5.758 -0.2601  0.4021 -0.1776
   36MOL   C27617146   7.579   1.421   5.619 -0.3127 -0.7784  0.5155
   36MOL   C27717147   7.696   1.467   5.552  0.1854 -0.2682 -0.2522
   36MOL   C27817148   7.811   1.501   5.628  0.4429 -0.9049  0.2152
   36MOL   C27917149   7.811   1.486   5.769 -0.3514  0.5326  0.3545
   36MOL   C28017150   7.698   1.438   5.838  0.0480  0.1149 -0.0022
   36MOL   O28117151   7.927   1.541   5.565 -0.1756 -0.2445 -0.1133
   36MOL   H28217152   7.062   1.220   5.543  1.1297 -0.9355  0.8893
   36MOL   H28317153   7.268   1.150   5.667  0.6683  0.4155  0.3763
   36MOL   H28417154   7.306   1.566   5.789 -0.6484  1.6376 -1.1220
   36MOL   H28517155   7.109   1.625   5.657 -0.8081 -0.7944  1.8768
   36MOL   H28617156   7.489   1.394   5.567 -0.4073  0.1835  0.1791
   36MOL   H28717157   7.693   1.472   5.444  2.3039  0.0237 -0.3300
   36MOL   H28817158   7.906   1.514   5.812  0.3743  1.1199 -1.5600
   36MOL   H28917159   7.690   1.433   5.945  0.8857 -1.7966 -0.0176
   36MOL   C29017160   7.929   1.731   5.413 -0.2230 -0.5794  0.8772
   36MOL   C29117161   7.960   1.864   5.384 -0.7510 -0.2886  0.0589
   36MOL   C29217162   7.977   1.953   5.493  0.7755  0.0151 -0.9813
   36MOL   C29317163   7.972   1.905   5.625  0.1399 -0.7433  0.5495
   36MOL   C29417164   7.955   1.770   5.647  0.5241  0.2902 -0.5070
   36MOL   C29517165   7.936   1.676   5.545 -0.2958  0.0667  0.7989
   36MOL   S29617166   7.994   2.122   5.460  0.1116  0.4305 -0.2965
   36MOL   O29717167   8.033   2.139   5.323  0.0924 -0.2551  0.1650
   36MOL   O29817168   8.068   2.188   5.564  0.0257 -0.1808 -0.0558
   36MOL   C29917169   7.826   2.185   5.474  0.2017  1.0401 -0.1337
   36MOL   C30017170   7.742   2.190   5.361 -0.3414 -0.2043  0.0713
   36MOL   C30117171   7.607   2.232   5.380 -0.1716 -0.4881  0.0439
   36MOL   C30217172   7.565   2.275   5.513 -0.2205  0.5157  0.3385
   36MOL   C30317173   7.649   2.270   5.622 -0.0595 -0.5346 -0.0818
   36MOL   C30417174   7.777   2.225   5.600 -1.3886  0.3548 -0.4556
   36MOL   O30517175   7.433   2.311   5.526 -0.3399 -0.1546  0.1060
   36MOL   H30617176   7.913   1.664   5.329  0.2518  0.1062  0.2369
   36MOL   H30717177   7.954   1.906   5.285  4.0078  1.6095  0.4200
   36MOL   H30817178   7.975   1.973   5.710 -1.3393  0.6176 -0.4668
   36MOL   H30917179   7.958   1.736   5.749 -3.4933  0.4720 -0.2409
   36MOL   H31017180   7.781   2.165   5.263 -0.3171  1.0795 -0.2577
   36MOL   H31117181   7.540   2.247   5.296  0.4886  0.3834 -0.3423
   36MOL   H31217182   7.613   2.297   5.720 -2.2714  0.0801 -1.0300
   36MOL   H31317183   7.846   2.211   5.682 -2.4015  0.2755  0.3851
   36MOL   C31417184   7.344   2.256   5.739  0.0918  0.4064 -0.3984
   36MOL   C31517185   7.291   2.164   5.835  0.8991 -0.2564 -0.0754
   36MOL   C31617186   7.244   2.040   5.778 -0.8339 -0.2190  0.1040
   36MOL   C31717187   7.242   2.018   5.637 -0.5122  0.3077  0.5151
   36MOL   C31817188   7.310   2.111   5.555  0.2691  0.5222 -0.2636
   36MOL   C31917189   7.358   2.230   5.604  0.0007  0.2566  0.2471
   36MOL   S32017190   7.198   1.922   5.905 -0.0422  0.2848 -0.1014
   36MOL   O32117191   7.296   1.948   6.012  0.5737 -0.5636  0.9999
   36MOL   O32217192   7.189   1.789   5.849 -0.3904 -0.2335 -0.7840
   36MOL   C32317193   7.036   1.971   5.967  0.0299  0.0040 -0.1826
   36MOL   C32417194   6.994   1.935   6.096 -0.3701  0.3444  0.3770
   36MOL   C32517195   6.865   1.965   6.137 -0.2129 -0.0307  0.0823
   36MOL   C32617196   6.776   2.034   6.053  0.2771 -0.2612  0.0492
   36MOL   C32717197   6.817   2.064   5.918 -0.2378 -0.0247 -0.1927
   36MOL   C32817198   6.952   2.039   5.875 -0.2749  0.5774  0.5391
   36MOL   O32917199   6.652   2.064   6.097  0.0352  0.3953 -0.0855
   36MOL   H33017200   7.371   2.353   5.778 -1.2749  0.8556 -0.5503
   36MOL   H33117201   7.308   2.178   5.940 -1.6870  0.3177  0.3126
   36MOL   H33217202   7.202   1.928   5.594 -0.0980  0.2803  0.1813
   36MOL   H33317203   7.327   2.087   5.451 -2.7749 -1.3713 -0.3857
   36MOL   H33417204   7.066   1.885   6.159 -1.1429 -0.3610  0.7116
   36MOL   H33517205   6.838   1.947   6.240  2.7200 -0.5856  0.8040
   36MOL   H33617206   6.745   2.122   5.861  0.0201 -0.2221 -0.7293
   36MOL   H33717207   6.985   2.063   5.775 -0.9896 -2.2539 -0.4155
   36MOL   C33817208   6.477   2.148   5.960  0.2013 -0.1509 -0.4472
   36MOL   C33917209   6.386   2.140   5.854  0.8878 -0.1830 -0.1742
   36MOL   C34017210   6.364   2.022   5.794  0.4602 -1.1380  0.2351
   36MOL   C34117211   6.434   1.912   5.847 -0.4745 -0.0075 -0.8900
   36MOL   C34217212   6.522   1.914   5.957  0.1563 -0.1400 -0.9325
   36MOL   C34317213   6.548   2.042   6.011  0.4787  0.5653 -0.0548
   36MOL   S34417214   6.271   2.011   5.640 -0.2471  0.1985 -0.0003
   36MOL   O34517215   6.345   1.926   5.543 -0.1191  0.4483  0.3066
   36MOL   O34617216   6.226   2.147   5.606 -0.0553 -0.5744  0.4867
   36MOL   C34717217   6.115   1.925   5.673 -0.0595 -0.0783 -0.4438
   36MOL   C34817218   5.996   1.996   5.661 -0.0934  0.0434  0.4075
   36MOL   C34917219   5.873   1.929   5.685 -0.1640  0.7095 -0.0809
   36MOL   C35017220   5.875   1.788   5.703 -0.4334  0.1571  0.1637
   36MOL   C35117221   5.997   1.713   5.727  0.0871 -0.7347 -0.0298
   36MOL   C35217222   6.115   1.784   5.710 -0.1330 -0.1096  0.2944
   36MOL   O35317223   5.752   1.722   5.702  0.4292 -0.3346  0.2086
   36MOL   H35417224   6.500   2.244   6.004  1.1257 -0.0334 -1.1789
   36MOL   H35517225   6.342   2.228   5.810  1.4178  1.6634  2.8674
   36MOL   H35617226   6.421   1.816   5.800 -1.1844 -0.4172  0.1432
   36MOL   H35717227   6.568   1.824   5.993  0.0370 -0.9660 -2.7892
   36MOL   H35817228   5.999   2.104   5.657 -0.0403  0.0611  0.8296
   36MOL   H35917229   5.776   1.975   5.676 -1.2023 -1.4631 -0.5699
   36MOL   H36017230   5.985   1.608   5.750  2.4435 -1.5082 -2.1568
   36MOL   H36117231   6.211   1.733   5.710  0.3196  0.7026  2.3652
   36MOL   C36217232   5.632   1.755   5.914 -0.2630  0.5730  0.1820
   36MOL   C36317233   5.576   1.687   6.030 -0.5597 -1.2883 -0.1319
   36MOL   C36417234   5.595   1.548   6.055  0.2878 -0.2521  0.1449
   36MOL   C36517235   5.685   1.474   5.972 -0.0797  0.0719  0.4455
   36MOL   C36617236   5.735   1.541   5.855  0.4768  0.3500 -0.2570
   36MOL   C36717237   5.711   1.677   5.823 -0.6979  0.0204  0.2682
   36MOL   S36817238   5.506   1.478   6.196  0.0163  0.2179 -0.0435
   36MOL   O36917239   5.461   1.587   6.283  0.0335 -0.6405  0.3720
   36MOL   O37017240   5.592   1.370   6.250 -0.6156 -0.7576 -0.2239
   36MOL   C37117241   5.355   1.412   6.119  0.0922  0.0222 -0.6183
   36MOL   C37217242   5.244   1.492   6.089  0.3398  0.4062  0.2051
   36MOL   C37317243   5.133   1.450   6.016 -0.1326  0.3218  0.1729
   36MOL   C37417244   5.133   1.319   5.968  0.0770  0.5909  0.0456
   36MOL   C37517245   5.237   1.227   6.010  0.0053  0.1162  0.1190
   36MOL   C37617246   5.352   1.275   6.075 -0.3882 -0.3710 -0.2813
   36MOL   O37717247   5.027   1.272   5.895 -0.4028 -0.5131 -0.1119
   36MOL   H37817248   5.606   1.858   5.894  1.4130  1.0457  0.3446
   36MOL   H37917249   5.501   1.740   6.086 -0.3577 -1.6506  0.4903
   36MOL   H38017250   5.706   1.370   5.993  1.4578  0.3678  0.4137
   36MOL   H38117251   5.800   1.489   5.787  1.1803  0.9659 -0.0646
   36MOL   H38217252   5.245   1.596   6.119  0.6617  0.1387  1.1308
   36MOL   H38317253   5.056   1.517   5.980 -1.2015 -1.1197 -0.2842
   36MOL   H38417254   5.238   1.129   5.963 -1.7106  1.0737 -1.9998
   36MOL   H38517255   5.437   1.209   6.080  0.6980  0.9307 -1.2556
   36MOL   C38617256   4.821   1.399   5.869  0.5977  0.7149 -0.3229
   36MOL   C38717257   4.701   1.445   5.926 -0.3123  1.2122 -0.1017
   36MOL   C38817258   4.658   1.402   6.057 -0.1408  0.7366 -0.2287
   36MOL   C38917259   4.736   1.304   6.126 -0.1288 -0.6353  0.1718
   36MOL   C39017260   4.859   1.260   6.070 -0.0935  0.1673  0.1138
   36MOL   C39117261   4.902   1.310   5.947  0.4280 -0.7534 -0.0930
   36MOL   S39217262   4.521   1.489   6.130  0.3553  0.4591 -0.0902
   36MOL   O39317263   4.490   1.428   6.258 -0.1432  0.4387  0.1421
   36MOL   O39417264   4.426   1.506   6.020 -0.8748  0.0050  0.0734
   36MOL   C39517265   4.576   1.653   6.165 -0.4894 -0.1021 -0.4804
   36MOL   C39617266   4.486   1.744   6.223  0.6856 -0.3780  0.0939
   36MOL   C39717267   4.523   1.877   6.245  0.0898  0.0165 -0.3834
   36MOL   C39817268   4.653   1.913   6.223  0.0285 -1.1264  0.5008
   36MOL   C39917269   4.749   1.823   6.172 -0.3370 -0.4155  0.1468
   36MOL   C40017270   4.713   1.691   6.143  0.4280  0.4307 -0.6426
   36MOL   O40117271   4.685   2.046   6.248  0.2224 -0.0318  0.3931
   36MOL   H40217272   4.853   1.451   5.780  3.3530 -0.0177  0.1866
   36MOL   H40317273   4.637   1.508   5.866  0.0175  1.3931 -0.2695
   36MOL   H40417274   4.706   1.275   6.226 -0.1680  0.0586  0.3639
   36MOL   H40517275   4.929   1.189   6.111 -1.8152 -1.0329  1.0489
   36MOL   H40617276   4.382   1.716   6.231  0.8162 -0.7822  0.4127
   36MOL   H40717277   4.448   1.943   6.285 -0.3802 -0.6293 -0.1966
   36MOL   H40817278   4.850   1.859   6.158 -1.6501  3.1372 -0.7036
   36MOL   H40917279   4.787   1.619   6.112  0.6762  0.6274 -0.5035
   36MOL   C41017280   4.921   2.093   6.191 -0.0510  0.0238 -0.5839
   36MOL   C41117281   5.007   2.169   6.110  0.0390  0.2663  0.8664
   36MOL   C41217282   4.954   2.261   6.010 -0.4441 -0.0616 -0.1285
   36MOL   C41317283   4.818   2.263   5.982  0.3667 -0.0720 -0.6125
   36MOL   C41417284   4.737   2.188   6.073  0.6551 -0.3880 -0.0025
   36MOL   C41517285   4.782   2.102   6.171 -1.0589 -0.4579 -0.2411
   36MOL   S41617286   5.064   2.361   5.915 -0.1981 -0.1352  0.1228
   36MOL   O41717287   4.980   2.477   5.865  0.1267  0.1227 -0.4205
   36MOL   O41817288   5.144   2.277   5.820  0.3560  0.3176 -0.1414
   36MOL   C41917289   5.175   2.434   6.041 -0.4137 -0.1526 -0.8318
   36MOL   C42017290   5.125   2.537   6.121 -0.3050 -0.3330 -0.4745
   36MOL   C42117291   5.203   2.596   6.224 -0.1662  0.1156  0.1723
   36MOL   C42217292   5.339   2.554   6.236  0.0002  0.9796 -0.0306
   36MOL   C42317293   5.387   2.444   6.161  0.2768 -0.3939  0.0838
   36MOL   C42417294   5.309   2.389   6.055 -0.4197 -0.3878 -0.3922
   36MOL   O42517295   5.417   2.610   6.330  0.1962 -0.0268  0.3415
   36MOL   H42617296   4.958   2.040   6.277  1.4335  2.7051  0.4712
   36MOL   H42717297   5.112   2.171   6.135 -0.4196  0.6832  2.8758
   36MOL   H42817298   4.778   2.326   5.903  0.8617  3.5556  1.9027
   36MOL   H42917299   4.629   2.193   6.074  0.6447 -0.6551  0.8680
   36MOL   H43017300   5.019   2.557   6.115 -0.6529 -2.1025 -0.7762
   36MOL   H43117301   5.160   2.677   6.281 -0.0381  1.4401 -1.5740
   36MOL   H43217302   5.487   2.407   6.181  0.9930  0.0520 -2.4843
   36MOL   H43317303   5.346   2.310   5.992 -3.5873 -0.4304 -2.3067
   36MOL   C43417304   5.578   2.466   6.434 -0.1788  0.0344 -0.1326
   36MOL   C43517305   5.627   2.382   6.543 -0.0650 -0.0260  0.5266
   36MOL   C43617306   5.534   2.343   6.643  0.3023  0.1028  1.0523
   36MOL   C43717307   5.410   2.414   6.646  0.4744 -0.1062  0.1986
   36MOL   C43817308   5.381   2.514   6.556  0.1875 -0.3571 -0.5478
   36MOL   C43917309   5.457   2.537   6.439 -0.9358 -0.5288  0.1441
   36MOL   S44017310   5.557   2.209   6.758 -0.4317 -0.1734 -0.3454
   36MOL   O44117311   5.594   2.091   6.675 -0.1880 -0.3562 -0.3947
   36MOL   O44217312   5.442   2.205   6.849  0.1883 -0.0558 -0.0458
   36MOL   C44317313   5.699   2.254   6.859 -0.8040 -0.5300  0.2106
   36MOL   C44417314   5.723   2.177   6.978  0.5030  0.1814 -0.2251
   36MOL   C44517315   5.812   2.226   7.078 -0.7970  0.5485  0.0252
   36MOL   C44617316   5.895   2.339   7.044 -0.5000 -0.6019  0.3140
   36MOL   C44717317   5.874   2.406   6.922  0.0782 -0.6570  0.9881
   36MOL   C44817318   5.780   2.366   6.830  0.4689 -0.3748  0.2290
   36MOL   O44917319   5.998   2.375   7.122 -0.3991 -0.5514 -0.3429
   36MOL   H45017320   5.641   2.481   6.348 -2.4515 -1.3374 -2.0837
   36MOL   H45117321   5.722   2.333   6.532 -0.7153 -1.0369 -0.6916
   36MOL   H45217322   5.335   2.383   6.717 -1.8485  0.1140 -2.0931
   36MOL   H45317323   5.283   2.559   6.566  0.3530  0.0706 -0.8359
   36MOL   H45417324   5.651   2.099   7.000  2.4059 -0.6519  3.5340
   36MOL   H45517325   5.830   2.169   7.168  0.6186 -1.4134 -1.4593
   36MOL   H45617326   5.948   2.478   6.891 -1.5130  1.2200  1.4138
   36MOL   H45717327   5.757   2.429   6.745 -0.5456  2.6086  2.6076
   36MOL   C45817328   6.134   2.183   7.102 -0.2481 -0.5557  0.0532
   36MOL   C45917329   6.251   2.116   7.057 -0.1629 -0.0111 -0.7323
   36MOL   C46017330   6.357   2.191   7.006 -0.0894  0.1610 -0.5532
   36MOL   C46117331   6.356   2.335   7.010  0.7092  0.0621 -0.0600
   36MOL   C46217332   6.235   2.396   7.046 -0.0252 -0.5752 -0.4721
   36MOL   C46317333   6.126   2.325   7.090  0.5401 -0.0683  0.1006
   36MOL   S46417334   6.497   2.098   6.940  0.5886 -0.1713 -0.4712
   36MOL   O46517335   6.560   2.188   6.842  0.8856  0.2752  0.0925
   36MOL   O46617336   6.447   1.962   6.905 -0.7471 -0.3915 -0.1477
   36MOL   C46717337   6.607   2.087   7.077 -0.5816 -0.8363 -0.5854
   36MOL   C46817338   6.556   2.042   7.203 -0.0509  0.4794  1.1187
   36MOL   C46917339   6.642   2.016   7.310 -0.4945 -0.4401  0.1262
   36MOL   C47017340   6.781   2.042   7.292  0.3130 -0.4436  0.2821
   36MOL   C47117341   6.829   2.091   7.170  0.7704 -0.3331  0.2228
   36MOL   C47217342   6.742   2.120   7.060  0.2032 -0.5486  0.2117
   36MOL   O47317343   6.875   2.019   7.386  0.5051  0.0937 -0.1786
   36MOL   H47417344   6.052   2.129   7.147  0.3679 -0.6635  1.0448
   36MOL   H47517345   6.249   2.009   7.075  0.6189  0.3149  1.5237
   36MOL   H47617346   6.441   2.397   6.984  1.2650 -0.5690  0.2327
   36MOL   H47717347   6.223   2.502   7.035 -2.2539 -1.1221 -3.8548
   36MOL   H47817348   6.452   2.012   7.204 -0.0353  0.2542 -1.7560
   36MOL   H47917349   6.608   1.977   7.405  0.6259  0.5857  0.9734
   36MOL   H48017350   6.933   2.114   7.153  0.7321 -1.1523 -1.1967
   36MOL   H48117351   6.786   2.145   6.964  0.1753 -0.5363  0.2024
   36MOL   H48217352   6.830   2.027   7.468 -1.2738 -0.5447 -1.0623
   37MOL     C117353   2.321   0.323   6.649 -0.5768 -0.0589  0.5069
   37MOL     C217354   2.457   0.337   6.666 -1.0185 -0.1043  0.5356
   37MOL     C317355   2.507   0.396   6.782  0.5036  0.3081  0.2148
   37MOL     C417356   2.415   0.438   6.882 -0.7285  0.0058  0.2236
   37MOL     C517357   2.281   0.412   6.870 -0.5023  0.6316  0.1728
   37MOL     C617358   2.232   0.357   6.751 -1.0577 -0.0167  0.0175
   37MOL     S717359   2.677   0.439   6.794  0.1334 -0.2851  0.2899
   37MOL     O817360   2.734   0.458   6.659  0.1897 -0.3225  0.2668
   37MOL     O917361   2.738   0.347   6.894  0.3682 -0.4602  0.0060
   37MOL    C1017362   2.677   0.604   6.872  0.6313 -0.0172 -0.5160
   37MOL    C1117363   2.757   0.622   6.984 -0.1053 -0.1857 -0.9870
   37MOL    C1217364   2.751   0.745   7.051  0.0660 -0.1951 -0.2999
   37MOL    C1317365   2.675   0.851   6.990  0.2290 -0.0523  0.4285
   37MOL    C1417366   2.596   0.827   6.877 -0.8384 -0.5151  0.1413
   37MOL    C1517367   2.598   0.703   6.817  0.2656 -0.0134 -1.1490
   37MOL    O1617368   2.680   0.978   7.053 -0.2033 -0.8641  0.4878
   37MOL    H1717369   2.284   0.263   6.568 -0.6829 -0.5595  0.9194
   37MOL    H1817370   2.533   0.307   6.595  0.8419 -0.0814  2.4779
   37MOL    H1917371   2.453   0.487   6.970  0.5355 -2.4713  1.1160
   37MOL    H2017372   2.214   0.422   6.954  0.1622 -0.7091  0.8770
   37MOL    H2117373   2.808   0.541   7.034 -0.4118  0.7910  0.9614
   37MOL    H2217374   2.810   0.755   7.141  0.5379  0.9824 -0.7317
   37MOL    H2317375   2.540   0.904   6.827 -0.6964 -0.0646  0.6683
   37MOL    H2417376   2.532   0.687   6.733 -2.3640  1.8943  0.4928
   37MOL    H2517377   2.127   0.335   6.739 -0.8928 -0.0683 -1.4232
   37MOL    C2617378   2.510   1.002   7.216  0.8887 -0.5468 -0.7465
   37MOL    C2717379   2.465   1.012   7.350  0.2270 -0.0706  0.8096
   37MOL    C2817380   2.561   1.006   7.454  0.1869  0.0929 -0.3300
   37MOL    C2917381   2.697   0.987   7.420 -0.4612 -0.3261  0.0313
   37MOL    C3017382   2.739   0.991   7.291  0.1317  0.6546 -0.1078
   37MOL    C3117383   2.647   0.985   7.188  0.5978 -0.6996 -0.7752
   37MOL    S3217384   2.510   1.002   7.624 -0.2937 -0.4956  0.6042
   37MOL    O3317385   2.633   1.022   7.708  0.0295 -0.0681 -1.0548
   37MOL    O3417386   2.428   0.876   7.646 -0.6109 -0.1995 -0.0488
   37MOL    C3517387   2.403   1.145   7.664 -0.4635  0.2736  0.9392
   37MOL    C3617388   2.340   1.142   7.793  0.0090  0.1338  0.9713
   37MOL    C3717389   2.239   1.232   7.827  0.1591 -0.1524  0.3967
   37MOL    C3817390   2.216   1.341   7.742  0.3550  0.0719  0.2927
   37MOL    C3917391   2.277   1.351   7.622  0.3535  0.0997  0.7332
   37MOL    C4017392   2.369   1.254   7.580 -0.3894 -0.8397  0.1746
   37MOL    O4117393   2.113   1.423   7.779  0.0516 -0.2435 -0.0549
   37MOL    H4217394   2.438   1.024   7.138 -2.5651 -1.4456  2.0660
   37MOL    H4317395   2.359   1.034   7.358 -0.1138 -0.7979 -1.2483
   37MOL    H4417396   2.767   0.980   7.502 -0.0576  1.4362 -0.1426
   37MOL    H4517397   2.845   0.990   7.271  0.7387  0.5198  2.9309
   37MOL    H4617398   2.350   1.067   7.870 -0.6376 -0.6885  0.2768
   37MOL    H4717399   2.174   1.226   7.913  1.4365 -1.5066  1.2986
   37MOL    H4817400   2.254   1.435   7.558  1.4649  0.9881  1.4668
   37MOL    H4917401   2.407   1.256   7.479 -0.3550  0.4280  0.2078
   37MOL    C5017402   2.036   1.561   7.959 -0.5146  1.0847 -0.0527
   37MOL    C5117403   2.051   1.677   8.036 -0.7122  0.1195 -0.0968
   37MOL    C5217404   2.173   1.745   8.035 -1.1367 -0.2599  0.2664
   37MOL    C5317405   2.284   1.702   7.958 -0.1462  0.1464 -0.1442
   37MOL    C5417406   2.264   1.583   7.880  0.5904  0.2586  0.5074
   37MOL    C5517407   2.140   1.517   7.873 -0.1340 -0.1071 -0.3637
   37MOL    S5617408   2.186   1.897   8.131  0.2952 -0.0277  0.1147
   37MOL    O5717409   2.123   2.003   8.050  1.1420 -0.3319 -0.3623
   37MOL    O5817410   2.324   1.908   8.175 -0.5031  0.3454  1.0313
   37MOL    C5917411   2.085   1.871   8.270  0.0200 -0.2377 -0.4533
   37MOL    C6017412   2.124   1.769   8.362 -0.3890  0.0663 -0.6291
   37MOL    C6117413   2.053   1.755   0.057 -0.2839 -0.2366 -1.0785
   37MOL    C6217414   1.936   1.830   0.072 -1.0584 -0.2766 -0.3352
   37MOL    C6317415   1.889   1.920   8.405  0.3045  0.5567 -0.7978
   37MOL    C6417416   1.964   1.946   8.291 -1.0601  0.3024 -0.2334
   37MOL    O6517417   1.876   1.828   0.196  0.0872  0.4174 -0.0984
   37MOL    H6617418   1.938   1.516   7.966  0.3820 -0.8372  0.3926
   37MOL    H6717419   1.973   1.716   8.099  0.1789  0.5484  0.7578
   37MOL    H6817420   2.380   1.750   7.942  1.9277 -2.4730  3.6629
   37MOL    H6917421   2.339   1.554   7.808 -0.8576  0.9135 -1.2770
   37MOL    H7017422   2.205   1.701   8.340 -1.7461 -1.1602 -2.0153
   37MOL    H7117423   2.093   1.688   0.132 -0.6438  2.0953  1.2650
   37MOL    H7217424   1.794   1.970   8.420  0.1833  0.0997 -0.0134
   37MOL    H7317425   1.937   2.012   8.210 -2.2803  0.8380  0.5815
   37MOL    C7417426   1.651   1.732   0.179 -0.3507  0.1501  0.1732
   37MOL    C7517427   1.557   1.633   0.221  0.0535  0.1325 -0.0576
   37MOL    C7617428   1.610   1.527   0.298  0.6991  0.0586  0.2258
   37MOL    C7717429   1.745   1.522   0.342  0.2014  0.6092  0.6130
   37MOL    C7817430   1.828   1.624   0.305  0.6729 -0.2268 -0.4120
   37MOL    C7917431   1.787   1.730   0.225  0.3950  1.4940 -0.2728
   37MOL    S8017432   1.506   1.380   0.334  0.0609 -0.1734 -0.4002
   37MOL    O8117433   1.578   1.258   0.292  0.1090  0.3036 -0.2218
   37MOL    O8217434   1.379   1.404   0.272  0.0586 -0.2251 -0.0265
   37MOL    C8317435   1.481   1.375   0.513 -0.4396 -0.3717  0.2328
   37MOL    C8417436   1.591   1.346   0.596  0.4357 -0.4318  0.6928
   37MOL    C8517437   1.568   1.321   0.734 -0.0749  0.3922 -0.5732
   37MOL    C8617438   1.436   1.338   0.786  0.0624 -0.0075 -0.3643
   37MOL    C8717439   1.327   1.376   0.705 -0.2492 -0.1769  0.3247
   37MOL    C8817440   1.352   1.392   0.570  0.3786 -0.2108  0.2216
   37MOL    O8917441   1.414   1.349   0.917 -0.4619  0.3614 -0.8944
   37MOL    H9017442   1.616   1.814   0.119 -1.4651  0.1560  0.8168
   37MOL    H9117443   1.456   1.637   0.185 -0.1890 -0.8533  0.4955
   37MOL    H9217444   1.782   1.439   0.400 -3.9300 -2.4580 -0.8748
   37MOL    H9317445   1.931   1.623   0.335 -0.2404 -3.3758  3.0093
   37MOL    H9417446   1.686   1.319   0.551 -0.3675  0.2395 -1.4777
   37MOL    H9517447   1.652   1.292   0.795  1.5383  1.0565 -2.4146
   37MOL    H9617448   1.226   1.395   0.737  0.7641  1.8186  2.4947
   37MOL    H9717449   1.271   1.421   0.506  0.7967  1.0404  0.2599
   37MOL    C9817450   1.309   1.127   0.913 -0.0644 -0.5513  0.0707
   37MOL    C9917451   1.261   1.012   0.974  0.2487  0.0095 -0.5468
   37MOL   C10017452   1.275   0.999   1.114 -0.3246  0.3779 -0.5972
   37MOL   C10117453   1.337   1.104   1.185 -0.1106  0.0092  0.2401
   37MOL   C10217454   1.377   1.223   1.127  0.0712  0.5300 -0.7895
   37MOL   C10317455   1.366   1.234   0.985  0.6681 -0.4215  0.5154
   37MOL   S10417456   1.214   0.861   1.203  0.2425 -0.2222 -0.0873
   37MOL   O10517457   1.095   0.905   1.276  0.1613 -0.4146  0.3970
   37MOL   O10617458   1.324   0.798   1.276 -0.2084  0.1101  0.0644
   37MOL   C10717459   1.157   0.745   1.080  0.5029  0.1385  0.2402
   37MOL   C10817460   1.251   0.657   1.031  0.8094  0.2020  0.7974
   37MOL   C10917461   1.221   0.551   0.949  0.0459  0.7030 -0.0540
   37MOL   C11017462   1.087   0.526   0.924  0.6453 -0.4717  0.6099
   37MOL   C11117463   0.987   0.606   0.985 -0.0020  0.7526  0.2858
   37MOL   C11217464   1.022   0.721   1.061  0.8904 -0.5386 -0.1372
   37MOL   O11317465   1.045   0.427   0.833 -0.5482  0.5056  0.2121
   37MOL   H11417466   1.292   1.137   0.807  0.5131 -1.1315 -0.0758
   37MOL   H11517467   1.214   0.931   0.920  2.0184 -0.4702 -1.3911
   37MOL   H11617468   1.345   1.103   1.292 -0.6344 -0.6753  0.2784
   37MOL   H11717469   1.420   1.303   1.185  0.2056  0.8120 -1.2716
   37MOL   H11817470   1.355   0.667   1.059  0.6812 -0.0063  1.3636
   37MOL   H11917471   1.300   0.485   0.915  0.9024  2.2475 -1.1383
   37MOL   H12017472   0.885   0.583   0.961  0.5169 -1.2593 -0.0913
   37MOL   H12117473   0.948   0.786   1.105  1.6469 -0.0227  0.4054
   37MOL   C12217474   1.079   0.253   1.005  0.6814  0.5111 -0.2632
   37MOL   C12317475   1.126   0.128   1.033  0.4184 -0.0320  0.5649
   37MOL   C12417476   1.147   0.034   0.928  0.1901 -0.0764  0.1760
   37MOL   C12517477   1.152   0.079   0.793 -0.7284 -0.1851  0.5670
   37MOL   C12617478   1.133   0.215   0.768  0.4649  0.2488  0.1465
   37MOL   C12717479   1.087   0.298   0.872 -0.3609  0.7066  0.1914
   37MOL   S12817480   1.190   8.288   0.954 -0.0807 -0.1659 -0.1812
   37MOL   O12917481   1.315   8.265   0.880  0.0462  0.4762  0.0415
   37MOL   O13017482   1.080   8.202   0.926 -0.6164 -0.0318 -0.1650
   37MOL   C13117483   1.231   8.269   1.124 -0.4492 -0.4292 -0.3048
   37MOL   C13217484   1.119   8.275   1.207  0.7547 -0.3162  0.0874
   37MOL   C13317485   1.144   8.265   1.343 -0.6008  0.0506 -0.1290
   37MOL   C13417486   1.266   8.225   1.396 -0.0401  0.1600  0.0473
   37MOL   C13517487   1.381   8.219   1.311 -0.4310 -0.2847 -0.5998
   37MOL   C13617488   1.358   8.239   1.177  0.1635 -0.3802 -0.1103
   37MOL   O13717489   1.268   8.214   1.532  0.1545  0.0247 -0.1675
   37MOL   H13817490   1.045   0.325   1.078 -1.5259 -0.4183 -0.3063
   37MOL   H13917491   1.131   0.098   1.136 -0.3185 -1.8752  0.0886
   37MOL   H14017492   1.176   0.016   0.709 -0.6490  1.5360 -0.7359
   37MOL   H14117493   1.141   0.251   0.667  1.5114 -1.9857 -0.6012
   37MOL   H14217494   1.018   8.286   1.169 -0.0322 -0.9817  1.9585
   37MOL   H14317495   1.070   8.281   1.420 -0.6596  2.7193 -0.6807
   37MOL   H14417496   1.481   8.202   1.350 -0.3405 -0.2666 -0.8242
   37MOL   H14517497   1.434   8.220   1.103  0.1439 -0.6827 -0.0519
   37MOL   C14617498   1.233   8.404   1.666  0.6548 -0.0826  0.0622
   37MOL   C14717499   1.283   0.083   1.748 -0.1967  0.1293  0.6481
   37MOL   C14817500   1.421   0.104   1.757  0.0515  0.0396 -0.2837
   37MOL   C14917501   1.513   0.019   1.700 -0.2777 -0.2122  0.3050
   37MOL   C15017502   1.465   8.335   1.620 -0.3862 -0.2751  0.7644
   37MOL   C15117503   1.322   8.317   1.599  0.3361  0.3616 -0.7342
   37MOL   S15217504   1.494   0.260   1.818  0.3038 -0.1838  0.0820
   37MOL   O15317505   1.394   0.351   1.876  0.0110 -0.2026 -0.0740
   37MOL   O15417506   1.585   0.317   1.713 -0.1596 -0.2527  0.1972
   37MOL   C15517507   1.598   0.202   1.956  0.6160 -0.0634 -0.1656
   37MOL   C15617508   1.564   0.103   2.042  0.3133 -0.2314  0.3280
   37MOL   C15717509   1.649   0.067   2.142  0.3374 -0.3292  0.1320
   37MOL   C15817510   1.780   0.112   2.148  0.5272 -0.2040 -0.1860
   37MOL   C15917511   1.817   0.209   2.060  0.0070 -0.1412  0.6833
   37MOL   C16017512   1.727   0.259   1.961  0.5401 -0.6549  0.1666
   37MOL   O16117513   1.873   0.061   2.237 -0.2324 -0.6931 -0.2564
   37MOL   H16217514   1.128   8.397   1.641  0.5480  0.5788  0.2914
   37MOL   H16317515   1.212   0.157   1.780 -0.1069 -0.1823  1.5806
   37MOL   H16417516   1.618   0.044   1.703 -0.7202  1.9463 -0.7563
   37MOL   H16517517   1.539   8.264   1.587 -0.0853  1.5810 -2.8950
   37MOL   H16617518   1.461   0.070   2.040  0.7394 -1.6848 -3.8961
   37MOL   H16717519   1.612   8.420   2.213  0.2263 -0.3489  0.0553
   37MOL   H16817520   1.916   0.252   2.051 -0.2038  0.3457  0.7221
   37MOL   H16917521   1.753   0.331   1.885  1.5705  0.6655  1.7332
   37MOL   C17017522   1.845   8.310   2.397  0.8891 -0.0589  0.2125
   37MOL   C17117523   1.817   8.176   2.415 -0.2813 -0.0381  0.4407
   37MOL   C17217524   1.829   8.081   2.308 -0.5527 -0.1729  0.0594
   37MOL   C17317525   1.875   8.125   2.182 -0.7458  0.3982 -0.6269
   37MOL   C17417526   1.902   8.260   2.164 -0.2218  0.0844  0.2967
   37MOL   C17517527   1.878   8.352   2.265  0.2471 -0.6714  0.2903
   37MOL   S17617528   1.777   7.916   2.320  0.0869 -0.1951  0.4892
   37MOL   O17717529   1.784   7.860   2.186 -0.4121 -0.0652 -0.0618
   37MOL   O17817530   1.647   7.913   2.392  0.3417 -0.2242 -0.5977
   37MOL   C17917531   1.890   7.816   2.414  0.4296 -0.0459 -0.1375
   37MOL   C18017532   1.908   7.681   2.390 -0.0042 -0.0398  0.1831
   37MOL   C18117533   2.000   7.603   2.462  0.5186  0.4753  0.3267
   37MOL   C18217534   2.090   7.670   2.554  0.6113  0.6131  0.4517
   37MOL   C18317535   2.075   7.812   2.577 -0.0515  0.6390 -0.0787
   37MOL   C18417536   1.977   7.880   2.509  0.5409  0.2833  0.2898
   37MOL   O18517537   2.183   7.601   2.621  0.0179 -0.1952  0.6101
   37MOL   H18617538   1.823   8.379   2.477 -1.5207 -2.0676  1.3888
   37MOL   H18717539   1.789   8.139   2.513  0.0075 -1.7405 -0.0984
   37MOL   H18817540   1.891   8.052   2.104  1.9175  0.6844 -0.4082
   37MOL   H18917541   1.927   8.297   2.066  0.1162  1.4409  0.8822
   37MOL   H19017542   1.845   7.635   2.316 -0.0913  0.2106  0.1024
   37MOL   H19117543   2.017   7.496   2.454  3.1528  0.6814  2.5205
   37MOL   H19217544   2.134   7.868   2.648  0.6058  0.7801 -0.7331
   37MOL   H19317545   1.971   7.987   2.526  0.3935  0.4117 -0.5826
   37MOL   C19417546   2.050   7.487   2.790  0.4190  0.1333 -0.6532
   37MOL   C19517547   2.025   7.463   2.927  0.0618  0.2077 -0.1769
   37MOL   C19617548   2.119   7.510   3.022  0.2339 -0.6306  0.2606
   37MOL   C19717549   2.220   7.593   2.982 -0.3335 -0.0207 -0.0194
   37MOL   C19817550   2.241   7.619   2.845  0.4469 -0.0274  0.3435
   37MOL   C19917551   2.158   7.568   2.751  0.6822 -0.0921 -0.0495
   37MOL   S20017552   2.092   7.468   3.196  0.1860 -0.0236  0.4037
   37MOL   O20117553   2.190   7.550   3.274  0.9488  0.0763 -0.2144
   37MOL   O20217554   2.089   7.321   3.201 -0.1030  0.0828 -0.7394
   37MOL   C20317555   1.923   7.525   3.234 -0.0093 -1.2887  0.0346
   37MOL   C20417556   1.892   7.664   3.229 -0.1548 -0.6325  1.1073
   37MOL   C20517557   1.768   7.699   3.280  0.9074 -0.0859  0.5898
   37MOL   C20617558   1.670   7.601   3.315 -0.5942  0.2485 -0.6327
   37MOL   C20717559   1.707   7.468   3.321 -0.5318 -0.5102  0.4021
   37MOL   C20817560   1.838   7.430   3.279  0.9905 -1.0867 -0.2986
   37MOL   O20917561   1.549   7.642   3.364  0.2141 -0.1409  0.0840
   37MOL   H21017562   1.989   7.441   2.713  1.5416  2.2390 -2.8645
   37MOL   H21117563   1.940   7.401   2.953  0.6486 -0.3503  0.4084
   37MOL   H21217564   2.283   7.643   3.055 -0.5281  0.3785 -0.1252
   37MOL   H21317565   2.321   7.684   2.812 -0.8654  2.1411  1.3227
   37MOL   H21417566   1.958   7.744   3.200 -0.6431 -1.0823 -1.3257
   37MOL   H21517567   1.733   7.801   3.281 -2.3698 -1.1137 -1.0014
   37MOL   H21617568   1.650   7.388   3.366 -1.4821  0.0079  0.1262
   37MOL   H21717569   1.868   7.327   3.288  2.3207 -0.7294 -0.6470
   37MOL   C21817570   1.418   7.575   3.556  0.2159  0.1876  0.2888
   37MOL   C21917571   1.397   7.568   3.697  0.7464  0.1614  0.0161
   37MOL   C22017572   1.507   7.609   3.778  0.5116  0.1154  0.4019
   37MOL   C22117573   1.621   7.674   3.723  0.3602 -0.0156  0.3471
   37MOL   C22217574   1.635   7.687   3.585  0.1631 -0.3242 -0.4575
   37MOL   C22317575   1.533   7.634   3.499  0.3853 -0.0654 -0.2437
   37MOL   S22417576   1.489   7.612   3.958 -0.2903  0.5174  0.7822
   37MOL   O22517577   1.418   7.487   3.992 -0.0018 -0.2377  0.1080
   37MOL   O22617578   1.446   7.743   4.003 -0.5811  0.0536  0.1963
   37MOL   C22717579   1.663   7.592   4.009 -0.3998  0.6753 -0.0640
   37MOL   C22817580   1.718   7.687   4.096  0.0525  0.5774 -0.1170
   37MOL   C22917581   1.857   7.667   4.146 -1.0443  0.0433 -0.4419
   37MOL   C23017582   1.930   7.562   4.099 -0.8688  0.1887  0.2421
   37MOL   C23117583   1.870   7.461   4.016  0.5626  0.5186 -0.2157
   37MOL   C23217584   1.737   7.479   3.970 -0.0519 -0.4646  0.1038
   37MOL   O23317585   2.062   7.541   4.135 -0.7370 -0.2205  0.2984
   37MOL   H23417586   1.346   7.533   3.488  1.4173 -1.6225  0.1064
   37MOL   H23517587   1.304   7.524   3.731  0.4258  0.0440 -0.9813
   37MOL   H23617588   1.698   7.717   3.786  2.3580 -0.7293 -1.5190
   37MOL   H23717589   1.720   7.735   3.539  2.2321 -1.3877  2.1001
   37MOL   H23817590   1.666   7.778   4.121  0.8336  1.1741 -0.6699
   37MOL   H23917591   1.904   7.739   4.212 -1.4330  1.7514 -1.9827
   37MOL   H24017592   1.923   7.372   3.986  2.4028  1.5021  0.0703
   37MOL   H24117593   1.691   7.400   3.912  0.5941 -0.1744 -0.7939
   37MOL   C24217594   2.216   7.359   4.165  0.6360 -0.0932  0.4531
   37MOL   C24317595   2.237   7.234   4.219 -0.0966 -0.3909  1.2117
   37MOL   C24417596   2.142   7.173   4.303 -0.2489  0.5858 -0.5984
   37MOL   C24517597   2.033   7.249   4.351  0.1879 -0.4380  0.5082
   37MOL   C24617598   2.011   7.374   4.298  0.3661  0.2070 -0.1236
   37MOL   C24717599   2.095   7.427   4.200  0.1050  0.0946 -0.0799
   37MOL   S24817600   2.183   7.016   4.386 -0.1272 -0.7573 -0.0744
   37MOL   O24917601   2.132   7.034   4.522 -0.1185  0.5732  0.4079
   37MOL   O25017602   2.324   6.985   4.363 -0.1787 -0.1919 -0.0104
   37MOL   C25117603   2.089   6.901   4.291  0.7911  0.6208 -1.0124
   37MOL   C25217604   2.108   6.889   4.152 -0.2735 -0.1779 -0.0460
   37MOL   C25317605   2.014   6.803   4.080 -0.9257 -0.6237 -0.4964
   37MOL   C25417606   1.917   6.721   4.143 -0.3971  0.2562 -0.2278
   37MOL   C25517607   1.905   6.742   4.284 -0.0074  0.2964  0.3582
   37MOL   C25617608   1.993   6.826   4.354  0.1811  0.1921 -0.3637
   37MOL   O25717609   1.840   6.634   4.068 -0.1247  0.1819 -0.9517
   37MOL   H25817610   2.294   7.403   4.105  0.6716 -1.0350 -0.1984
   37MOL   H25917611   2.326   7.176   4.199  1.5483  2.4030  0.2239
   37MOL   H26017612   1.959   7.199   4.412 -1.1509 -2.4005 -2.5807
   37MOL   H26117613   1.918   7.425   4.319  0.2235  0.0753 -0.4249
   37MOL   H26217614   2.175   6.957   4.102 -0.1902  0.3954  0.8407
   37MOL   H26317615   2.021   6.804   3.972  0.1144  0.4181 -0.4292
   37MOL   H26417616   1.831   6.689   4.342 -2.6213  2.4129 -0.9718
   37MOL   H26517617   1.995   6.841   4.461  1.3440  1.6819 -0.5857
   37MOL   C26617618   1.677   6.461   4.108 -0.3165 -0.3380 -0.4716
   37MOL   C26717619   1.645   6.335   4.156 -0.7679  0.4955 -0.3789
   37MOL   C26817620   1.737   6.261   4.225  0.1322 -0.2745 -0.1287
   37MOL   C26917621   1.864   6.313   4.243  0.7523  0.3289 -0.5505
   37MOL   C27017622   1.900   6.435   4.189 -0.2110  0.3678  0.1741
   37MOL   C27117623   1.809   6.510   4.121 -0.5314 -0.1121  0.4752
   37MOL   S27217624   1.697   6.112   4.307  0.0822 -0.1745  0.2524
   37MOL   O27317625   1.822   6.034   4.325 -0.2899 -0.5059  0.1293
   37MOL   O27417626   1.583   6.050   4.236 -0.4061  0.3312  0.0774
   37MOL   C27517627   1.635   6.161   4.473 -0.4120 -0.2416 -0.6901
   37MOL   C27617628   1.570   6.282   4.493 -0.1878 -0.3197 -0.2510
   37MOL   C27717629   1.542   6.320   4.623 -0.6920  0.0162 -0.4833
   37MOL   C27817630   1.564   6.235   4.735 -0.2525 -0.5538  0.1822
   37MOL   C27917631   1.622   6.110   4.708  0.1031  0.4849  0.2704
   37MOL   C28017632   1.673   6.077   4.579 -0.1367  0.2421  0.2670
   37MOL   O28117633   1.533   6.281   4.855 -0.9163  0.1264  0.0136
   37MOL   H28217634   1.599   6.517   4.059  0.2383  0.2172 -0.7323
   37MOL   H28317635   1.542   6.305   4.149 -1.0598  1.1544  0.9379
   37MOL   H28417636   1.931   6.257   4.305  0.9819  0.3432 -0.7853
   37MOL   H28517637   2.001   6.469   4.205 -0.5319  0.9300  1.0952
   37MOL   H28617638   1.535   6.346   4.414  0.7635  0.6087  0.0773
   37MOL   H28717639   1.508   6.420   4.645  0.3535  0.3598 -0.4324
   37MOL   H28817640   1.646   6.051   4.795 -1.8107  1.1359  1.2705
   37MOL   H28917641   1.741   5.995   4.562 -0.0921  0.0926  1.1386
   37MOL   C29017642   1.371   6.335   5.027 -0.2597  1.1049  0.1213
   37MOL   C29117643   1.239   6.330   5.079  0.2823 -0.2700  0.2257
   37MOL   C29217644   1.145   6.247   5.013 -0.1250  0.3068  0.2668
   37MOL   C29317645   1.187   6.168   4.903 -0.0745  0.0454 -0.4500
   37MOL   C29417646   1.313   6.173   4.844 -0.9838  0.7998  0.1724
   37MOL   C29517647   1.407   6.264   4.906 -0.4080  0.6610  0.2933
   37MOL   S29617648   0.977   6.251   5.074  0.1628 -0.8989  0.0511
   37MOL   O29717649   0.980   6.338   5.196  0.0456 -0.1338 -0.0590
   37MOL   O29817650   0.928   6.113   5.083  0.4717 -0.1613  0.1826
   37MOL   C29917651   0.874   6.350   4.958  0.2306 -0.0926  0.4512
   37MOL   C30017652   0.752   6.399   5.008  0.3685  0.2718  0.0843
   37MOL   C30117653   0.668   6.483   4.930 -0.0341  0.3386 -0.5802
   37MOL   C30217654   0.714   6.518   4.801  0.1071 -0.4634 -0.2805
   37MOL   C30317655   0.838   6.474   4.750 -0.2380 -0.0714 -0.2655
   37MOL   C30417656   0.919   6.398   4.828 -0.3727 -0.2626 -0.2083
   37MOL   O30517657   0.650   6.610   4.719  0.0354  0.7126 -0.2338
   37MOL   H30617658   1.441   6.398   5.081  1.2286  0.2584 -0.7744
   37MOL   H30717659   1.205   6.387   5.164 -1.2385 -0.0361 -0.5175
   37MOL   H30817660   1.104   6.122   4.852 -1.0705  0.3079  0.8841
   37MOL   H30917661   1.325   6.126   4.747 -0.5728  1.2200  0.0120
   37MOL   H31017662   0.725   6.371   5.108 -0.4018  0.9423  0.0695
   37MOL   H31117663   0.576   6.520   4.972  0.8813  0.2031  1.6267
   37MOL   H31217664   0.874   6.518   4.658 -1.6810 -1.6570 -1.6349
   37MOL   H31317665   1.018   6.370   4.795  1.5113  0.2690  4.4978
   37MOL   C31417666   0.426   6.702   4.719  0.1351 -0.2901 -0.1261
   37MOL   C31517667   0.290   6.692   4.684  0.1917  0.3237 -0.0756
   37MOL   C31617668   0.241   6.574   4.624 -0.4147  0.1009  0.3998
   37MOL   C31717669   0.326   6.463   4.604 -0.4858 -0.2158  0.4908
   37MOL   C31817670   0.458   6.476   4.644  0.6792  0.7719 -0.8880
   37MOL   C31917671   0.512   6.595   4.697 -0.4769 -0.2201 -0.0695
   37MOL   S32017672   0.062   6.559   4.614  0.1600 -0.0026 -0.0196
   37MOL   O32117673   0.026   6.435   4.545  0.3725 -0.1366 -0.6723
   37MOL   O32217674   0.017   6.685   4.557 -0.6435 -0.0927  0.0893
   37MOL   C32317675   8.417   6.547   4.776  0.1851  0.3706  0.1454
   37MOL   C32417676   8.366   6.420   4.816 -0.0734 -0.2532 -0.2874
   37MOL   C32517677   8.300   6.413   4.941 -0.0585 -0.4542  0.5123
   37MOL   C32617678   8.286   6.529   5.026 -0.2269  0.7105 -0.0554
   37MOL   C32717679   8.346   6.649   4.991  0.6438 -0.3121  0.8988
   37MOL   C32817680   8.404   6.659   4.858 -0.0925  0.4997 -0.1243
   37MOL   O32917681   8.218   6.525   5.141 -0.0270 -0.2919 -0.1679
   37MOL   H33017682   0.460   6.797   4.759 -1.6693  0.8426 -1.2197
   37MOL   H33117683   0.218   6.768   4.710 -1.3401 -0.8779 -0.7059
   37MOL   H33217684   0.283   6.374   4.560 -0.7774  0.2771 -0.2229
   37MOL   H33317685   0.516   6.390   4.616 -0.7985 -0.8678  0.9546
   37MOL   H33417686   8.372   6.345   4.738 -0.8673  1.2310 -1.8217
   37MOL   H33517687   8.247   6.324   4.971 -3.7220  1.6543  0.5839
   37MOL   H33617688   8.332   6.742   5.043  0.6313 -0.2837  0.8433
   37MOL   H33717689   8.422   6.754   4.812 -2.6721  1.0582 -0.0223
   37MOL   C33817690   7.990   6.463   5.071 -0.0902  0.3535 -0.2646
   37MOL   C33917691   7.860   6.502   5.040  0.8166 -0.4585 -0.1956
   37MOL   C34017692   7.815   6.630   5.078 -0.1416  0.9459 -0.0420
   37MOL   C34117693   7.899   6.714   5.153  0.3461  0.5165 -0.1338
   37MOL   C34217694   8.033   6.675   5.184  0.2513 -0.5515  0.5094
   37MOL   C34317695   8.080   6.550   5.130  0.4156 -0.2868 -0.3076
   37MOL   S34417696   7.648   6.691   5.047 -0.1959  0.0817 -0.3159
   37MOL   O34517697   7.637   6.707   4.901  0.2369 -0.4657 -0.1982
   37MOL   O34617698   7.634   6.800   5.146  0.2570 -0.2010 -0.3998
   37MOL   C34717699   7.551   6.553   5.104 -0.8562  0.5943  0.8810
   37MOL   C34817700   7.497   6.458   5.011 -0.5239  0.4049 -0.2384
   37MOL   C34917701   7.436   6.346   5.064 -0.5262  0.2129  0.5291
   37MOL   C35017702   7.429   6.324   5.204  0.5555  0.1014 -0.1714
   37MOL   C35117703   7.482   6.419   5.293  0.0823 -0.0795 -0.4085
   37MOL   C35217704   7.541   6.540   5.243  0.0419  0.3657  0.4711
   37MOL   O35317705   7.375   6.207   5.253  0.4785 -0.2120  0.0267
   37MOL   H35417706   8.035   6.373   5.030 -0.9551  0.3564 -1.2666
   37MOL   H35517707   7.793   6.429   4.995 -0.1290 -1.9407  3.4819
   37MOL   H35617708   7.861   6.807   5.192 -2.0713 -1.0161  1.2857
   37MOL   H35717709   8.105   6.739   5.232  0.3261  0.8739 -1.4919
   37MOL   H35817710   7.505   6.467   4.904  0.0523  0.5681 -0.1860
   37MOL   H35917711   7.399   6.273   4.994 -0.0684 -1.5116  2.0420
   37MOL   H36017712   7.473   6.394   5.398  1.7795 -0.0067 -0.2288
   37MOL   H36117713   7.590   6.610   5.310 -0.9362 -0.0432  1.6459
   37MOL   C36217714   7.390   6.038   5.426  0.1533  0.7360 -0.4456
   37MOL   C36317715   7.466   5.945   5.508 -0.3322 -0.0108 -0.0063
   37MOL   C36417716   7.601   5.939   5.489 -0.6033 -0.2280 -0.3451
   37MOL   C36517717   7.667   6.020   5.391 -0.3712  0.1506  0.0300
   37MOL   C36617718   7.594   6.102   5.303 -0.9696  0.1240  0.3930
   37MOL   C36717719   7.452   6.117   5.330  0.7986 -0.5640  0.0193
   37MOL   S36817720   7.702   5.845   5.599  0.0318  0.0629  0.1766
   37MOL   O36917721   7.621   5.739   5.655 -0.3810 -0.2281  0.1220
   37MOL   O37017722   7.779   5.931   5.697  0.9749 -0.5739 -0.3884
   37MOL   C37117723   7.823   5.775   5.496  0.0637 -0.3132 -0.1811
   37MOL   C37217724   7.955   5.761   5.541  0.1894 -0.1792 -0.1336
   37MOL   C37317725   8.051   5.699   5.460  0.4674  0.0227 -0.3814
   37MOL   C37417726   8.015   5.639   5.338 -0.0511 -0.1950  0.4235
   37MOL   C37517727   7.880   5.650   5.300 -0.2919  0.1067 -0.0585
   37MOL   C37617728   7.783   5.718   5.374  0.0486  0.2547 -1.1493
   37MOL   O37717729   8.112   5.582   5.258 -0.4986 -0.2007 -0.2549
   37MOL   H37817730   7.283   6.049   5.437  0.0600 -0.9683  0.4589
   37MOL   H37917731   7.423   5.881   5.583  0.8800 -0.1652  0.5706
   37MOL   H38017732   7.774   6.011   5.378 -0.5069  0.7911 -1.6960
   37MOL   H38117733   7.648   6.171   5.240  0.9439 -0.4104  1.4133
   37MOL   H38217734   7.990   5.794   5.638  4.3578 -0.2755 -1.4883
   37MOL   H38317735   8.153   5.691   5.497  0.8689 -0.4658 -1.5576
   37MOL   H38417736   7.847   5.609   5.206 -1.7193  1.4093 -0.1540
   37MOL   H38517737   7.678   5.711   5.348 -0.4160  0.0791  0.6723
   37MOL   C38617738   8.094   5.621   5.018  0.2990  0.2043 -0.7705
   37MOL   C38717739   8.136   5.682   4.900  0.1083 -0.1086 -0.5081
   37MOL   C38817740   8.236   5.781   4.904 -0.2307  0.8562 -0.3682
   37MOL   C38917741   8.284   5.821   5.033 -0.4434 -0.4323  0.3139
   37MOL   C39017742   8.247   5.753   5.149  0.4716 -0.1020  0.1963
   37MOL   C39117743   8.151   5.649   5.144  0.2175  0.2887 -0.2009
   37MOL   S39217744   8.301   5.863   4.759  0.0400  0.2281 -0.3187
   37MOL   O39317745   8.374   5.991   4.788 -0.2541  0.1358  0.0034
   37MOL   O39417746   8.183   5.873   4.667 -0.2133 -0.0747 -0.7748
   37MOL   C39517747   8.418   5.750   4.673 -0.8587  0.2238  0.3087
   37MOL   C39617748   0.032   5.630   4.732 -0.3340  0.4821 -0.6555
   37MOL   C39717749   0.120   5.546   4.667 -0.1960  0.5059  0.2527
   37MOL   C39817750   0.171   5.578   4.533 -0.7796  0.0266  0.0580
   37MOL   C39917751   0.120   5.695   4.471  0.0863  0.1941 -0.2039
   37MOL   C40017752   0.027   5.782   4.535 -0.3381 -0.7636  0.2822
   37MOL   O40117753   0.275   5.503   4.470 -0.0417  0.0701 -0.3139
   37MOL   H40217754   8.013   5.551   5.008  0.1489  0.2313  0.2130
   37MOL   H40317755   8.079   5.666   4.810 -0.3664 -0.4815 -0.1407
   37MOL   H40417756   8.346   5.910   5.028 -1.2174  0.0255 -1.5609
   37MOL   H40517757   8.280   5.781   5.248 -0.3637 -0.2113  0.5145
   37MOL   H40617758   8.424   5.602   4.832 -0.7698  0.5680 -0.7771
   37MOL   H40717759   0.151   5.457   4.720  0.5313  0.6986  0.1509
   37MOL   H40817760   0.163   5.723   4.376 -0.8100 -1.1093 -0.9978
   37MOL   H40917761   0.014   5.882   4.497 -0.0820 -1.2618 -1.1630
   37MOL   C41017762   0.485   5.521   4.589  0.2018 -0.3355  0.2938
   37MOL   C41117763   0.613   5.582   4.594  0.4156 -0.1670  0.0962
   37MOL   C41217764   0.657   5.673   4.496 -0.5474 -0.0987  0.1365
   37MOL   C41317765   0.573   5.707   4.389  0.1836  0.0397 -0.0925
   37MOL   C41417766   0.443   5.652   4.388  0.5303 -0.6554  0.0987
   37MOL   C41517767   0.396   5.556   4.484 -0.8358 -0.2295  0.0884
   37MOL   S41617768   0.819   5.743   4.515  0.2426  0.0376  0.2086
   37MOL   O41717769   0.893   5.709   4.393  0.1369  0.6599  0.2442
   37MOL   O41817770   0.870   5.704   4.645 -0.1527 -0.0953 -0.0795
   37MOL   C41917771   0.802   5.920   4.509  1.1208  0.1862 -0.1139
   37MOL   C42017772   0.788   5.978   4.382  0.2794  0.0875  0.5733
   37MOL   C42117773   0.780   6.124   4.376  0.0972  0.0643 -0.1426
   37MOL   C42217774   0.785   6.203   4.491  0.0098  0.4261 -0.9530
   37MOL   C42317775   0.801   6.140   4.619  0.3975  0.4238  0.3731
   37MOL   C42417776   0.800   5.997   4.626 -0.8710 -0.4999 -0.7136
   37MOL   O42517777   0.765   6.338   4.490 -0.8394  0.7043 -0.7914
   37MOL   H42617778   0.463   5.442   4.659  1.1747 -2.3729 -1.6373
   37MOL   H42717779   0.681   5.548   4.671  2.6900  1.0008 -1.3765
   37MOL   H42817780   0.590   5.777   4.309 -2.8690  1.1074  0.1206
   37MOL   H42917781   0.373   5.674   4.308 -2.3221  0.1798  2.7435
   37MOL   H43017782   0.782   5.913   4.296  0.1924  0.6402  0.1529
   37MOL   H43117783   0.764   6.168   4.279  0.1117 -0.3154 -0.3168
   37MOL   H43217784   0.799   6.195   4.712  1.5774  0.6418  0.2772
   37MOL   H43317785   0.807   5.951   4.724  1.3098 -0.1769 -0.6998
   37MOL   C43417786   0.666   6.464   4.308  0.2419 -0.6189  0.1728
   37MOL   C43517787   0.675   6.518   4.178  0.6944  0.1914 -0.0309
   37MOL   C43617788   0.794   6.506   4.102 -0.3465 -0.1106  0.3948
   37MOL   C43717789   0.906   6.453   4.168  0.6599 -0.4929  0.1040
   37MOL   C43817790   0.897   6.404   4.293 -0.3814 -0.1744  0.1711
   37MOL   C43917791   0.777   6.399   4.369  1.0234 -0.1775 -0.5021
   37MOL   S44017792   0.816   6.577   3.935  0.2899 -0.5467  0.1065
   37MOL   O44117793   0.823   6.479   3.828  0.7288  0.1872  0.0748
   37MOL   O44217794   0.932   6.659   3.961  0.0690 -0.5738 -0.6162
   37MOL   C44317795   0.672   6.687   3.898 -0.2212  0.2641  0.2942
   37MOL   C44417796   0.606   6.663   3.772  0.2356  0.3932 -0.1271
   37MOL   C44517797   0.496   6.749   3.737 -0.0479  1.0979  0.6566
   37MOL   C44617798   0.455   6.849   3.822 -0.6146  0.2051 -0.7268
   37MOL   C44717799   0.535   6.880   3.934  0.3731  0.1915  0.3211
   37MOL   C44817800   0.643   6.801   3.970  0.0006 -0.0679  0.0937
   37MOL   O44917801   0.350   6.931   3.792  0.5814  0.6136 -0.3717
   37MOL   H45017802   0.565   6.463   4.346 -0.3788 -1.4588 -1.4426
   37MOL   H45117803   0.588   6.573   4.145  3.5314  4.1297 -1.2493
   37MOL   H45217804   1.002   6.445   4.120  1.2873 -1.3742  1.4582
   37MOL   H45317805   0.985   6.362   4.338 -1.0203 -2.0154 -0.2364
   37MOL   H45417806   0.639   6.580   3.711  1.7839 -0.1113  1.3617
   37MOL   H45517807   0.449   6.735   3.641  1.4032  0.8390 -0.0372
   37MOL   H45617808   0.512   6.972   3.986 -0.2821  0.3709 -0.2664
   37MOL   H45717809   0.704   6.833   4.053 -0.0414  4.0401 -1.2921
   37MOL   C45817810   0.171   6.910   3.637  0.8617 -0.7064 -0.5773
   37MOL   C45917811   0.046   6.854   3.595  0.3673 -1.2174  0.3200
   37MOL   C46017812   8.420   6.744   3.657  0.5097  0.0362  0.5424
   37MOL   C46117813   0.065   6.689   3.767  0.0706 -0.4571 -0.2222
   37MOL   C46217814   0.181   6.754   3.813 -0.4323 -0.3424  0.2179
   37MOL   C46317815   0.238   6.860   3.749  0.2856 -0.1139  0.5295
   37MOL   S46417816   8.259   6.686   3.619 -0.1192 -0.4732  0.0837
   37MOL   O46517817   8.258   6.615   3.492 -0.6448  0.3816 -0.4539
   37MOL   O46617818   8.176   6.802   3.625  0.0357 -0.4307 -0.1425
   37MOL   C46717819   8.207   6.583   3.757 -0.1537  0.4320 -0.3074
   37MOL   C46817820   8.185   6.442   3.738  0.1331 -0.6716 -0.7428
   37MOL   C46917821   8.151   6.366   3.853  0.3082  0.3473 -0.6230
   37MOL   C47017822   8.113   6.429   3.973 -0.4680 -0.2478  1.1321
   37MOL   C47117823   8.119   6.571   3.984 -0.5301  0.1326 -0.1087
   37MOL   C47217824   8.168   6.642   3.875  0.3227 -0.3526  0.1135
   37MOL   O47317825   8.054   6.362   4.076 -0.0968  0.1405  0.1182
   37MOL   H47417826   0.219   6.993   3.587 -0.2994 -0.3037 -1.0443
   37MOL   H47517827   8.421   6.892   3.507  1.0117  0.0998  0.5098
   37MOL   H47617828   0.030   6.610   3.833  2.0777 -0.1820  1.2485
   37MOL   H47717829   0.237   6.710   3.894  0.0252 -1.1373 -0.5221
   37MOL   H47817830   8.205   6.394   3.643 -1.2369 -0.9398 -0.9059
   37MOL   H47917831   8.139   6.258   3.852  0.6732  0.3065 -1.0102
   37MOL   H48017832   8.082   6.626   4.068 -2.0843 -1.0476 -0.0024
   37MOL   H48117833   8.162   6.750   3.880  1.7794 -0.3808  3.1434
   37MOL   H48217834   8.046   6.269   4.069 -0.2810  0.0885  0.9616
   38MOL     C117835   4.245   0.794   0.365 -0.1659 -0.5646 -0.4082
   38MOL     C217836   4.315   0.896   0.431 -0.6629 -0.8078  0.3033
   38MOL     C317837   4.446   0.929   0.398 -0.2120 -0.6376  0.5002
   38MOL     C417838   4.512   0.867   0.293 -0.5013 -0.1306 -0.1677
   38MOL     C517839   4.453   0.764   0.228 -0.0314 -0.7874 -0.7833
   38MOL     C617840   4.319   0.733   0.258 -0.0064  1.2077  0.1663
   38MOL     S717841   4.519   1.078   0.474  0.0629  0.2244  0.4467
   38MOL     O817842   4.420   1.137   0.565  0.9138 -0.2319 -0.2477
   38MOL     O917843   4.583   1.158   0.369 -0.2124 -0.3799 -0.0085
   38MOL    C1017844   4.649   1.022   0.593  0.5234 -0.2242 -0.0522
   38MOL    C1117845   4.682   0.881   0.609  1.0608 -0.3543  0.6104
   38MOL    C1217846   4.775   0.839   0.708 -0.3379 -0.1652  0.6727
   38MOL    C1317847   4.832   0.936   0.789  1.1620  0.8205  1.0663
   38MOL    C1417848   4.800   1.076   0.777 -0.4790 -0.4298  0.3829
   38MOL    C1517849   4.700   1.116   0.682  0.0392 -0.4414  0.7090
   38MOL    O1617850   4.933   0.901   0.883  0.2425 -0.0643 -0.0408
   38MOL    H1717851   4.139   0.777   0.379 -0.2900  0.3698 -0.1386
   38MOL    H1817852   4.268   0.948   0.513  0.2584  2.0638 -0.9133
   38MOL    H1917853   4.614   0.885   0.264 -0.4622 -0.7522 -0.4250
   38MOL    H2017854   4.510   0.721   0.147  2.1093  1.4004 -0.5201
   38MOL    H2117855   4.640   0.808   0.541  0.1250  1.7290 -1.1049
   38MOL    H2217856   4.803   0.736   0.721  1.8330  0.3795  0.5067
   38MOL    H2317857   4.835   1.147   0.852 -2.3134  0.3119  0.5789
   38MOL    H2417858   4.670   1.218   0.666  1.6681  0.0965  0.9820
   38MOL    H2517859   4.276   0.655   0.195 -0.0645  2.7116 -1.7092
   38MOL    C2617860   5.128   1.035   0.902 -0.1674  0.3544 -0.1803
   38MOL    C2717861   5.263   1.070   0.866 -0.1212  0.6567  0.7347
   38MOL    C2817862   5.320   1.006   0.751 -0.3337 -0.7194 -0.1716
   38MOL    C2917863   5.252   0.898   0.692 -0.5342 -0.2154  0.4476
   38MOL    C3017864   5.124   0.861   0.735  0.4518 -0.1069 -0.0622
   38MOL    C3117865   5.064   0.926   0.843  0.3631  0.6235 -0.9399
   38MOL    S3217866   5.485   1.046   0.693  0.6718 -0.1551 -0.1934
   38MOL    O3317867   5.518   0.967   0.572  0.6190 -0.2539 -0.2433
   38MOL    O3417868   5.576   1.052   0.814  0.7169  0.3359  0.1298
   38MOL    C3517869   5.455   1.218   0.648  0.2548  0.3798 -0.0057
   38MOL    C3617870   5.482   1.325   0.737  0.3865 -0.1150 -0.1965
   38MOL    C3717871   5.455   1.459   0.697 -0.7195 -0.3083  0.4480
   38MOL    C3817872   5.406   1.488   0.569  0.0068 -0.5367 -0.6002
   38MOL    C3917873   5.391   1.385   0.474  0.3584 -0.5228  0.1918
   38MOL    C4017874   5.409   1.254   0.514  0.4225  0.3997  0.6934
   38MOL    O4117875   5.391   1.617   0.532 -0.1352 -0.0530  0.1550
   38MOL    H4217876   5.088   1.073   0.995  0.2605  1.7625 -0.5638
   38MOL    H4317877   5.320   1.146   0.918  1.2630  1.2315 -1.5415
   38MOL    H4417878   5.295   0.849   0.606 -0.0633  0.7615  0.1159
   38MOL    H4517879   5.074   0.776   0.692 -0.7081  0.1186  0.8113
   38MOL    H4617880   5.530   1.306   0.831 -1.6612  0.0812  0.9072
   38MOL    H4717881   5.478   1.541   0.763  2.9461 -0.3201 -0.7293
   38MOL    H4817882   5.354   1.409   0.375 -0.5434 -0.4052  0.5468
   38MOL    H4917883   5.391   1.169   0.450  1.1802 -0.8271  2.0624
   38MOL    C5017884   5.167   1.654   0.602  0.5398  0.3676 -0.0389
   38MOL    C5117885   5.079   1.735   0.679 -0.2112 -0.2529 -0.7418
   38MOL    C5217886   5.122   1.856   0.751  0.2013 -0.2943  0.4569
   38MOL    C5317887   5.256   1.892   0.740 -0.2776 -0.5744  0.2951
   38MOL    C5417888   5.343   1.802   0.669 -0.0752 -0.4455 -0.2840
   38MOL    C5517889   5.300   1.688   0.602  0.4448  0.3123 -0.1357
   38MOL    S5617890   5.015   1.954   0.845 -0.2831 -0.2333  0.1139
   38MOL    O5717891   5.098   2.033   0.935  0.0751  0.4191 -0.2649
   38MOL    O5817892   4.911   1.859   0.899 -0.6667 -0.0422  0.3620
   38MOL    C5917893   4.927   2.062   0.731  0.3711 -0.5403 -0.1555
   38MOL    C6017894   4.795   2.099   0.752 -0.1764  0.1165  0.0664
   38MOL    C6117895   4.726   2.191   0.667 -0.4978  0.1821 -0.2488
   38MOL    C6217896   4.793   2.236   0.550  0.2442  0.4935  0.6794
   38MOL    C6317897   4.933   2.214   0.534 -0.0327 -0.6801  0.1658
   38MOL    C6417898   5.000   2.128   0.627 -0.3165  0.8504  0.1234
   38MOL    O6517899   4.717   2.300   0.457 -0.0361 -0.7002 -0.3209
   38MOL    H6617900   5.135   1.563   0.555  1.1196  0.1853 -0.0732
   38MOL    H6717901   4.981   1.693   0.698  0.4588 -0.8912  1.5030
   38MOL    H6817902   5.297   1.979   0.789  0.4228  0.3771 -1.9380
   38MOL    H6917903   5.449   1.823   0.662  0.1744 -1.9646 -1.4148
   38MOL    H7017904   4.742   2.047   0.830 -0.5125 -1.4126 -1.1346
   38MOL    H7117905   4.620   2.211   0.672 -0.5131  0.4204 -1.2764
   38MOL    H7217906   4.989   2.261   0.454  0.6125 -1.7830 -0.0356
   38MOL    H7317907   5.108   2.117   0.625 -0.2270  1.4653  1.4073
   38MOL    C7417908   4.677   2.158   0.263  0.1629 -0.2723  0.6639
   38MOL    C7517909   4.687   2.128   0.128 -0.4387  0.4725 -0.0818
   38MOL    C7617910   4.759   2.220   0.047 -0.1834  0.4926  0.0992
   38MOL    C7717911   4.805   2.343   0.099 -0.0121  0.1332  0.8657
   38MOL    C7817912   4.796   2.367   0.237  0.1961  0.1853  0.0138
   38MOL    C7917913   4.733   2.271   0.324 -0.0277 -0.3584  0.3547
   38MOL    S8017914   4.781   2.165   8.299 -0.1232  0.3781 -0.1236
   38MOL    O8117915   4.837   2.283   8.233  0.4043 -0.0816  0.1634
   38MOL    O8217916   4.651   2.115   8.255 -0.4761 -0.4482 -0.3620
   38MOL    C8317917   4.896   2.026   8.325  0.1805  0.0705 -0.7877
   38MOL    C8417918   4.861   1.896   8.291  0.0683  0.1128 -0.2201
   38MOL    C8517919   4.947   1.793   8.330  0.0422  0.2405  0.5287
   38MOL    C8617920   5.066   1.814   8.409  0.3140  0.3122  0.3667
   38MOL    C8717921   5.088   1.948   0.023  0.3741 -0.5745 -0.8386
   38MOL    C8817922   5.006   2.048   8.412  0.4702  0.3467  0.0178
   38MOL    O8917923   5.151   1.716   0.025 -0.2877 -0.5373 -0.0879
   38MOL    H9017924   4.628   2.088   0.329  0.7273  1.2048  2.7205
   38MOL    H9117925   4.638   2.041   0.088 -0.3187  0.2022  0.3635
   38MOL    H9217926   4.843   2.424   0.038  0.1685  0.1516  1.0010
   38MOL    H9317927   4.832   2.460   0.278 -0.5668 -0.4026  2.0835
   38MOL    H9417928   4.771   1.877   8.234 -1.3496 -3.6219  3.0792
   38MOL    H9517929   4.920   1.693   8.299  1.6109  0.2387 -0.8484
   38MOL    H9617930   5.170   1.968   0.090  0.4698  0.4212 -1.2429
   38MOL    H9717931   5.015   2.154   0.008  0.6468  0.0332  1.5848
   38MOL    C9817932   4.998   1.656   0.208 -0.0190  0.1217  0.1597
   38MOL    C9917933   4.959   1.567   0.308  0.0362 -0.1314 -0.1451
   38MOL   C10017934   5.024   1.443   0.311  0.4129  0.5893 -0.0852
   38MOL   C10117935   5.126   1.411   0.219  0.0384 -0.3152  0.3051
   38MOL   C10217936   5.176   1.510   0.131 -0.0376 -0.6180  0.5475
   38MOL   C10317937   5.102   1.624   0.116 -0.3502 -0.2442 -0.3276
   38MOL   S10417938   4.985   1.326   0.441 -0.7266  0.0840  0.2273
   38MOL   O10517939   4.867   1.377   0.514  0.0464  0.2318  0.2333
   38MOL   O10617940   5.107   1.296   0.522  0.4973  0.0700  0.4121
   38MOL   C10717941   4.929   1.175   0.352  0.8070  0.0106  0.1404
   38MOL   C10817942   4.953   1.047   0.414 -0.8394  0.1014 -0.0353
   38MOL   C10917943   4.923   0.929   0.337 -0.3067 -0.6897 -0.9842
   38MOL   C11017944   4.864   0.940   0.209  0.1676 -0.4324 -0.6299
   38MOL   C11117945   4.835   1.063   0.150  0.0439  0.1869  0.3486
   38MOL   C11217946   4.870   1.177   0.223 -0.4488 -0.1615  0.5079
   38MOL   O11317947   4.836   0.819   0.150 -0.5467  0.0757 -0.1518
   38MOL   H11417948   4.952   1.754   0.207 -0.7455 -0.1878 -3.0726
   38MOL   H11517949   4.895   1.582   0.393  2.1374 -1.6257  1.7628
   38MOL   H11617950   5.167   1.311   0.217  0.0177 -0.3068 -1.2359
   38MOL   H11717951   5.253   1.485   0.059 -0.0369  1.1936 -0.0988
   38MOL   H11817952   4.986   1.047   0.517  1.5669  3.6378 -0.7205
   38MOL   H11917953   4.944   0.833   0.381  1.7247  0.8834  1.6199
   38MOL   H12017954   4.790   1.064   0.052 -2.0154  0.1060  1.2686
   38MOL   H12117955   4.851   1.273   0.178 -0.3233  0.2848  1.3883
   38MOL   C12217956   4.986   0.792   8.395 -0.5008 -0.0653 -0.2954
   38MOL   C12317957   5.004   0.764   8.257 -0.2864 -0.1164 -0.0470
   38MOL   C12417958   4.890   0.762   8.168  0.3605  0.1602 -1.2335
   38MOL   C12517959   4.768   0.810   8.215 -0.1121  0.3667 -0.1289
   38MOL   C12617960   4.749   0.826   8.356 -0.0539 -0.6668  0.5038
   38MOL   C12717961   4.858   0.812   0.021  0.5497  0.8298 -0.7636
   38MOL   S12817962   4.915   0.718   7.991 -0.1569  0.5397 -0.1359
   38MOL   O12917963   4.790   0.674   7.932  0.1546 -0.2678 -0.0899
   38MOL   O13017964   5.034   0.629   7.974 -0.0787  0.4636 -0.3127
   38MOL   C13117965   4.942   0.874   7.903  0.5214  0.4479 -0.2024
   38MOL   C13217966   5.051   0.889   7.809 -0.0007  0.1005  0.5885
   38MOL   C13317967   5.073   1.011   7.747 -0.2452  0.3014  0.9853
   38MOL   C13417968   4.981   1.116   7.767  1.1167 -0.1440 -1.0039
   38MOL   C13517969   4.868   1.104   7.854 -0.3001  0.4852  0.5834
   38MOL   C13617970   4.851   0.981   7.927  0.9396  0.0299  0.4084
   38MOL   O13717971   4.995   1.224   7.692  0.0061  0.8367 -0.5632
   38MOL   H13817972   5.072   0.777   0.033  0.9983  0.3162 -2.2287
   38MOL   H13917973   5.105   0.743   8.228  0.6134  0.1371  2.7928
   38MOL   H14017974   4.687   0.831   8.148 -1.4421 -0.4776  1.2014
   38MOL   H14117975   4.648   0.854   8.384  0.7659  2.8743  0.1596
   38MOL   H14217976   5.120   0.806   7.801  0.9891  0.9051  0.7038
   38MOL   H14317977   5.164   1.020   7.689 -0.6742 -0.0651  0.2518
   38MOL   H14417978   4.805   1.189   7.873  0.0755  0.4750  1.8746
   38MOL   H14517979   4.763   0.964   7.988 -0.3158  0.5437 -1.2337
   38MOL   C14617980   5.004   1.397   7.874  0.1251  0.3139  1.0523
   38MOL   C14717981   5.065   1.522   7.914 -0.3615  0.3398  0.3067
   38MOL   C14817982   5.145   1.591   7.823 -0.3551  0.2849 -0.0820
   38MOL   C14917983   5.176   1.537   7.694 -0.1309 -0.8215 -0.5088
   38MOL   C15017984   5.112   1.417   7.656 -0.2678 -0.0527 -0.1789
   38MOL   C15117985   5.040   1.344   7.745 -0.4326 -0.2200 -0.2662
   38MOL   S15217986   5.202   1.754   7.847 -0.0346  0.2327  0.1731
   38MOL   O15317987   5.295   1.787   7.736  0.5226 -0.1215 -0.1556
   38MOL   O15417988   5.261   1.761   7.983  0.2437 -0.7988 -0.3795
   38MOL   C15517989   5.066   1.857   7.829 -0.0526 -0.1293  0.0619
   38MOL   C15617990   5.029   1.937   7.942 -0.1578 -0.9529  0.3445
   38MOL   C15717991   4.930   2.038   7.916 -0.4173 -0.0687 -0.1337
   38MOL   C15817992   4.867   2.053   7.794  0.2545 -0.8149  0.4626
   38MOL   C15917993   4.905   1.964   7.687  0.2758  0.3778  0.3993
   38MOL   C16017994   5.009   1.872   7.703 -0.4795 -0.3310 -0.3132
   38MOL   O16117995   4.779   2.152   7.766  0.2562 -0.2560  0.0854
   38MOL   H16217996   4.935   1.341   7.935 -0.8718  0.2346 -0.1262
   38MOL   H16317997   5.061   1.555   8.017  1.0607  0.9641  0.1704
   38MOL   H16417998   5.230   1.593   7.619  0.9785 -1.1750  0.0139
   38MOL   H16517999   5.125   1.380   7.555 -1.8736  1.0732 -0.8273
   38MOL   H16618000   5.087   1.938   8.033  0.7285  1.6123 -0.1907
   38MOL   H16718001   4.902   2.111   7.991 -1.8211  0.0403 -0.7507
   38MOL   H16818002   4.854   1.982   7.593  0.3700 -0.9230  0.0909
   38MOL   H16918003   5.040   1.813   7.618  0.4871  0.5512 -0.5754
   38MOL   C17018004   4.592   2.294   7.805  0.1949  1.2746  0.0776
   38MOL   C17118005   4.483   2.331   7.882 -0.0755 -0.1377 -0.2021
   38MOL   C17218006   4.430   2.241   7.974  0.4631  0.6701 -0.0418
   38MOL   C17318007   4.484   2.115   7.994  0.4301  0.2213 -0.7481
   38MOL   C17418008   4.607   2.089   7.933 -0.0410  0.5330  0.1485
   38MOL   C17518009   4.662   2.173   7.836 -0.1745 -0.7408 -0.0651
   38MOL   S17618010   4.283   2.290   8.072 -0.0018 -0.2731  0.0783
   38MOL   O17718011   4.245   2.182   8.164  0.6382 -0.1263 -0.0928
   38MOL   O17818012   4.185   2.355   7.983 -0.2698 -0.7722  0.5316
   38MOL   C17918013   4.354   2.421   8.177  0.3209 -0.5314 -0.6462
   38MOL   C18018014   4.286   2.544   8.191 -0.8746  0.2164 -0.5767
   38MOL   C18118015   4.342   2.647   8.272 -0.3491 -0.5873 -0.1892
   38MOL   C18218016   4.460   2.625   8.345 -0.1008 -0.0985  0.0133
   38MOL   C18318017   4.525   2.497   8.324 -0.3411 -0.8830 -0.4856
   38MOL   C18418018   4.471   2.397   8.248 -0.8485  0.1207 -0.2009
   38MOL   O18518019   4.517   2.735   8.414  0.4679  0.1947 -0.0936
   38MOL   H18618020   4.629   2.361   7.728 -1.9667  0.8436 -1.3740
   38MOL   H18718021   4.436   2.427   7.870  1.2860  0.3024 -2.3400
   38MOL   H18818022   4.453   2.052   8.075 -0.9159  1.9277  0.0964
   38MOL   H18918023   4.654   1.993   7.953  1.7672  1.5419  0.8810
   38MOL   H19018024   4.195   2.570   8.139 -2.6485 -0.8316  1.8942
   38MOL   H19118025   4.304   2.748   8.268 -0.0804 -0.5125 -1.0667
   38MOL   H19218026   4.622   2.470   8.363 -0.0162  0.3811 -0.3814
   38MOL   H19318027   4.522   2.303   8.231  1.4460  1.0349  1.3300
   38MOL   C19418028   4.657   2.819   0.158  0.0888  0.3995  0.0430
   38MOL   C19518029   4.719   2.813   0.280 -0.4845  0.5085 -0.5460
   38MOL   C19618030   4.685   2.709   0.367  0.6420  0.6072 -0.1099
   38MOL   C19718031   4.585   2.621   0.331 -0.7759 -0.1473 -0.1984
   38MOL   C19818032   4.523   2.623   0.204  0.1104 -0.1723  0.5328
   38MOL   C19918033   4.562   2.724   0.118 -0.3026 -0.1675 -0.0835
   38MOL   S20018034   4.780   2.692   0.518 -0.0403 -0.0006  0.2273
   38MOL   O20118035   4.865   2.811   0.528 -0.5308  0.1275 -0.0237
   38MOL   O20218036   4.836   2.559   0.519  0.1295 -0.5073 -0.0364
   38MOL   C20318037   4.673   2.695   0.661  0.2189  0.9072  0.0860
   38MOL   C20418038   4.656   2.822   0.721 -0.5003  0.3620 -0.1849
   38MOL   C20518039   4.565   2.834   0.826 -0.4899  0.3676 -0.8668
   38MOL   C20618040   4.495   2.722   0.877 -0.2453 -0.5821 -0.3552
   38MOL   C20718041   4.505   2.591   0.813  0.4724  0.4146  0.3486
   38MOL   C20818042   4.596   2.580   0.705  0.2055  0.3819  0.0818
   38MOL   O20918043   4.410   2.729   0.989 -0.3655 -0.1374  0.0965
   38MOL   H21018044   4.686   2.896   0.088  0.4763  0.3081  0.1020
   38MOL   H21118045   4.805   2.876   0.301  0.6633 -0.4326 -2.2920
   38MOL   H21218046   4.554   2.546   0.402  0.1418  0.6059  1.0175
   38MOL   H21318047   4.451   2.548   0.178  0.6219 -0.1425 -0.9869
   38MOL   H21418048   4.708   2.907   0.681 -0.5653 -0.6349 -2.4481
   38MOL   H21518049   4.543   2.932   0.865 -1.6072 -1.0795  2.4099
   38MOL   H21618050   4.442   2.508   0.843  0.3571  0.0035 -0.9588
   38MOL   H21718051   4.604   2.490   0.645 -0.5042 -1.0000  2.0220
   38MOL   C21818052   4.508   2.861   1.153 -0.0567 -0.5569 -0.1429
   38MOL   C21918053   4.527   2.985   1.215  0.1210 -0.3086  0.8861
   38MOL   C22018054   4.433   3.087   1.189  0.8928  0.2834  0.0430
   38MOL   C22118055   4.321   3.055   1.111 -0.1394  0.0878 -0.0225
   38MOL   C22218056   4.306   2.931   1.049 -0.0770  0.7296  0.7140
   38MOL   C22318057   4.414   2.838   1.064 -0.2169  0.0575 -0.2429
   38MOL   S22418058   4.463   3.252   1.234  0.1708 -0.1739 -0.0507
   38MOL   O22518059   4.560   3.250   1.347 -0.0754 -0.4619  0.2417
   38MOL   O22618060   4.334   3.322   1.257 -0.1387 -0.6163  0.0494
   38MOL   C22718061   4.541   3.333   1.091 -0.2107  0.6889  0.2787
   38MOL   C22818062   4.517   3.468   1.061 -0.4653  0.0870 -0.2929
   38MOL   C22918063   4.600   3.532   0.973 -0.0439  0.5656 -0.2743
   38MOL   C23018064   4.697   3.464   0.896 -0.2584 -0.1256  0.8709
   38MOL   C23118065   4.715   3.325   0.924  0.0139  0.2304 -0.1109
   38MOL   C23218066   4.638   3.254   1.023 -0.1835 -0.0045 -0.3699
   38MOL   O23318067   4.766   3.530   0.803 -0.0616  0.0746  0.2316
   38MOL   H23418068   4.586   2.788   1.168  1.8968  0.9862 -2.4227
   38MOL   H23518069   4.612   3.008   1.277 -0.3989 -0.3122  1.6140
   38MOL   H23618070   4.254   3.136   1.090  2.3221  1.8225 -1.3771
   38MOL   H23718071   4.227   2.904   0.980  1.2749  0.0422 -0.6010
   38MOL   H23818072   4.439   3.531   1.103 -1.3800  0.4064 -2.4047
   38MOL   H23918073   4.602   3.638   0.956 -0.5523  0.4966 -0.7747
   38MOL   H24018074   4.804   3.280   0.883  1.4055  3.2793 -0.5279
   38MOL   H24118075   4.668   3.161   1.069 -1.3516  0.8863  2.3180
   38MOL   C24218076   4.577   3.564   0.647 -0.8943 -0.0088 -0.5979
   38MOL   C24318077   4.520   3.650   0.551 -0.5516  0.2589  0.7750
   38MOL   C24418078   4.564   3.784   0.538 -0.0520  0.0632  0.4456
   38MOL   C24518079   4.669   3.830   0.619 -0.1968  0.1606 -0.4626
   38MOL   C24618080   4.742   3.744   0.704 -0.3322 -0.4153  0.7308
   38MOL   C24718081   4.695   3.610   0.720  0.2526 -0.4637 -0.4616
   38MOL   S24818082   4.473   3.889   0.416 -0.1112  0.2094 -0.2513
   38MOL   O24918083   4.524   4.030   0.424  0.4080 -0.8332  0.1674
   38MOL   O25018084   4.329   3.867   0.442 -0.5025  0.2501 -0.0597
   38MOL   C25118085   4.509   3.836   0.246  0.0965 -0.7086 -0.3740
   38MOL   C25218086   4.466   3.918   0.144  0.5266  0.1399  0.2443
   38MOL   C25318087   4.497   3.889   0.005  1.0219  0.1079 -0.3846
   38MOL   C25418088   4.560   3.762   8.396  0.6088  0.3381  0.2418
   38MOL   C25518089   4.599   3.684   0.082 -0.1484 -0.2004  0.0985
   38MOL   C25618090   4.573   3.719   0.218 -1.0180  0.3791  0.9072
   38MOL   O25718091   4.589   3.719   8.271  0.1718 -0.3937 -0.0881
   38MOL   H25818092   4.532   3.466   0.646 -1.0264  0.0521 -2.1618
   38MOL   H25918093   4.432   3.621   0.496  1.5366 -2.3083 -1.3549
   38MOL   H26018094   4.697   3.934   0.618  0.7305 -0.0747  0.2361
   38MOL   H26118095   4.826   3.771   0.766  0.8082 -0.8521 -0.6112
   38MOL   H26218096   4.441   4.020   0.171 -0.7418  0.2150 -1.1568
   38MOL   H26318097   4.476   3.963   8.354  0.2735 -0.3514 -0.6252
   38MOL   H26418098   4.637   3.585   0.060 -0.2733 -0.7034  2.0072
   38MOL   H26518099   4.612   3.658   0.297 -0.0151  0.0983  0.2186
   38MOL   C26618100   4.816   3.782   8.261 -0.2106  0.3897 -0.1730
   38MOL   C26718101   4.927   3.847   8.203 -0.3922  0.0541 -0.8157
   38MOL   C26818102   4.916   3.904   8.075  0.1856 -0.3051 -0.7975
   38MOL   C26918103   4.790   3.907   8.016  0.4450 -0.1627  0.2890
   38MOL   C27018104   4.674   3.850   8.076  0.1116 -0.7291 -0.3336
   38MOL   C27118105   4.690   3.781   8.202  0.1820  0.3679 -0.6004
   38MOL   S27218106   5.062   3.968   7.984 -0.1084 -0.5203 -0.1364
   38MOL   O27318107   5.183   3.928   8.062 -0.4777 -0.1850 -0.1684
   38MOL   O27418108   5.050   4.111   7.952 -0.6317  0.1176  0.3164
   38MOL   C27518109   5.056   3.877   7.835  0.4814  0.7537 -0.7427
   38MOL   C27618110   4.977   3.919   7.730 -1.1248 -0.6381  0.8274
   38MOL   C27718111   4.967   3.843   7.617 -0.4478  0.1214 -0.3112
   38MOL   C27818112   5.039   3.727   7.595  0.6468 -0.1035 -0.1541
   38MOL   C27918113   5.119   3.679   7.705  0.5041  0.5303  0.3452
   38MOL   C28018114   5.124   3.749   7.827  0.3789 -0.5857 -0.0119
   38MOL   O28118115   5.029   3.659   7.480 -0.0310 -0.2917 -0.1216
   38MOL   H28218116   4.823   3.726   8.353  0.1026 -0.2144 -0.5580
   38MOL   H28318117   5.025   3.850   8.247  0.2738 -0.7200 -2.2202
   38MOL   H28418118   4.775   3.944   7.915 -0.8308 -3.4560 -0.8025
   38MOL   H28518119   4.579   3.859   8.026  0.2116 -0.2531 -0.4436
   38MOL   H28618120   4.921   4.008   7.754 -0.1073  0.3901 -0.5260
   38MOL   H28718121   4.911   3.874   7.531  0.3321  2.5130  0.0168
   38MOL   H28818122   5.168   3.584   7.691 -1.8590 -1.0159  2.1631
   38MOL   H28918123   5.188   3.712   7.905  0.6120  0.3508  0.2510
   38MOL   C29018124   4.781   3.626   7.495  0.1220  0.0490  0.0091
   38MOL   C29118125   4.654   3.639   7.434  0.6226 -0.0725  0.1148
   38MOL   C29218126   4.650   3.644   7.291 -0.0487 -0.7606 -0.0332
   38MOL   C29318127   4.766   3.645   7.213 -0.1751  0.4346 -0.5351
   38MOL   C29418128   4.892   3.639   7.275 -0.3351  0.4849 -0.4381
   38MOL   C29518129   4.905   3.646   7.416  0.4307  0.1780 -0.0739
   38MOL   S29618130   4.484   3.657   7.220 -0.1976 -0.2025 -0.2825
   38MOL   O29718131   4.433   3.781   7.282  0.3696  0.6771  0.6383
   38MOL   O29818132   4.411   3.532   7.248 -0.0338  0.4322  0.4413
   38MOL   C29918133   4.503   3.689   7.052  0.5120  0.7283  0.0926
   38MOL   C30018134   4.479   3.819   7.001 -0.3657  0.5159 -0.2658
   38MOL   C30118135   4.493   3.854   6.864  0.1850  0.6499 -0.4064
   38MOL   C30218136   4.534   3.751   6.776 -0.1656  0.2298  0.6423
   38MOL   C30318137   4.566   3.623   6.828 -0.4123  0.7181  0.4334
   38MOL   C30418138   4.545   3.586   6.961 -0.2144  0.2603 -0.5551
   38MOL   O30518139   4.532   3.773   6.639 -0.1820 -0.2526 -0.2064
   38MOL   H30618140   4.794   3.615   7.602  1.6708 -1.6183 -0.3235
   38MOL   H30718141   4.571   3.652   7.503 -0.3068  1.4877 -1.2687
   38MOL   H30818142   4.764   3.661   7.106 -1.4435 -2.4591 -1.0008
   38MOL   H30918143   4.977   3.654   7.210 -0.1237  0.9525 -0.0552
   38MOL   H31018144   4.455   3.895   7.074 -2.9302  0.1123 -0.6542
   38MOL   H31118145   4.496   3.959   6.836  2.5612  0.5717 -0.6020
   38MOL   H31218146   4.593   3.552   6.752 -0.5179  2.5448 -1.3537
   38MOL   H31318147   4.570   3.487   6.995 -2.3166  0.8521  3.0492
   38MOL   C31418148   4.750   3.681   6.559  0.4288 -0.0405 -0.3850
   38MOL   C31518149   4.875   3.703   6.498 -0.0237  0.3015 -0.4570
   38MOL   C31618150   4.899   3.830   6.436  0.1610 -0.6484  0.5702
   38MOL   C31718151   4.808   3.933   6.450  0.1283  0.0780 -0.2118
   38MOL   C31818152   4.697   3.917   6.531  0.6010 -0.7564 -0.2514
   38MOL   C31918153   4.657   3.790   6.576  1.0197 -0.5077 -0.1767
   38MOL   S32018154   5.037   3.852   6.320 -0.3552 -0.5030  0.2242
   38MOL   O32118155   5.151   3.775   6.374  0.1180 -0.2231  0.6021
   38MOL   O32218156   5.056   3.998   6.308 -0.3776 -0.0467  0.3261
   38MOL   C32318157   4.992   3.772   6.168  0.1801 -0.0457  0.3984
   38MOL   C32418158   5.073   3.676   6.103 -0.2213  0.2442  0.2351
   38MOL   C32518159   5.032   3.622   5.980 -0.0044  0.9354  0.2823
   38MOL   C32618160   4.900   3.650   5.930 -0.0979  0.6176 -0.4400
   38MOL   C32718161   4.824   3.750   5.986  0.1605 -0.3492 -0.0108
   38MOL   C32818162   4.874   3.810   6.104 -0.6378 -0.2052 -0.2156
   38MOL   O32918163   4.861   3.590   5.819  0.5586 -0.1322  0.1890
   38MOL   H33018164   4.719   3.583   6.590 -0.4918  1.1423  2.7055
   38MOL   H33118165   4.950   3.628   6.480  0.3352  1.0198 -2.0662
   38MOL   H33218166   4.835   4.033   6.419 -0.3686  0.8881  1.8754
   38MOL   H33318167   4.625   3.996   6.544  0.2174 -0.8014 -1.9590
   38MOL   H33418168   5.168   3.647   6.146  0.5999  1.2934 -0.8404
   38MOL   H33518169   5.086   3.552   5.918 -1.2616  2.4354 -2.6156
   38MOL   H33618170   4.723   3.763   5.951  0.1405 -2.5346 -0.8599
   38MOL   H33718171   4.809   3.880   6.154 -0.5078 -0.7969  0.8035
   38MOL   C33818172   4.662   3.456   5.872 -0.0515 -0.0584  0.0416
   38MOL   C33918173   4.608   3.331   5.897 -0.3319 -0.0962 -1.1344
   38MOL   C34018174   4.688   3.211   5.879  0.0808 -0.4448 -0.4984
   38MOL   C34118175   4.813   3.222   5.827 -0.5555 -0.1906  1.2556
   38MOL   C34218176   4.874   3.349   5.807  0.0375 -0.9798 -0.6409
   38MOL   C34318177   4.801   3.468   5.838  0.0776  0.2075  0.0564
   38MOL   S34418178   4.635   3.049   5.945  0.2147  0.1812 -0.4821
   38MOL   O34518179   4.563   3.064   6.072  0.1902 -0.5202  0.2529
   38MOL   O34618180   4.748   2.954   5.931  0.3678  0.4683  0.3275
   38MOL   C34718181   4.509   2.995   5.838  0.4878 -0.1615  0.3185
   38MOL   C34818182   4.547   2.913   5.733 -0.1067  0.5659 -1.1014
   38MOL   C34918183   4.453   2.858   5.651  0.0875  0.4422 -0.5791
   38MOL   C35018184   4.320   2.881   5.670  0.2364  0.1211 -0.2455
   38MOL   C35118185   4.278   2.967   5.777 -0.3038  0.8420  0.2919
   38MOL   C35218186   4.372   3.031   5.862  0.2158  0.5347  0.7378
   38MOL   O35318187   4.231   2.823   5.589 -0.3996  0.2000  0.5514
   38MOL   H35418188   4.599   3.543   5.886  0.1953  0.2704 -0.8391
   38MOL   H35518189   4.508   3.333   5.937  0.4106  1.1006  0.7147
   38MOL   H35618190   4.865   3.129   5.806 -0.8991 -0.3444  1.0814
   38MOL   H35718191   4.978   3.370   5.787  0.1094 -0.7490 -0.0267
   38MOL   H35818192   4.645   2.870   5.719 -1.4536 -2.6036 -1.2782
   38MOL   H35918193   4.488   2.798   5.568  0.6510  1.9066 -1.4249
   38MOL   H36018194   4.172   2.980   5.794 -0.8730  0.3754 -2.5456
   38MOL   H36118195   4.346   3.085   5.952 -0.2630  2.4224 -0.5152
   38MOL   C36218196   4.183   2.984   5.411  0.2146  0.1041 -0.2927
   38MOL   C36318197   4.095   3.071   5.349 -0.4084  0.1657 -0.1977
   38MOL   C36418198   3.968   3.093   5.400 -0.1477  0.6438 -0.0314
   38MOL   C36518199   3.926   3.011   5.503  0.1258 -0.5108  0.1797
   38MOL   C36618200   4.010   2.919   5.558  0.1712  0.6902  0.2944
   38MOL   C36718201   4.143   2.902   5.521  0.2199  0.0620 -0.0997
   38MOL   S36818202   3.859   3.211   5.316  0.2521 -0.0490 -0.5232
   38MOL   O36918203   3.930   3.288   5.217  0.1980 -0.5108 -0.7889
   38MOL   O37018204   3.776   3.275   5.414  1.0357  0.3190  0.5546
   38MOL   C37118205   3.754   3.100   5.229  0.1004  0.1530  0.0878
   38MOL   C37218206   3.622   3.076   5.275 -0.5309  0.2068 -0.5436
   38MOL   C37318207   3.530   3.002   5.195  0.1186  0.0529 -0.0043
   38MOL   C37418208   3.568   2.952   5.070 -0.5320 -0.7163 -0.0834
   38MOL   C37518209   3.702   2.967   5.028 -0.5020 -0.2889 -0.2641
   38MOL   C37618210   3.794   3.047   5.101  0.5276 -0.3738 -0.3271
   38MOL   O37718211   3.482   2.896   4.976 -0.5894 -0.0876  0.0235
   38MOL   H37818212   4.283   2.979   5.373  0.6213  1.1772  0.6094
   38MOL   H37918213   4.138   3.118   5.262  0.5018  1.5747  1.0044
   38MOL   H38018214   3.825   3.018   5.540  0.0915  1.8528 -0.2810
   38MOL   H38118215   3.979   2.845   5.631  3.3223 -3.3788 -2.2425
   38MOL   H38218216   3.583   3.120   5.366 -0.4242  0.9670 -0.8604
   38MOL   H38318217   3.427   2.996   5.226 -0.1217  1.6067 -0.4890
   38MOL   H38418218   3.728   2.930   4.930 -1.7778  0.3504 -0.8659
   38MOL   H38518219   3.894   3.059   5.063  0.2930  1.1813 -0.4849
   38MOL   C38618220   3.422   3.096   4.867  0.5308 -0.1927 -0.3266
   38MOL   C38718221   3.322   3.175   4.810  0.7851 -0.2150 -0.1100
   38MOL   C38818222   3.188   3.130   4.803 -0.3695  0.1836  0.4438
   38MOL   C38918223   3.156   3.005   4.859  0.3361 -0.1667  0.5980
   38MOL   C39018224   3.250   2.923   4.917  0.5272  0.6024 -0.3046
   38MOL   C39118225   3.385   2.974   4.929 -0.5658  0.3463 -0.0690
   38MOL   S39218226   3.054   3.221   4.719  0.3951 -0.4576 -0.1811
   38MOL   O39318227   3.007   3.314   4.822  0.1996 -0.0557  0.1148
   38MOL   O39418228   2.959   3.128   4.662  0.1356  0.2111 -0.0588
   38MOL   C39518229   3.119   3.329   4.596  1.1251 -0.0327  0.9388
   38MOL   C39618230   3.156   3.461   4.623 -0.5930 -0.0888 -0.3251
   38MOL   C39718231   3.201   3.546   4.519  0.8696  0.6513 -0.2637
   38MOL   C39818232   3.225   3.498   4.386 -0.7525  0.3215 -0.9572
   38MOL   C39918233   3.183   3.363   4.361  0.2633 -1.1699  0.4509
   38MOL   C40018234   3.126   3.281   4.462 -0.3939  0.0621  0.0188
   38MOL   O40118235   3.273   3.576   4.291 -0.0082  0.2043 -0.4160
   38MOL   H40218236   3.527   3.118   4.863  0.5660 -0.5306 -1.2381
   38MOL   H40318237   3.362   3.269   4.775 -0.2305  0.1209 -0.4020
   38MOL   H40418238   3.054   2.984   4.828  0.0978 -1.2321  2.0176
   38MOL   H40518239   3.229   2.824   4.957  0.0500  1.0323  0.5214
   38MOL   H40618240   3.142   3.490   4.726 -2.9260 -2.8262  0.2048
   38MOL   H40718241   3.225   3.648   4.546  1.5038  0.3622  0.2802
   38MOL   H40818242   3.188   3.320   4.262  0.5777 -2.1212  0.8706
   38MOL   H40918243   3.099   3.180   4.434  3.4576 -1.2906  0.8843
   38MOL   C41018244   3.503   3.580   4.378 -0.3230  0.0830 -0.4491
   38MOL   C41118245   3.640   3.589   4.343  0.3660 -0.0128  0.1456
   38MOL   C41218246   3.685   3.586   4.207 -0.2645 -0.5188  0.2449
   38MOL   C41318247   3.589   3.569   4.111 -0.1328 -0.2005  0.2262
   38MOL   C41418248   3.455   3.570   4.136  0.6479 -0.6512  0.5413
   38MOL   C41518249   3.407   3.577   4.268 -0.3266 -0.3843 -0.2705
   38MOL   S41618250   3.861   3.597   4.173  0.4185  0.2735 -0.6483
   38MOL   O41718251   3.910   3.719   4.242  0.2043  0.6767  0.0394
   38MOL   O41818252   3.886   3.594   4.025  0.3568  0.2051 -0.0471
   38MOL   C41918253   3.941   3.451   4.251 -1.1146 -0.2684  0.0018
   38MOL   C42018254   3.899   3.389   4.372  0.0152 -0.2951  0.3831
   38MOL   C42118255   3.973   3.276   4.417 -0.8228  0.0206 -0.3798
   38MOL   C42218256   4.090   3.227   4.354 -0.3979  0.0365 -0.8837
   38MOL   C42318257   4.137   3.296   4.243  0.3379  0.8033  0.4050
   38MOL   C42418258   4.069   3.412   4.196  0.5650  0.5744  0.5351
   38MOL   O42518259   4.146   3.111   4.399  0.4389  0.3273 -0.7968
   38MOL   H42618260   3.466   3.587   4.479  0.0766 -1.7503 -0.1642
   38MOL   H42718261   3.711   3.609   4.421 -0.0861  2.2161  0.0029
   38MOL   H42818262   3.620   3.563   4.007 -0.1966 -0.4990  0.2262
   38MOL   H42918263   3.387   3.568   4.053  3.0720 -1.8515 -1.5115
   38MOL   H43018264   3.810   3.424   4.423  1.3257  0.4012  2.2388
   38MOL   H43118265   3.922   3.226   4.498 -1.3704  0.2108 -0.6030
   38MOL   H43218266   4.216   3.244   4.191 -0.6799 -0.4216  0.0275
   38MOL   H43318267   4.110   3.466   4.112 -0.1551  0.5456  0.1638
   38MOL   C43418268   4.132   3.025   4.619 -0.0615  0.0992 -0.8834
   38MOL   C43518269   4.185   3.003   4.750  0.4428 -0.0602  0.4737
   38MOL   C43618270   4.311   3.061   4.788  0.1843  0.0086 -0.0341
   38MOL   C43718271   4.374   3.146   4.692 -0.3634 -0.5909 -0.1604
   38MOL   C43818272   4.315   3.168   4.569 -0.0988  0.4646 -0.4433
   38MOL   C43918273   4.197   3.102   4.530  0.0278 -0.6115 -0.1445
   38MOL   S44018274   4.373   3.043   4.951 -0.1049 -0.2869 -0.2533
   38MOL   O44118275   4.264   3.064   5.047  0.0038 -0.1952  0.1624
   38MOL   O44218276   4.485   3.139   4.959 -0.5120  0.2279  0.2544
   38MOL   C44318277   4.432   2.876   4.974  0.4830 -0.1955 -0.0224
   38MOL   C44418278   4.461   2.841   5.105 -0.1515 -0.2287 -0.1338
   38MOL   C44518279   4.508   2.710   5.135 -0.4421 -0.0214 -0.1799
   38MOL   C44618280   4.535   2.620   5.029  0.7808  0.2799  0.6416
   38MOL   C44718281   4.508   2.654   4.897  0.3017  0.5334 -0.2397
   38MOL   C44818282   4.441   2.777   4.875  0.8813 -0.4510  0.2317
   38MOL   O44918283   4.575   2.493   5.055 -0.7907  0.0779  0.8392
   38MOL   H45018284   4.040   2.974   4.595 -1.1640  0.9950  1.2200
   38MOL   H45118285   4.125   2.933   4.806  1.7927 -0.5804  1.2699
   38MOL   H45218286   4.471   3.185   4.715 -0.3125  0.8637 -2.7008
   38MOL   H45318287   4.365   3.225   4.492  0.5185 -0.1051 -0.4738
   38MOL   H45418288   4.443   2.921   5.176 -0.7783  0.0741 -0.6318
   38MOL   H45518289   4.522   2.683   5.239  1.7690  0.2172 -0.3786
   38MOL   H45618290   4.531   2.588   4.815 -0.8849  0.5781 -0.6315
   38MOL   H45718291   4.419   2.793   4.771  1.1797  3.8250  0.7262
   38MOL   C45818292   4.674   2.386   5.233  0.0215 -0.4283 -0.6740
   38MOL   C45918293   4.786   2.331   5.291  0.3239 -0.1694  0.3244
   38MOL   C46018294   4.919   2.366   5.246 -0.6087 -0.0551  0.5468
   38MOL   C46118295   4.937   2.455   5.138 -0.5156 -0.6110 -0.5291
   38MOL   C46218296   4.821   2.508   5.074  0.2736  0.4265  0.0674
   38MOL   C46318297   4.695   2.470   5.119 -0.5960 -0.0751 -0.0296
   38MOL   S46418298   5.058   2.298   5.339  0.0125  0.1855  0.2028
   38MOL   O46518299   5.150   2.223   5.247  0.4033  0.3401  0.2987
   38MOL   O46618300   4.997   2.224   5.449  0.0333 -0.1036 -0.2930
   38MOL   C46718301   5.139   2.433   5.412 -0.8024 -0.6917  0.2263
   38MOL   C46818302   5.234   2.509   5.333 -0.6813 -0.2766  0.6923
   38MOL   C46918303   5.304   2.616   5.397 -0.0558  0.4877 -0.0472
   38MOL   C47018304   5.287   2.649   5.530  1.4420 -0.2184 -0.3182
   38MOL   C47118305   5.200   2.562   5.609  0.0082  0.8123  0.0559
   38MOL   C47218306   5.130   2.455   5.556 -0.3627 -0.9088 -0.6496
   38MOL   O47318307   5.358   2.754   5.588  0.2845  0.1499 -0.4220
   38MOL   H47418308   4.571   2.367   5.257 -0.3505  0.4671 -1.5266
   38MOL   H47518309   4.785   2.265   5.376  2.5056 -0.6313  0.0200
   38MOL   H47618310   5.038   2.483   5.114 -0.6450  0.3077 -0.0461
   38MOL   H47718311   4.832   2.589   5.003  0.7580  0.0921 -0.2413
   38MOL   H47818312   5.246   2.483   5.229 -1.2708  2.3833 -0.0774
   38MOL   H47918313   5.364   2.685   5.339 -1.1501  2.8943  1.5779
   38MOL   H48018314   5.190   2.574   5.716 -1.4406  1.4218 -0.1363
   38MOL   H48118315   5.064   2.395   5.617 -0.4518  0.8206  1.0109
   38MOL   H48218316   5.391   2.815   5.525  0.7852 -0.8291 -1.1226
   39MOL     C118317   1.461   6.485   3.252  0.0921 -0.0640 -0.0883
   39MOL     C218318   1.411   6.597   3.181  0.5034  1.1169 -0.6268
   39MOL     C318319   1.453   6.726   3.226  0.3323 -0.3263 -0.2481
   39MOL     C418320   1.546   6.741   3.329 -0.0151  0.1405  0.0275
   39MOL     C518321   1.584   6.628   3.402  0.5254  0.4207 -1.1886
   39MOL     C618322   1.551   6.502   3.358  0.7847 -0.2209  0.1736
   39MOL     S718323   1.421   6.874   3.131 -0.3467  0.1901  0.2408
   39MOL     O818324   1.543   6.896   3.053  0.0598 -0.5673 -0.4264
   39MOL     O918325   1.365   6.977   3.217  0.5432 -0.0676  0.1563
   39MOL    C1018326   1.287   6.824   3.027  0.7105 -0.4506  0.0704
   39MOL    C1118327   1.161   6.868   3.065 -0.0732 -0.0061  0.1234
   39MOL    C1218328   1.044   6.830   2.992  1.1895  0.1696  0.3760
   39MOL    C1318329   1.061   6.750   2.878  0.1276 -0.0389  0.5806
   39MOL    C1418330   1.189   6.707   2.843  0.0205 -1.3334  0.6957
   39MOL    C1518331   1.303   6.747   2.913 -0.4236  0.6013  0.0910
   39MOL    O1618332   0.956   6.711   2.805  0.5654  0.0103 -0.1681
   39MOL    H1718333   1.433   6.383   3.230 -0.4361  0.1565 -0.4597
   39MOL    H1818334   1.338   6.581   3.103  1.3789  3.6865 -2.0179
   39MOL    H1918335   1.572   6.841   3.357 -0.8178  0.6962 -1.1664
   39MOL    H2018336   1.658   6.631   3.480 -0.8533  0.3665  0.1398
   39MOL    H2118337   1.142   6.938   3.145 -1.3960 -1.4716  1.1110
   39MOL    H2218338   0.942   6.858   3.014  0.9477  0.7678 -1.4557
   39MOL    H2318339   1.195   6.651   2.750  0.9104  2.5611 -1.7289
   39MOL    H2418340   1.398   6.708   2.880  0.3143  1.7236  0.8303
   39MOL    H2518341   1.586   6.411   3.405 -1.1300 -1.2940 -0.4283
   39MOL    C2618342   0.937   6.470   2.837  0.6303  1.0542  0.0480
   39MOL    C2718343   0.853   6.360   2.862  0.6045  0.2589  0.1961
   39MOL    C2818344   0.716   6.377   2.883 -0.0520  0.2267 -0.1507
   39MOL    C2918345   0.657   6.503   2.874 -0.1860  0.1752 -0.4960
   39MOL    C3018346   0.736   6.615   2.853 -0.4873  0.1878  0.3651
   39MOL    C3118347   0.880   6.598   2.835  0.5504  0.2608 -1.1213
   39MOL    S3218348   0.609   6.235   2.895  0.4446  0.0640 -0.1335
   39MOL    O3318349   0.650   6.142   2.790  1.1638 -0.4790  0.2600
   39MOL    O3418350   0.471   6.286   2.898 -0.4038 -0.1085 -0.0437
   39MOL    C3518351   0.653   6.169   3.052 -0.0371 -0.6139 -0.2630
   39MOL    C3618352   0.771   6.095   3.070  0.2537 -0.1680  0.8693
   39MOL    C3718353   0.808   6.039   3.196 -0.0991  0.4457  0.0950
   39MOL    C3818354   0.723   6.068   3.309 -0.4289  0.1402 -0.4510
   39MOL    C3918355   0.606   6.156   3.291 -0.4012 -0.2633 -0.1378
   39MOL    C4018356   0.578   6.216   3.165  0.3269  0.2846 -0.2835
   39MOL    O4118357   0.736   5.988   3.418 -0.3632 -0.1049  0.2833
   39MOL    H4218358   1.043   6.461   2.816  0.2342 -0.5006 -1.4402
   39MOL    H4318359   0.900   6.263   2.865  2.5750  1.1688 -0.5371
   39MOL    H4418360   0.551   6.523   2.888  0.4401  2.7816  0.9337
   39MOL    H4518361   0.686   6.711   2.850  1.3531  1.1322 -1.0542
   39MOL    H4618362   0.828   6.054   2.988 -0.2242 -2.5693  1.6912
   39MOL    H4718363   0.886   5.965   3.201  0.1162  0.3458 -3.7410
   39MOL    H4818364   0.535   6.180   3.369 -0.7435  1.8737 -1.0665
   39MOL    H4918365   0.494   6.284   3.169 -0.5557 -0.5057 -3.6734
   39MOL    C5018366   0.949   5.978   3.533 -0.0415 -0.4987 -0.0113
   39MOL    C5118367   1.034   6.035   3.638  0.3804  0.8042 -0.2260
   39MOL    C5218368   0.980   6.133   3.726 -0.4170 -0.6875  0.7022
   39MOL    C5318369   0.850   6.175   3.713 -0.2949 -0.3281 -0.3775
   39MOL    C5418370   0.767   6.133   3.608 -0.2191  0.1314  0.0522
   39MOL    C5518371   0.820   6.030   3.522  0.6318 -0.1205  0.6533
   39MOL    S5618372   1.083   6.210   3.853  0.3445  0.5181 -0.0624
   39MOL    O5718373   1.193   6.115   3.879  0.0162 -0.1682  0.2178
   39MOL    O5818374   0.992   6.253   3.961 -0.0458  0.4460 -0.4415
   39MOL    C5918375   1.161   6.352   3.777 -0.1930  0.1596 -0.5768
   39MOL    C6018376   1.237   6.333   3.665 -0.5691 -0.4478  0.4582
   39MOL    C6118377   1.318   6.440   3.615 -0.7949  0.1964  0.3338
   39MOL    C6218378   1.307   6.570   3.672 -0.2519  0.1085  0.3790
   39MOL    C6318379   1.234   6.582   3.793 -0.2109 -0.1220  0.1243
   39MOL    C6418380   1.163   6.475   3.843  0.0872 -0.5046 -0.1403
   39MOL    O6518381   1.374   6.675   3.616  0.0892  0.0677  0.3426
   39MOL    H6618382   0.981   5.899   3.466 -1.0205 -1.1723  0.3063
   39MOL    H6718383   1.130   5.989   3.654 -0.6615 -2.0438 -1.7730
   39MOL    H6818384   0.820   6.246   3.788 -1.2289 -2.4190  1.2799
   39MOL    H6918385   0.672   6.185   3.607  0.5434  1.5790  1.7988
   39MOL    H7018386   1.246   6.233   3.624  1.3417 -0.0490 -0.1593
   39MOL    H7118387   1.388   6.415   3.537  0.1412 -0.0518  1.2425
   39MOL    H7218388   1.243   6.676   3.846 -0.6078  1.3454 -2.3063
   39MOL    H7318389   1.115   6.484   3.939 -1.3266 -1.5012 -0.7400
   39MOL    C7418390   1.186   6.746   3.477  0.0349  0.3708 -0.2028
   39MOL    C7518391   1.103   6.857   3.434  0.2720 -0.1516  0.2149
   39MOL    C7618392   1.146   6.990   3.464  0.4770  0.2231 -0.1768
   39MOL    C7718393   1.271   7.016   3.524 -0.6227  0.0262  0.2227
   39MOL    C7818394   1.347   6.902   3.573  0.4320 -0.0943  0.4161
   39MOL    C7918395   1.304   6.773   3.546 -0.2693 -0.2742 -1.1114
   39MOL    S8018396   1.051   7.124   3.415 -0.3936  0.0734 -0.1607
   39MOL    O8118397   1.036   7.210   3.534  0.2342 -0.1862 -0.1764
   39MOL    O8218398   0.932   7.072   3.351  0.3792 -0.3155  0.0111
   39MOL    C8318399   1.139   7.217   3.301 -0.1809 -0.8015  0.1317
   39MOL    C8418400   1.105   7.208   3.166  0.9210 -0.0059 -0.1115
   39MOL    C8518401   1.158   7.295   3.074 -0.1984  0.7274  0.3743
   39MOL    C8618402   1.251   7.388   3.118 -0.4547  0.6655 -0.1822
   39MOL    C8718403   1.289   7.397   3.254  0.7658  0.1469 -0.1991
   39MOL    C8818404   1.234   7.311   3.349 -0.3632 -0.6799 -0.0402
   39MOL    O8918405   1.314   7.469   3.027  0.1281  0.4743  0.3074
   39MOL    H9018406   1.148   6.646   3.462 -3.3003  1.5809 -0.2308
   39MOL    H9118407   1.006   6.831   3.393 -0.6648  1.7531  1.1118
   39MOL    H9218408   1.302   7.120   3.529 -0.7869 -0.0075  3.0988
   39MOL    H9318409   1.437   6.920   3.629 -0.3494  1.9226  1.0839
   39MOL    H9418410   1.039   7.129   3.133 -2.0730  2.0982  0.6305
   39MOL    H9518411   1.138   7.304   2.968 -2.8264  0.6871  0.8374
   39MOL    H9618412   1.361   7.473   3.281 -0.8555  2.0252 -1.0623
   39MOL    H9718413   1.270   7.320   3.451 -0.9895 -3.2741  0.4484
   39MOL    C9818414   1.202   7.672   3.087 -0.2969  0.0241  0.2899
   39MOL    C9918415   1.211   7.815   3.098  0.3336  0.4642  0.6919
   39MOL   C10018416   1.335   7.883   3.068 -0.1054  0.4260 -0.2908
   39MOL   C10118417   1.454   7.807   3.049 -0.2666 -0.5823  0.3646
   39MOL   C10218418   1.442   7.668   3.034  0.3152  0.6782  0.2955
   39MOL   C10318419   1.318   7.603   3.045 -0.2431 -0.0031 -0.2663
   39MOL   S10418420   1.352   8.057   3.092 -0.0403 -0.3101 -0.1742
   39MOL   O10518421   1.223   8.113   3.059  0.4463  0.3381 -0.1486
   39MOL   O10618422   1.476   8.102   3.030 -0.2321 -0.1522 -0.1112
   39MOL   C10718423   1.371   8.074   3.271 -0.8733 -0.4602  0.6946
   39MOL   C10818424   1.423   7.975   3.357  0.3835  0.3610 -0.5419
   39MOL   C10918425   1.435   8.000   3.496  0.9063 -0.7939 -0.4128
   39MOL   C11018426   1.403   8.127   3.548 -0.5441 -0.0794  0.4865
   39MOL   C11118427   1.358   8.230   3.465 -1.0631 -0.0383 -0.1809
   39MOL   C11218428   1.339   8.201   3.324 -0.1667 -0.5903 -0.2085
   39MOL   O11318429   1.408   8.155   3.679  0.0818 -0.1089 -0.6255
   39MOL   H11418430   1.105   7.624   3.092 -0.8107  0.7690 -1.9737
   39MOL   H11518431   1.122   7.875   3.113  0.8185  1.6576 -0.9752
   39MOL   H11618432   1.554   7.847   3.048  1.6386 -4.9417 -3.2941
   39MOL   H11718433   1.525   7.602   3.016 -1.1961 -2.0058  2.6954
   39MOL   H11818434   1.437   7.876   3.317 -0.4978  0.3375 -0.8206
   39MOL   H11918435   1.458   7.919   3.564  1.5358 -1.3523 -1.2861
   39MOL   H12018436   1.336   8.322   3.516  2.2990  0.1743  0.9926
   39MOL   H12118437   1.296   8.272   3.254 -0.2874 -0.1813  0.2718
   39MOL   C12218438   1.537   8.032   3.839 -0.1466 -0.2768  0.0471
   39MOL   C12318439   1.657   8.023   3.914 -0.1287  0.5401  0.1471
   39MOL   C12418440   1.753   8.119   3.904 -0.3418  0.1474  0.3134
   39MOL   C12518441   1.736   8.239   3.827  0.0772  0.6723 -0.0683
   39MOL   C12618442   1.619   8.243   3.751 -0.1677 -0.4956  0.4888
   39MOL   C12718443   1.520   8.143   3.756 -0.4614  0.4046 -0.5852
   39MOL   S12818444   1.904   8.095   3.990  0.1656 -0.0167 -0.2936
   39MOL   O12918445   1.880   8.028   4.116 -0.3144  0.6526 -0.1054
   39MOL   O13018446   1.978   8.218   3.973 -0.3515  0.3391 -0.0677
   39MOL   C13118447   2.001   7.978   3.887 -0.2303 -0.2345  0.4965
   39MOL   C13218448   2.113   7.920   3.946  0.8340 -0.6823 -0.4938
   39MOL   C13318449   2.200   7.834   3.870  0.9383  0.1244  0.4631
   39MOL   C13418450   2.158   7.795   3.738 -0.2827  0.4467 -0.5268
   39MOL   C13518451   2.042   7.849   3.687  0.8453  0.1418 -0.0539
   39MOL   C13618452   1.961   7.943   3.758 -0.2878 -0.4439 -0.2080
   39MOL   O13718453   2.217   7.692   3.670  0.0758 -0.0305  0.7215
   39MOL   H13818454   1.469   7.948   3.848  0.9959 -1.2190 -0.0372
   39MOL   H13918455   1.656   7.942   3.985 -1.4090  0.8370  0.4832
   39MOL   H14018456   1.819   8.308   3.833  0.1406  0.5225  0.7647
   39MOL   H14118457   1.598   8.327   3.687  2.4215  0.4047  0.7593
   39MOL   H14218458   2.143   7.927   4.049 -1.8385 -1.5582  0.3832
   39MOL   H14318459   2.273   7.776   3.923 -0.2922 -0.9485  1.0160
   39MOL   H14418460   2.013   7.811   3.590 -0.0255  1.6216 -0.3909
   39MOL   H14518461   1.872   7.980   3.710  1.6059  1.3030 -2.4639
   39MOL   C14618462   2.311   7.485   3.753 -0.3176  0.4581  0.2518
   39MOL   C14718463   2.281   7.355   3.805  0.7138 -0.4979 -0.0638
   39MOL   C14818464   2.153   7.303   3.792  0.0767 -0.3035  0.1093
   39MOL   C14918465   2.051   7.377   3.729  0.1065 -0.5364 -0.0652
   39MOL   C15018466   2.071   7.512   3.696 -0.3784 -0.2747  0.3581
   39MOL   C15118467   2.201   7.564   3.706  0.4734  0.2324 -0.7787
   39MOL   S15218468   2.116   7.130   3.845 -0.1263 -0.2788  0.1796
   39MOL   O15318469   2.018   7.135   3.952  0.6763  0.0915 -0.2027
   39MOL   O15418470   2.245   7.067   3.871 -0.3221  0.3505 -0.5914
   39MOL   C15518471   2.038   7.049   3.697  0.2567  0.3284  0.3903
   39MOL   C15618472   1.921   6.969   3.717  0.6632 -0.1435 -0.2748
   39MOL   C15718473   1.858   6.919   3.603  0.1261  0.2410  0.0107
   39MOL   C15818474   1.923   6.921   3.475 -0.3556  0.3156 -0.0608
   39MOL   C15918475   2.045   6.996   3.456  0.0344 -0.4561  0.3537
   39MOL   C16018476   2.096   7.069   3.570  0.2130 -0.5262  0.0252
   39MOL   O16118477   1.862   6.869   3.363  0.2390  0.9326  0.3400
   39MOL   H16218478   2.406   7.531   3.776 -0.6466  1.5647 -0.5245
   39MOL   H16318479   2.354   7.292   3.854  1.3454  0.5386  0.3500
   39MOL   H16418480   1.950   7.343   3.715  0.4793 -1.9047  0.5073
   39MOL   H16518481   1.988   7.569   3.659 -1.8202 -1.0642  2.2896
   39MOL   H16618482   1.884   6.961   3.819  0.0496 -0.7857 -0.5434
   39MOL   H16718483   1.761   6.874   3.617  0.5365 -0.0283  2.1491
   39MOL   H16818484   2.100   7.005   3.364  2.9196  2.4565  2.2425
   39MOL   H16918485   2.181   7.135   3.570  0.0891 -0.3555  1.6800
   39MOL   C17018486   1.908   6.953   3.140 -0.1446 -0.7738  0.5177
   39MOL   C17118487   1.878   7.051   3.042 -0.1843  0.2989 -0.3193
   39MOL   C17218488   1.766   7.137   3.063 -0.2792  0.6264  0.5076
   39MOL   C17318489   1.695   7.139   3.185  0.2151  0.1775 -0.9041
   39MOL   C17418490   1.729   7.036   3.280 -0.0586  0.1276  0.1876
   39MOL   C17518491   1.833   6.950   3.258 -0.2274  0.0299 -0.4056
   39MOL   S17618492   1.712   7.239   2.924 -0.4695 -0.0622  0.3873
   39MOL   O17718493   1.820   7.257   2.829  0.1627  0.4313  0.1424
   39MOL   O17818494   1.653   7.358   2.982  0.2227 -0.6096  0.5698
   39MOL   C17918495   1.591   7.140   2.832 -0.0417 -0.5421  0.3253
   39MOL   C18018496   1.626   7.018   2.768 -1.0901 -0.5254  0.3174
   39MOL   C18118497   1.529   6.945   2.700 -0.1323  0.1872 -0.0187
   39MOL   C18218498   1.396   6.992   2.685  0.2350 -0.1992  1.0364
   39MOL   C18318499   1.365   7.118   2.737 -1.4458  0.4825  0.3658
   39MOL   C18418500   1.460   7.194   2.806  0.1928 -0.0200  0.2750
   39MOL   O18518501   1.304   6.912   2.624  0.2014 -0.5650  0.2181
   39MOL   H18618502   1.992   6.886   3.127 -0.5708 -1.1454 -0.4062
   39MOL   H18718503   1.936   7.066   2.952 -0.7132 -2.1615 -1.1099
   39MOL   H18818504   1.614   7.207   3.207  1.2189  0.9714  0.4289
   39MOL   H18918505   1.669   7.020   3.368 -2.3816 -1.8447 -1.6808
   39MOL   H19018506   1.727   6.983   2.782 -0.1201  1.9806 -0.1853
   39MOL   H19118507   1.549   6.857   2.641 -1.1495 -1.6156  2.2570
   39MOL   H19218508   1.263   7.150   2.725 -1.0464  2.4524  1.9856
   39MOL   H19318509   1.442   7.290   2.853  3.9821 -0.1727  2.2581
   39MOL   C19418510   1.350   6.963   2.393  0.1062  0.1643  0.6450
   39MOL   C19518511   1.309   7.020   2.272  0.2301  0.6750 -0.7417
   39MOL   C19618512   1.172   7.053   2.259 -0.1451  0.2039 -0.4798
   39MOL   C19718513   1.082   7.034   2.362  0.2102  0.3455  0.4950
   39MOL   C19818514   1.122   6.983   2.485  0.0871 -0.0721 -0.1873
   39MOL   C19918515   1.260   6.956   2.502  0.0410  0.0059 -0.0236
   39MOL   S20018516   1.117   7.122   2.106  0.0512 -0.1546 -0.5401
   39MOL   O20118517   0.974   7.086   2.089 -0.4188  0.0262  1.1827
   39MOL   O20218518   1.212   7.084   2.002 -0.4146 -0.1544  0.1568
   39MOL   C20318519   1.126   7.301   2.121  0.8176  0.1271  0.0975
   39MOL   C20418520   1.169   7.361   2.242 -0.2723 -0.7722  0.3336
   39MOL   C20518521   1.151   7.500   2.257 -0.6123  0.2984  0.1933
   39MOL   C20618522   1.102   7.580   2.152  0.4676 -0.1274  0.1469
   39MOL   C20718523   1.065   7.520   2.030 -0.2452 -0.0021 -0.6082
   39MOL   C20818524   1.077   7.384   2.015  0.0069 -0.1087  0.1797
   39MOL   O20918525   1.077   7.710   2.180 -0.5271  0.0609  0.5826
   39MOL   H21018526   1.451   6.929   2.409 -0.3065 -0.5875  1.7512
   39MOL   H21118527   1.380   7.035   2.191  0.6430  1.0789 -0.3107
   39MOL   H21218528   0.979   7.059   2.339 -0.5467 -1.6532  1.5517
   39MOL   H21318529   1.052   6.961   2.565 -1.7896 -1.6117 -2.1903
   39MOL   H21418530   1.210   7.298   2.320  1.6668  0.4955  0.3790
   39MOL   H21518531   1.179   7.550   2.348  1.4982  0.5148 -0.5684
   39MOL   H21618532   1.026   7.575   1.945 -1.0628 -1.9816 -1.5519
   39MOL   H21718533   1.028   7.339   1.930 -2.0819  1.0292  0.7591
   39MOL   C21818534   1.298   7.811   2.183 -0.4772  0.4742  0.0521
   39MOL   C21918535   1.384   7.905   2.133  0.9659  0.3578 -0.6394
   39MOL   C22018536   1.344   7.994   2.031 -0.1630  0.2270  0.6892
   39MOL   C22118537   1.216   7.988   1.980 -0.3487 -0.2369 -0.2965
   39MOL   C22218538   1.122   7.895   2.032 -0.6182 -0.7838 -0.4805
   39MOL   C22318539   1.166   7.798   2.127 -0.4853 -0.1056  0.1539
   39MOL   S22418540   1.450   8.130   1.985  0.2882 -0.3395  0.1261
   39MOL   O22518541   1.547   8.152   2.094 -0.5792  0.3237 -0.0800
   39MOL   O22618542   1.360   8.244   1.947 -0.9099 -0.0010 -0.7391
   39MOL   C22718543   1.546   8.061   1.845  0.5825 -0.9889 -0.2694
   39MOL   C22818544   1.476   8.002   1.737 -0.3582 -0.3310 -0.2765
   39MOL   C22918545   1.552   7.958   1.630  0.2078  0.2076  0.8546
   39MOL   C23018546   1.692   7.940   1.642 -0.1647  0.0374 -0.1370
   39MOL   C23118547   1.761   7.993   1.755  0.4936 -0.4263 -0.1872
   39MOL   C23218548   1.684   8.061   1.849 -0.3116 -0.5178  0.1414
   39MOL   O23318549   1.753   7.879   1.536 -0.1352 -0.2577 -0.4959
   39MOL   H23418550   1.328   7.749   2.267 -2.7279 -0.4493  0.2090
   39MOL   H23518551   1.484   7.910   2.172  2.1329 -1.4743 -3.2609
   39MOL   H23618552   1.190   8.055   1.899 -2.4154 -2.1705 -1.2915
   39MOL   H23718553   1.020   7.885   1.996 -0.5621  0.6054 -1.0346
   39MOL   H23818554   1.369   8.002   1.729 -0.4486 -2.5896  0.6121
   39MOL   H23918555   1.499   7.916   1.546  2.2597 -2.3082  0.7793
   39MOL   H24018556   1.869   7.999   1.754  0.3915  1.8400 -1.9416
   39MOL   H24118557   1.724   8.116   1.932  2.3914 -1.1812 -0.6755
   39MOL   C24218558   1.978   7.809   1.505 -0.7259  0.1194  0.2685
   39MOL   C24318559   2.084   7.724   1.543 -0.0061  0.7004 -0.1571
   39MOL   C24418560   2.074   7.633   1.644 -0.2170 -0.4234 -0.2342
   39MOL   C24518561   1.954   7.624   1.706  0.4806 -0.2593 -0.7287
   39MOL   C24618562   1.842   7.711   1.682  0.5412  0.0632 -0.1212
   39MOL   C24718563   1.854   7.796   1.570  0.2164 -0.4848  0.6663
   39MOL   S24818564   2.214   7.537   1.702 -0.5258 -0.1844 -0.5775
   39MOL   O24918565   2.200   7.528   1.846  0.9978 -0.1036  0.0147
   39MOL   O25018566   2.333   7.601   1.644  0.4502 -0.1584 -0.1039
   39MOL   C25118567   2.188   7.373   1.638 -0.4698  0.2293 -0.2692
   39MOL   C25218568   2.065   7.309   1.642 -0.0610 -0.1114 -0.1223
   39MOL   C25318569   2.039   7.188   1.590  0.4012  0.0508 -0.7190
   39MOL   C25418570   2.142   7.123   1.514 -0.2806 -0.2170  0.3098
   39MOL   C25518571   2.268   7.184   1.511  0.0621  0.3523  0.2060
   39MOL   C25618572   2.291   7.305   1.576  0.2347  0.4125 -0.3696
   39MOL   O25718573   2.110   7.012   1.445  0.0713  0.0090  0.4146
   39MOL   H25818574   1.993   7.862   1.413  1.2714  0.1236  0.5671
   39MOL   H25918575   2.177   7.721   1.488  0.8979  0.0133  1.4101
   39MOL   H26018576   1.945   7.549   1.784 -0.4922  1.3343  0.7259
   39MOL   H26118577   1.749   7.701   1.735 -0.0613 -1.3684 -1.4370
   39MOL   H26218578   1.976   7.350   1.688  0.2153 -0.8358  1.0950
   39MOL   H26318579   1.944   7.139   1.602  0.3023 -0.0306 -1.7602
   39MOL   H26418580   2.346   7.136   1.454  3.3933  2.6988  2.5794
   39MOL   H26518581   2.388   7.352   1.579  0.3908  0.0488  2.7964
   39MOL   C26618582   2.012   6.902   1.251  0.2205 -0.1736 -0.7383
   39MOL   C26718583   1.931   6.918   1.136  0.0573  0.1153 -0.1937
   39MOL   C26818584   1.904   7.042   1.077  0.0104  0.2945  0.7812
   39MOL   C26918585   1.962   7.152   1.129  0.2833 -0.4955 -0.8546
   39MOL   C27018586   2.039   7.146   1.248 -0.3787  0.3978 -0.3771
   39MOL   C27118587   2.058   7.018   1.316 -0.3789  0.3556  0.1733
   39MOL   S27218588   1.799   7.051   0.939  0.1507 -0.2229 -0.1205
   39MOL   O27318589   1.854   6.961   0.835  0.7484 -0.0507 -0.1002
   39MOL   O27418590   1.795   7.196   0.908 -0.3527  0.4224  0.1826
   39MOL   C27518591   1.634   6.990   0.995  1.3319 -0.2143 -0.0561
   39MOL   C27618592   1.615   6.950   1.128  0.4422 -0.8376  0.3072
   39MOL   C27718593   1.485   6.910   1.170 -0.0731 -0.7736  0.0508
   39MOL   C27818594   1.375   6.911   1.085  0.1038  0.1220 -0.1865
   39MOL   C27918595   1.396   6.952   0.954 -0.2343 -0.5401  0.1385
   39MOL   C28018596   1.521   6.992   0.910  0.5459  0.1134 -0.0568
   39MOL   O28118597   1.257   6.861   1.133  0.2156 -0.1714  0.2702
   39MOL   H28218598   2.025   6.803   1.294  1.6081  0.7620  1.0559
   39MOL   H28318599   1.883   6.837   1.083  2.5872 -0.8545 -1.1093
   39MOL   H28418600   1.951   7.250   1.084 -0.4830  0.0691  0.5165
   39MOL   H28518601   2.062   7.237   1.301 -1.1779  0.5063 -0.2103
   39MOL   H28618602   1.689   6.965   1.205 -1.6507  2.5347  1.7780
   39MOL   H28718603   1.463   6.872   1.269 -0.7876 -0.3251  0.0687
   39MOL   H28818604   1.311   6.953   0.887 -0.9617  1.8501  1.0467
   39MOL   H28918605   1.540   7.025   0.809 -0.4643 -2.1576 -1.0212
   39MOL   C29018606   1.268   6.643   1.014 -0.4506 -0.0290  0.2423
   39MOL   C29118607   1.226   6.508   1.009 -0.3645 -0.3070  0.1102
   39MOL   C29218608   1.152   6.461   1.118  0.4929  0.6871  0.0230
   39MOL   C29318609   1.118   6.541   1.226  0.4187  0.0817  0.0288
   39MOL   C29418610   1.154   6.677   1.226 -0.1078  0.8409 -0.1322
   39MOL   C29518611   1.230   6.727   1.119 -0.7349  0.1653 -0.2352
   39MOL   S29618612   1.086   6.298   1.116  0.3623  0.0489 -0.0258
   39MOL   O29718613   1.086   6.263   0.973 -0.1382  0.1106 -0.1391
   39MOL   O29818614   0.962   6.297   1.195  0.2537  0.3312  0.3568
   39MOL   C29918615   1.212   6.199   1.200  0.3303 -0.0463  0.9401
   39MOL   C30018616   1.245   6.238   1.329  0.1643 -0.7355 -0.6988
   39MOL   C30118617   1.327   6.161   1.408  0.8305 -0.3947 -0.0464
   39MOL   C30218618   1.376   6.041   1.354 -0.0350  0.8062 -1.1312
   39MOL   C30318619   1.333   5.998   1.226 -0.1420 -0.0984  0.2577
   39MOL   C30418620   1.249   6.075   1.145 -0.4685  0.1075 -0.1143
   39MOL   O30518621   1.444   5.950   1.431 -0.1679  0.2915 -0.4644
   39MOL   H30618622   1.323   6.685   0.931  2.3645 -0.3175  1.9061
   39MOL   H30718623   1.251   6.441   0.928  1.0928 -0.1759  0.4263
   39MOL   H30818624   1.062   6.505   1.311  0.3203 -0.6810 -0.3503
   39MOL   H30918625   1.136   6.738   1.313 -1.7198 -3.5033  2.7659
   39MOL   H31018626   1.176   6.302   1.382 -1.5712 -2.3785 -0.8831
   39MOL   H31118627   1.330   6.200   1.509  2.0400 -0.6639  0.0361
   39MOL   H31218628   1.379   5.908   1.187 -0.5497 -0.2202  0.0632
   39MOL   H31318629   1.206   6.045   1.051 -2.3560  1.5421  0.2673
   39MOL   C31418630   1.651   6.061   1.481 -0.0784  0.3656  0.1309
   39MOL   C31518631   1.793   6.067   1.473 -0.1332  0.1824 -0.3026
   39MOL   C31618632   1.861   5.969   1.398 -0.6442  0.8555 -0.5723
   39MOL   C31718633   1.793   5.870   1.326 -0.0991  0.4146 -0.4402
   39MOL   C31818634   1.652   5.867   1.331 -0.3421 -0.3361  0.1628
   39MOL   C31918635   1.581   5.955   1.413  0.0817  0.5623  0.1610
   39MOL   S32018636   2.042   5.981   1.418  0.0167 -0.1064 -0.0503
   39MOL   O32118637   2.087   6.086   1.327  0.2622 -0.3035 -0.2159
   39MOL   O32218638   2.099   5.842   1.401 -0.0054 -0.0368 -0.2360
   39MOL   C32318639   2.087   6.022   1.586 -0.4342 -0.6147 -0.0571
   39MOL   C32418640   2.218   6.071   1.601  0.6858 -0.5894 -0.3274
   39MOL   C32518641   2.261   6.118   1.728 -0.5825 -0.0412  0.0496
   39MOL   C32618642   2.182   6.101   1.844 -0.1247  0.3926  0.3752
   39MOL   C32718643   2.065   6.028   1.833 -0.1157 -0.2513 -1.1171
   39MOL   C32818644   2.012   5.998   1.704 -0.5985 -0.0791 -0.2594
   39MOL   O32918645   2.233   6.140   1.967  0.0137 -0.5164 -0.6067
   39MOL   H33018646   1.596   6.134   1.539  0.6393  0.5236  0.6302
   39MOL   H33118647   1.849   6.140   1.529  0.1470 -1.4748  1.6206
   39MOL   H33218648   1.848   5.795   1.271  1.2511  2.4456 -1.9073
   39MOL   H33318649   1.593   5.796   1.276 -0.5392  1.4558 -2.0067
   39MOL   H33418650   2.287   6.082   1.519  1.1898  1.1898  0.3110
   39MOL   H33518651   2.363   6.153   1.738 -1.2726  3.0331 -2.6675
   39MOL   H33618652   2.019   5.995   1.925  2.9594 -1.0458  0.1860
   39MOL   H33718653   1.920   5.943   1.693 -1.0820  0.6765 -0.0400
   39MOL   C33818654   2.370   5.940   2.014  0.5119  0.5677 -0.3021
   39MOL   C33918655   2.491   5.886   2.057 -0.3521 -0.6886 -0.0162
   39MOL   C34018656   2.591   5.968   2.124  0.0570 -0.1228  0.2004
   39MOL   C34118657   2.560   6.106   2.138 -0.2020 -0.1513 -0.5983
   39MOL   C34218658   2.443   6.160   2.082 -0.1972 -0.0607  0.6308
   39MOL   C34318659   2.347   6.081   2.020  0.7265 -0.8978 -0.4926
   39MOL   S34418660   2.745   5.899   2.196 -0.3987  0.4026 -0.1521
   39MOL   O34518661   2.727   5.759   2.229 -0.1749  0.9173 -0.0813
   39MOL   O34618662   2.789   5.988   2.307  0.0935  0.5595  0.7056
   39MOL   C34718663   2.872   5.894   2.064 -0.2258 -0.5368  0.1042
   39MOL   C34818664   2.955   5.786   2.049  0.3329  0.0132  0.3029
   39MOL   C34918665   3.050   5.780   1.941 -0.5037 -0.1751  0.1382
   39MOL   C35018666   3.049   5.880   1.844 -0.3105  0.3927  0.7335
   39MOL   C35118667   2.955   5.984   1.854  0.4332 -0.0479  0.6645
   39MOL   C35218668   2.867   5.988   1.961  0.6076 -0.0183 -0.0360
   39MOL   O35318669   3.125   5.879   1.733 -0.0232  0.0499 -0.1402
   39MOL   H35418670   2.293   5.871   1.980  2.2925 -1.1372 -0.9342
   39MOL   H35518671   2.516   5.781   2.048  2.7845 -0.2019  2.2612
   39MOL   H35618672   2.631   6.162   2.197 -1.8513 -0.9141  2.2157
   39MOL   H35718673   2.427   6.265   2.067  0.1203 -0.1264 -0.2194
   39MOL   H35818674   2.966   5.720   2.134  0.0080  1.1356  1.2437
   39MOL   H35918675   3.124   5.701   1.939 -0.4534 -0.2210  2.5026
   39MOL   H36018676   2.959   6.053   1.771  0.8010 -0.1020  0.6354
   39MOL   H36118677   2.797   6.069   1.967  0.1594 -0.5055  1.9559
   39MOL   C36218678   3.133   5.673   1.616 -0.1401  0.5592 -0.4589
   39MOL   C36318679   3.077   5.581   1.524  0.1605  0.1245  0.0015
   39MOL   C36418680   2.969   5.621   1.446  0.6744 -0.4012  0.1830
   39MOL   C36518681   2.923   5.753   1.445  0.3133 -0.2068 -0.8632
   39MOL   C36618682   2.982   5.845   1.538  0.2328  0.4558 -0.0981
   39MOL   C36718683   3.081   5.803   1.633  0.1644  0.0919 -0.3182
   39MOL   S36818684   2.894   5.519   1.317  0.2468  0.0115  0.5752
   39MOL   O36918685   2.853   5.396   1.381  0.3780  0.0392 -0.6036
   39MOL   O37018686   2.984   5.519   1.202  0.5179  0.1182  0.2195
   39MOL   C37118687   2.732   5.581   1.261 -0.6607  0.1761 -0.3435
   39MOL   C37218688   2.725   5.683   1.163 -0.3755  0.1721  0.7653
   39MOL   C37318689   2.594   5.733   1.121  0.0651 -0.0039 -0.6690
   39MOL   C37418690   2.479   5.674   1.178 -0.1821 -0.0542  0.1872
   39MOL   C37518691   2.491   5.570   1.275  0.0466 -0.5784 -0.4768
   39MOL   C37618692   2.614   5.536   1.320  0.1012  0.1868  0.4376
   39MOL   O37718693   2.350   5.704   1.137 -0.0986  0.4940  0.1053
   39MOL   H37818694   3.222   5.640   1.669 -1.6027  1.1787  2.5228
   39MOL   H37918695   3.114   5.481   1.507 -1.9182 -0.8613  1.1513
   39MOL   H38018696   2.848   5.794   1.379  1.0896  1.0219 -1.0115
   39MOL   H38118697   2.955   5.949   1.549  1.9278  0.8676  0.3684
   39MOL   H38218698   2.809   5.732   1.117 -0.5670 -0.0211  0.1983
   39MOL   H38318699   2.585   5.807   1.043 -1.9477 -0.4006 -0.8269
   39MOL   H38418700   2.402   5.526   1.318  0.9922 -1.7907  0.2925
   39MOL   H38518701   2.617   5.458   1.395 -0.5380 -0.0765  0.1989
   39MOL   C38618702   2.217   5.549   1.030 -0.2700 -0.2566 -0.2096
   39MOL   C38718703   2.149   5.502   0.919  0.2774 -0.2721  0.0009
   39MOL   C38818704   2.171   5.563   0.793  0.9520 -0.4050  0.3328
   39MOL   C38918705   2.261   5.673   0.779  0.2454  0.7092 -0.1681
   39MOL   C39018706   2.325   5.720   0.898 -0.4486  0.1744 -0.1455
   39MOL   C39118707   2.299   5.660   1.022  0.4212  0.2176 -0.0570
   39MOL   S39218708   2.080   5.492   0.650 -0.0799 -0.1833 -0.3354
   39MOL   O39318709   1.942   5.552   0.648 -0.2162  0.1425  0.2691
   39MOL   O39418710   2.099   5.343   0.643  0.1486 -0.5111  0.0001
   39MOL   C39518711   2.173   5.554   0.501 -0.5873 -0.5884  0.1798
   39MOL   C39618712   2.257   5.462   0.434 -0.1484  0.9605  0.0365
   39MOL   C39718713   2.342   5.503   0.330 -0.6063 -0.2319 -0.2399
   39MOL   C39818714   2.335   5.638   0.284 -0.5460  0.7199  0.1263
   39MOL   C39918715   2.249   5.728   0.348  0.1480 -0.3658  0.6076
   39MOL   C40018716   2.170   5.690   0.459 -0.1203  0.2101 -0.1702
   39MOL   O40118717   2.425   5.682   0.191  0.3315  0.5689  0.6817
   39MOL   H40218718   2.194   5.503   1.125 -0.1684 -0.4346 -0.2701
   39MOL   H40318719   2.084   5.417   0.932 -0.3399  0.0748 -0.7789
   39MOL   H40418720   2.285   5.723   0.686  1.1739 -2.6908 -1.8508
   39MOL   H40518721   2.393   5.803   0.890 -0.2761  0.4370  3.3359
   39MOL   H40618722   2.266   5.361   0.470 -0.7312  0.4066 -1.3194
   39MOL   H40718723   2.405   5.425   0.290  0.2668 -1.3631  3.1972
   39MOL   H40818724   2.259   5.830   0.315  0.4953  0.4995  3.3051
   39MOL   H40918725   2.115   5.772   0.502  0.7728  0.5526  0.3322
   39MOL   C41018726   2.354   5.798   8.421 -0.3362 -0.1134 -1.1016
   39MOL   C41118727   2.282   5.797   8.300 -0.5841 -0.1632 -0.1155
   39MOL   C41218728   2.233   5.674   8.249 -0.0334 -0.3426  0.2050
   39MOL   C41318729   2.263   5.555   8.315 -1.2773 -0.8073 -0.8314
   39MOL   C41418730   2.335   5.555   0.014  0.2615  0.2108 -0.4769
   39MOL   C41518731   2.372   5.679   0.068 -0.1477  0.3029 -0.3825
   39MOL   S41618732   2.185   5.653   8.075  0.4733  0.0916 -0.0676
   39MOL   O41718733   2.217   5.778   8.005  0.6276  0.0798 -0.3073
   39MOL   O41818734   2.046   5.599   8.070 -0.0558 -0.8393  0.9115
   39MOL   C41918735   2.292   5.522   8.017 -0.3824  0.0181 -0.7100
   39MOL   C42018736   2.429   5.550   8.019 -0.2568  0.3595 -0.4442
   39MOL   C42118737   2.519   5.450   7.980 -0.1827 -0.1487  0.6798
   39MOL   C42218738   2.472   5.324   7.948  0.2080 -0.0271 -0.4634
   39MOL   C42318739   2.335   5.299   7.944  0.1798 -0.2769 -0.0146
   39MOL   C42418740   2.244   5.397   7.982  0.1195  0.3799  0.5757
   39MOL   O42518741   2.559   5.224   7.923 -0.0309  0.1778 -0.2657
   39MOL   H42618742   2.394   5.890   0.035 -2.2563 -0.5820  2.1229
   39MOL   H42718743   2.279   5.888   8.241  2.7666 -0.3603 -0.7296
   39MOL   H42818744   2.227   5.460   8.277  1.9071 -2.3683 -0.0831
   39MOL   H42918745   2.363   5.460   0.056 -2.5975 -0.8870 -0.8892
   39MOL   H43018746   2.451   5.644   8.067 -3.0275  0.8004  0.0205
   39MOL   H43118747   2.626   5.464   7.981 -0.1261 -0.1313 -1.7369
   39MOL   H43218748   2.302   5.198   7.924 -0.0244 -0.2108 -0.0153
   39MOL   H43318749   2.137   5.389   7.984  0.1223  0.6632  2.3473
   39MOL   C43418750   2.656   5.188   8.140 -0.8737 -0.1596  0.2672
   39MOL   C43518751   2.718   5.097   8.232  0.3896  0.1790  0.0337
   39MOL   C43618752   2.707   4.954   8.208  0.5947  0.3348 -0.0959
   39MOL   C43718753   2.637   4.914   8.094  0.4637  0.1789  0.1143
   39MOL   C43818754   2.582   5.005   8.002  0.2048 -0.4388 -0.8181
   39MOL   C43918755   2.600   5.142   8.023 -0.8952 -0.7102  0.7840
   39MOL   S44018756   2.785   4.854   8.338  0.3060 -0.2489  0.1435
   39MOL   O44118757   2.702   4.872   0.036 -0.2243 -0.1324  0.3321
   39MOL   O44218758   2.928   4.892   8.336 -0.0776 -0.4605  0.4764
   39MOL   C44318759   2.774   4.687   8.270  0.4920  0.1146 -0.1222
   39MOL   C44418760   2.807   4.657   8.133 -0.2689  0.1270  0.2244
   39MOL   C44518761   2.790   4.520   8.091 -0.0982 -0.7736  0.5252
   39MOL   C44618762   2.745   4.422   8.176  0.1444  0.3963 -0.1825
   39MOL   C44718763   2.713   4.453   8.312  0.1266  0.2394 -0.8497
   39MOL   C44818764   2.726   4.590   8.360  0.7959 -0.3047  0.0740
   39MOL   O44918765   2.758   4.291   8.143  0.3434 -0.4100  0.0660
   39MOL   H45018766   2.660   5.292   8.167 -1.6287  0.3826 -1.6197
   39MOL   H45118767   2.776   5.130   8.317  1.7429  1.6239 -1.4076
   39MOL   H45218768   2.620   4.807   8.088 -1.0884  0.4025  0.3175
   39MOL   H45318769   2.524   4.969   7.919 -0.3335 -1.3101 -0.0771
   39MOL   H45418770   2.847   4.735   8.070 -1.0739 -1.9988 -3.0669
   39MOL   H45518771   2.828   4.496   7.993 -1.0362 -1.1771  0.2638
   39MOL   H45618772   2.686   4.375   8.381 -0.8790  0.0572 -1.4319
   39MOL   H45718773   2.693   4.620   0.033 -0.2753  1.0746 -0.6746
   39MOL   C45818774   2.514   4.262   8.124  0.6199 -0.6830  0.8121
   39MOL   C45918775   2.402   4.190   8.079  0.1334 -0.2068 -0.0849
   39MOL   C46018776   2.416   4.061   8.036  0.1368 -0.0532  0.6618
   39MOL   C46118777   2.544   4.008   8.030 -0.0522 -0.1602  0.1201
   39MOL   C46218778   2.655   4.084   8.064  0.3526  0.4158 -0.1794
   39MOL   C46318779   2.642   4.215   8.110  0.3736 -0.1029 -0.6058
   39MOL   S46418780   2.271   3.953   8.015  0.0702 -0.3313  0.0769
   39MOL   O46518781   2.164   4.009   8.104  0.0967  0.2409  0.0252
   39MOL   O46618782   2.298   3.809   8.037  0.1307  0.3845  0.0573
   39MOL   C46718783   2.219   3.974   7.847  0.0307 -0.0043 -0.7699
   39MOL   C46818784   2.141   4.084   7.799  0.1690  0.4819 -1.0994
   39MOL   C46918785   2.112   4.103   7.659 -0.7642 -0.4393 -0.7577
   39MOL   C47018786   2.150   4.006   7.562 -0.1582  0.1350 -0.4755
   39MOL   C47118787   2.216   3.884   7.609 -1.0331 -0.1872 -0.2270
   39MOL   C47218788   2.251   3.877   7.748  1.1562 -0.3054  0.0541
   39MOL   O47318789   2.104   4.015   7.434  0.1993 -0.1017 -0.4281
   39MOL   H47418790   2.507   4.364   8.158 -0.4983 -0.6382  0.4576
   39MOL   H47518791   2.305   4.236   8.085  0.6932  1.5030 -2.9525
   39MOL   H47618792   2.561   3.905   8.000  2.6514 -0.1167  1.3293
   39MOL   H47718793   2.751   4.034   8.052  0.3136 -0.0685  1.4561
   39MOL   H47818794   2.116   4.153   7.878  1.3701 -0.4237  0.0944
   39MOL   H47918795   2.062   4.195   7.633  1.3805  1.0009  0.0396
   39MOL   H48018796   2.241   3.805   7.539  0.9906  2.3529 -2.4454
   39MOL   H48118797   2.289   3.784   7.788 -0.8822 -0.2789  2.1070
   39MOL   H48218798   2.055   4.094   7.414 -0.7753 -0.0950  1.7708
   40MOL     C118799   0.214   2.329   6.369  0.0122  0.3009 -0.4892
   40MOL     C218800   0.093   2.390   6.320  0.0715  0.6772 -0.0970
   40MOL     C318801   0.011   2.317   6.230  0.2982 -0.7589  0.0173
   40MOL     C418802   0.056   2.195   6.178  0.8489 -0.1048 -0.6089
   40MOL     C518803   0.177   2.143   6.218 -0.4206  0.4586  0.0627
   40MOL     C618804   0.259   2.211   6.311  0.6398  0.1699 -0.0892
   40MOL     S718805   8.279   2.385   6.170  0.0583 -0.1349  0.4382
   40MOL     O818806   8.189   2.272   6.158 -0.2441 -0.1392 -0.1251
   40MOL     O918807   8.296   2.478   6.063  0.1924 -0.3310 -0.1667
   40MOL    C1018808   8.212   2.474   6.310  0.1097  0.3040  0.3648
   40MOL    C1118809   8.148   2.596   6.285 -0.1672 -0.4243  0.0801
   40MOL    C1218810   8.088   2.664   6.389 -0.8702 -0.7631  0.2857
   40MOL    C1318811   8.083   2.604   6.519  0.7034 -0.2040  0.4341
   40MOL    C1418812   8.146   2.479   6.541 -0.5623 -0.9080  0.8299
   40MOL    C1518813   8.219   2.419   6.437 -0.1571  0.2031  0.8781
   40MOL    O1618814   8.011   2.655   6.626 -0.4010 -0.2260 -0.3777
   40MOL    H1718815   0.288   2.380   6.430  0.1847 -0.3801 -0.1178
   40MOL    H1818816   0.065   2.490   6.352 -0.8308  0.3703  0.0986
   40MOL    H1918817   0.004   2.139   6.102  0.4282 -1.2697  0.5188
   40MOL    H2018818   0.213   2.048   6.182 -0.3404  0.8058 -0.7778
   40MOL    H2118819   8.149   2.639   6.186  3.0679  1.9385  1.0510
   40MOL    H2218820   8.040   2.760   6.380  1.4608  0.3477 -0.6460
   40MOL    H2318821   8.157   2.432   6.638 -1.7773 -1.6278  0.6328
   40MOL    H2418822   8.273   2.328   6.458  2.0882  0.8218 -1.9163
   40MOL    H2518823   0.356   2.166   6.324  0.6018  0.2881  0.5881
   40MOL    C2618824   7.995   2.849   6.760 -0.2978  0.0247 -0.1264
   40MOL    C2718825   8.032   2.934   6.865  0.0875  0.5371 -1.0407
   40MOL    C2818826   8.170   2.931   6.902 -0.2280 -0.2769 -0.0366
   40MOL    C2918827   8.256   2.837   6.849  0.1980 -0.4445 -0.0711
   40MOL    C3018828   8.208   2.737   6.765  0.1379 -0.3635 -0.7341
   40MOL    C3118829   8.075   2.741   6.719  0.4731 -0.2926 -0.3898
   40MOL    S3218830   8.233   3.034   7.031  0.1567  0.1099  0.2999
   40MOL    O3318831   8.167   3.167   7.027  0.0789 -0.0490 -0.1355
   40MOL    O3418832   8.380   3.027   7.021  0.3289  0.1846  0.3386
   40MOL    C3518833   8.180   2.944   7.171  0.9488 -0.0832 -0.1742
   40MOL    C3618834   8.242   2.827   7.211 -0.3597  0.3301  0.4724
   40MOL    C3718835   8.206   2.765   7.334 -0.4018  0.4895  1.1080
   40MOL    C3818836   8.097   2.817   7.409  0.4571 -0.0552 -0.1578
   40MOL    C3918837   8.038   2.941   7.370 -0.1208 -0.1788  0.0632
   40MOL    C4018838   8.079   3.010   7.249  0.0974  0.2026 -0.9205
   40MOL    O4118839   8.057   2.744   7.518  0.0448 -0.1050  0.0966
   40MOL    H4218840   7.900   2.846   6.708 -0.3478  2.0735 -0.1922
   40MOL    H4318841   7.966   3.008   6.906  0.2686 -0.9953  2.1983
   40MOL    H4418842   8.356   2.832   6.891 -0.2810 -1.2447  0.9832
   40MOL    H4518843   8.284   2.665   6.737  0.6506 -0.2916  0.4706
   40MOL    H4618844   8.328   2.782   7.163 -0.2988  1.4360 -0.4690
   40MOL    H4718845   8.266   2.679   7.360  0.6054  1.2720  1.4022
   40MOL    H4818846   7.972   2.978   7.447  0.5158 -0.3503  0.7011
   40MOL    H4918847   8.034   3.101   7.212  1.7341  0.8527 -1.3630
   40MOL    C5018848   7.963   2.540   7.428 -0.5928  0.4730 -0.7056
   40MOL    C5118849   7.854   2.456   7.397  0.4037  1.1830  0.7416
   40MOL    C5218850   7.726   2.498   7.442 -0.2383 -0.5740  0.2308
   40MOL    C5318851   7.706   2.614   7.519  0.3425 -0.0828 -0.4075
   40MOL    C5418852   7.821   2.696   7.543  0.0110 -0.2316 -0.0634
   40MOL    C5518853   7.950   2.655   7.499 -0.4015  0.3758 -0.1317
   40MOL    S5618854   7.594   2.391   7.398  0.0943  0.1504 -0.1325
   40MOL    O5718855   7.654   2.275   7.339 -0.0085  0.2089 -0.5302
   40MOL    O5818856   7.501   2.471   7.316 -0.1646  0.0258 -0.7433
   40MOL    C5918857   7.510   2.349   7.552  0.0296  0.5095  0.7155
   40MOL    C6018858   7.528   2.223   7.612 -0.5404 -0.1912 -0.1646
   40MOL    C6118859   7.455   2.187   7.730  0.2151 -0.4722  0.6964
   40MOL    C6218860   7.371   2.284   7.786  0.4451  0.7187 -0.0240
   40MOL    C6318861   7.354   2.407   7.724  0.5834 -0.5824  0.4952
   40MOL    C6418862   7.423   2.438   7.608  0.2567 -0.0341 -0.6962
   40MOL    O6518863   7.289   2.259   7.895 -0.5415 -0.2891  0.6107
   40MOL    H6618864   8.061   2.519   7.386  0.6400  2.2696  1.1830
   40MOL    H6718865   7.867   2.371   7.331 -2.6424  0.9613  0.3876
   40MOL    H6818866   7.609   2.655   7.543 -0.5374 -2.2265 -0.2035
   40MOL    H6918867   7.804   2.788   7.597 -0.4644  1.2276 -2.6140
   40MOL    H7018868   7.587   2.152   7.557  0.0041  0.7902 -0.8656
   40MOL    H7118869   7.453   2.088   7.773 -0.3008 -0.2255  1.2439
   40MOL    H7218870   7.286   2.481   7.764 -0.6674 -0.2938 -2.0805
   40MOL    H7318871   7.418   2.530   7.551 -0.6328  1.2437  1.3811
   40MOL    C7418872   7.055   2.273   7.912 -0.0151  0.0173  0.5760
   40MOL    C7518873   6.923   2.230   7.878  0.0657  0.1211  0.6521
   40MOL    C7618874   6.906   2.105   7.808 -0.6966 -0.1075 -0.5615
   40MOL    C7718875   7.021   2.030   7.769 -0.0181 -0.2068 -0.2845
   40MOL    C7818876   7.152   2.076   7.809  0.2077  0.4662  0.1054
   40MOL    C7918877   7.169   2.208   7.865  0.7878  0.3191 -0.0324
   40MOL    S8018878   6.738   2.046   7.785 -0.3098  0.2291  0.0514
   40MOL    O8118879   6.723   2.015   7.642 -0.4146  0.4297 -0.5176
   40MOL    O8218880   6.640   2.142   7.837 -0.5324 -0.0662 -0.4590
   40MOL    C8318881   6.725   1.897   7.874 -0.2276 -0.1630 -1.2058
   40MOL    C8418882   6.659   1.789   7.816 -0.3758 -0.8741  1.3441
   40MOL    C8518883   6.673   1.670   7.883 -0.4082  0.3772  0.2419
   40MOL    C8618884   6.753   1.657   8.003  0.5623 -0.2787  0.5337
   40MOL    C8718885   6.799   1.778   8.065  0.1314  0.2461  0.3057
   40MOL    C8818886   6.784   1.898   8.001 -0.0159  0.2608  0.3082
   40MOL    O8918887   6.767   1.537   8.073 -0.1285 -0.0811  0.0202
   40MOL    H9018888   7.072   2.357   7.979 -1.3493  0.6425  0.1562
   40MOL    H9118889   6.838   2.290   7.909 -0.8410 -0.5652 -0.4591
   40MOL    H9218890   7.007   1.937   7.714  0.2691 -0.0409 -0.6405
   40MOL    H9318891   7.237   2.015   7.786  0.7642  0.7469  1.3557
   40MOL    H9418892   6.614   1.807   7.719  1.5084 -1.2384  0.3915
   40MOL    H9518893   6.636   1.582   7.832  0.5818  0.4440 -0.6032
   40MOL    H9618894   6.842   1.768   8.163  1.1588 -1.1522 -0.2654
   40MOL    H9718895   6.832   1.987   8.039 -0.4432  1.1307 -1.1601
   40MOL    C9818896   6.863   1.316   8.097 -0.3589 -0.8938  0.5780
   40MOL    C9918897   6.962   1.218   8.074 -1.2676 -0.1221 -0.3405
   40MOL   C10018898   7.072   1.254   7.999 -0.3796 -1.2666 -0.3627
   40MOL   C10118899   7.092   1.391   7.957  0.3621 -0.1748  0.0213
   40MOL   C10218900   6.992   1.491   7.977  0.3994 -0.2663 -0.5431
   40MOL   C10318901   6.871   1.448   8.045  0.2016  0.0789 -0.0850
   40MOL   S10418902   7.200   1.131   7.965  0.1476 -0.4969  0.1295
   40MOL   O10518903   7.162   1.017   8.050 -0.1313  0.2075  0.4651
   40MOL   O10618904   7.335   1.186   7.980  0.4324 -0.0403  0.3911
   40MOL   C10718905   7.171   1.086   7.792 -0.0039  0.1210 -0.0237
   40MOL   C10818906   7.236   0.970   7.745  0.0142  0.7083  0.2800
   40MOL   C10918907   7.218   0.930   7.607  0.2374  0.4016  0.2195
   40MOL   C11018908   7.131   0.999   7.525  0.3786  0.7944 -0.1568
   40MOL   C11118909   7.074   1.119   7.571 -0.4394 -0.2534  0.1334
   40MOL   C11218910   7.098   1.165   7.701  0.3247 -0.3713 -1.4743
   40MOL   O11318911   7.111   0.950   7.394 -0.1417 -0.4017 -0.0944
   40MOL   H11418912   6.773   1.299   8.155 -2.3227  2.0313 -1.4797
   40MOL   H11518913   6.950   1.119   8.114 -2.7423  0.5279  0.8626
   40MOL   H11618914   7.183   1.410   7.902 -0.2758 -2.8392 -2.0371
   40MOL   H11718915   7.006   1.591   7.938 -1.1181 -0.5237 -1.8012
   40MOL   H11818916   7.304   0.909   7.803 -0.6226  1.3688  1.7543
   40MOL   H11918917   7.252   0.830   7.584 -0.8986 -0.2556  1.3213
   40MOL   H12018918   7.014   1.179   7.504  1.2938 -0.6312 -1.8258
   40MOL   H12118919   7.040   1.251   7.731 -1.6172 -2.9415  2.7018
   40MOL   C12218920   6.901   0.832   7.410 -0.5776 -0.1642  0.2009
   40MOL   C12318921   6.774   0.815   7.352 -0.3130 -0.0273  0.4227
   40MOL   C12418922   6.727   0.897   7.247 -0.1752  0.8009  0.0258
   40MOL   C12518923   6.815   0.992   7.198 -0.2479 -0.0283 -0.4228
   40MOL   C12618924   6.944   1.013   7.252  0.5066 -0.5900  0.0571
   40MOL   C12718925   6.985   0.930   7.354 -0.1672 -0.1257 -0.3571
   40MOL   S12818926   6.565   0.863   7.173  0.1813 -0.0508  0.3571
   40MOL   O12918927   6.480   0.834   7.293 -0.5078  1.1069 -0.1351
   40MOL   O13018928   6.584   0.759   7.071 -0.1736 -0.0022  0.4032
   40MOL   C13118929   6.502   1.008   7.093  0.9391  1.3226  0.2630
   40MOL   C13218930   6.531   1.134   7.158 -0.1848  0.5984  0.0382
   40MOL   C13318931   6.474   1.249   7.103  0.1041 -0.0694 -0.3081
   40MOL   C13418932   6.373   1.240   7.000 -0.5849 -0.3954 -0.0676
   40MOL   C13518933   6.353   1.113   6.936  0.2669 -0.2179 -0.1292
   40MOL   C13618934   6.423   0.999   6.977  0.6741 -0.3860  0.3995
   40MOL   O13718935   6.303   1.350   6.962 -0.2299  0.1470 -0.2869
   40MOL   H13818936   6.929   0.768   7.492 -0.2184 -0.6301 -0.2795
   40MOL   H13918937   6.716   0.729   7.380  0.4760 -0.8241 -0.3482
   40MOL   H14018938   6.780   1.058   7.120  1.7614 -0.6506 -1.8997
   40MOL   H14118939   6.995   1.099   7.211 -0.0728  0.0286  0.6363
   40MOL   H14218940   6.590   1.144   7.248 -0.1475  0.0833  0.0741
   40MOL   H14318941   6.512   1.338   7.152  0.9659 -0.2438 -0.6418
   40MOL   H14418942   6.278   1.107   6.859 -1.0344  0.0557  1.0924
   40MOL   H14518943   6.400   0.910   6.921  0.2426 -1.1865  1.8124
   40MOL   C14618944   6.175   1.461   7.126  0.3444  0.0394  0.0125
   40MOL   C14718945   6.149   1.567   7.214 -0.3745 -0.3829  0.0202
   40MOL   C14818946   6.243   1.671   7.227  0.9287 -0.4848  0.2696
   40MOL   C14918947   6.350   1.674   7.141 -0.7773  0.3825 -0.7782
   40MOL   C15018948   6.377   1.564   7.053 -0.2558  0.0819 -0.2250
   40MOL   C15118949   6.291   1.453   7.049 -0.0612 -0.2159  0.4253
   40MOL   S15218950   6.205   1.810   7.335 -0.1556 -0.4636 -0.0275
   40MOL   O15318951   6.088   1.877   7.267  0.3560 -0.2323  0.3352
   40MOL   O15418952   6.330   1.882   7.356 -0.3802 -0.3963 -0.0627
   40MOL   C15518953   6.160   1.741   7.500 -0.1926 -0.3395  0.5547
   40MOL   C15618954   6.037   1.774   7.557  0.1687 -0.3107 -0.4553
   40MOL   C15718955   6.022   1.757   7.696  0.2444 -0.2743  0.5563
   40MOL   C15818956   6.127   1.693   7.773 -0.2861 -0.4566 -0.0708
   40MOL   C15918957   6.239   1.640   7.703  0.0356 -0.2988 -0.1610
   40MOL   C16018958   6.259   1.664   7.567  0.1381  0.2302  0.4408
   40MOL   O16118959   6.125   1.693   7.910  0.6720 -0.2361 -0.5882
   40MOL   H16218960   6.107   1.377   7.127 -0.4741  0.6506 -2.3489
   40MOL   H16318961   6.058   1.583   7.271 -0.0655 -1.4029  0.8186
   40MOL   H16418962   6.397   1.771   7.136 -1.8678  1.2097  2.7769
   40MOL   H16518963   6.447   1.583   6.973  0.2109 -4.1852 -0.9686
   40MOL   H16618964   5.960   1.823   7.499  0.4535 -0.4148 -0.9227
   40MOL   H16718965   5.940   1.807   7.747 -0.5710 -0.7301 -0.3065
   40MOL   H16818966   6.321   1.599   7.760 -0.3267 -0.9890 -0.1272
   40MOL   H16918967   6.350   1.629   7.522  0.7696 -1.8444  3.1553
   40MOL   C17018968   6.060   1.470   7.950  0.3190  0.3799  0.0566
   40MOL   C17118969   5.990   1.376   8.025  0.1332 -0.7118  0.2740
   40MOL   C17218970   5.893   1.416   8.124 -0.3536  0.2140  0.2669
   40MOL   C17318971   5.874   1.560   8.138  0.0064  0.2628 -0.5899
   40MOL   C17418972   5.946   1.652   8.064  0.0571  0.1459 -0.4343
   40MOL   C17518973   6.047   1.605   7.977  0.5174 -0.2405 -0.3587
   40MOL   S17618974   5.798   1.297   8.230 -0.4757  0.4323  0.3081
   40MOL   O17718975   5.771   1.164   8.169 -0.0542 -0.2439  1.0329
   40MOL   O17818976   5.684   1.371   8.273  0.1220 -0.1186  0.0795
   40MOL   C17918977   5.898   1.264   8.378 -0.2048 -0.2092  0.0902
   40MOL   C18018978   5.983   1.362   8.421  0.6286  0.3113 -0.2773
   40MOL   C18118979   6.073   1.332   0.100 -0.2314 -0.4435  0.2062
   40MOL   C18218980   6.074   1.206   0.163 -0.2936 -0.6594 -0.5068
   40MOL   C18318981   5.977   1.108   0.129 -0.6694 -0.2726 -0.1960
   40MOL   C18418982   5.887   1.136   0.024 -1.0370 -0.1954  0.7154
   40MOL   O18518983   6.172   1.197   0.262  0.9208  0.9579  0.5875
   40MOL   H18618984   6.139   1.449   7.879  0.0435  1.1963 -0.5085
   40MOL   H18718985   6.004   1.276   7.987 -0.7499 -0.8621  0.3372
   40MOL   H18818986   5.805   1.599   8.212  0.7369  0.0577  0.2046
   40MOL   H18918987   5.944   1.760   8.069  0.6531  0.2112 -1.4768
   40MOL   H19018988   5.990   1.452   8.362 -1.8994  0.5723 -0.2401
   40MOL   H19118989   6.145   1.409   0.123 -2.0531  1.7688 -1.2676
   40MOL   H19218990   5.965   1.015   0.182  0.6264 -0.1210  0.3869
   40MOL   H19318991   5.818   1.062   8.413 -0.8452  0.0883 -0.2458
   40MOL   C19418992   6.210   1.076   0.457 -0.0082 -0.0227  1.0893
   40MOL   C19518993   6.254   0.962   0.516  0.3491  0.3198  0.2149
   40MOL   C19618994   6.281   0.848   0.439  0.0144  0.2597 -0.4901
   40MOL   C19718995   6.264   0.842   0.300 -0.0037  0.3997 -0.0493
   40MOL   C19818996   6.222   0.961   0.239 -0.3982 -0.4895 -0.1126
   40MOL   C19918997   6.201   1.077   0.320  0.1359  0.0358  0.0068
   40MOL   S20018998   6.317   0.698   0.531  0.0926  0.0991 -0.7998
   40MOL   O20118999   6.212   0.686   0.635 -0.1491 -0.0551 -0.1063
   40MOL   O20219000   6.459   0.709   0.572 -0.3350  0.1114  0.3837
   40MOL   C20319001   6.294   0.560   0.413  0.1492  0.2552 -0.2954
   40MOL   C20419002   6.396   0.469   0.380  0.2847  0.7879 -0.2933
   40MOL   C20519003   6.372   0.365   0.297 -0.3398  0.1215  0.0006
   40MOL   C20619004   6.245   0.343   0.239  0.3919 -0.2957 -0.2272
   40MOL   C20719005   6.143   0.440   0.267  0.0605 -0.4588  0.3448
   40MOL   C20819006   6.163   0.541   0.362 -0.5638 -0.2238 -0.5594
   40MOL   O20919007   6.225   0.223   0.170 -0.1547  0.5478 -0.3529
   40MOL   H21019008   6.188   1.157   0.524  0.0875  0.1345  0.9316
   40MOL   H21119009   6.271   0.959   0.623  1.1037 -1.3894  0.0603
   40MOL   H21219010   6.267   0.752   0.241  2.1139 -0.4241  1.2733
   40MOL   H21319011   6.216   0.965   0.132 -1.7888 -1.6918 -0.0907
   40MOL   H21419012   6.493   0.489   0.423  0.5546  0.9381 -0.9641
   40MOL   H21519013   6.453   0.295   0.290 -0.6097 -0.2510  0.5561
   40MOL   H21619014   6.042   0.432   0.230  0.0533 -0.2854  0.3243
   40MOL   H21719015   6.091   0.617   0.390  0.7484  0.5813  0.7048
   40MOL   C21819016   6.034   0.143   0.023  0.0860  0.0698  0.3113
   40MOL   C21919017   5.971   0.151   8.324  0.0125 -1.0419 -0.0772
   40MOL   C22019018   6.020   0.239   8.223  0.4932 -0.3963 -0.2202
   40MOL   C22119019   6.135   0.321   8.250 -0.2866 -0.0684 -0.2733
   40MOL   C22219020   6.197   0.310   8.377 -0.0085 -0.2958 -0.2490
   40MOL   C22319021   6.150   0.226   0.051 -0.4056  0.1012  0.4164
   40MOL   S22419022   5.946   0.248   8.059  0.0027  0.0605  0.0585
   40MOL   O22519023   6.054   0.212   7.967 -0.3186 -0.0436 -0.4302
   40MOL   O22619024   5.892   0.382   8.046  0.0542  0.1379  0.2032
   40MOL   C22719025   5.818   0.129   8.047  0.7741 -0.1581  0.4122
   40MOL   C22819026   5.694   0.175   7.990  0.1758 -0.4069  0.1436
   40MOL   C22919027   5.584   0.093   8.002 -0.2828 -0.5521 -0.2609
   40MOL   C23019028   5.589   8.400   8.077 -0.2870  0.0981  0.0076
   40MOL   C23119029   5.716   8.347   8.118  0.6087  0.4658  0.5762
   40MOL   C23219030   5.832   8.422   8.094 -0.0302  0.3771  0.3728
   40MOL   O23319031   5.473   8.341   8.116 -0.4075 -0.3055 -0.3000
   40MOL   H23419032   6.004   0.065   0.092  0.1370  1.5433  2.0375
   40MOL   H23519033   5.884   0.088   8.317 -1.6809  1.0923  1.3638
   40MOL   H23619034   6.177   0.391   8.180 -0.4670  0.2576 -0.0575
   40MOL   H23719035   6.295   0.350   8.398  1.2845 -3.2439 -0.3435
   40MOL   H23819036   5.673   0.273   7.952 -0.9747 -0.3902  0.7953
   40MOL   H23919037   5.487   0.130   7.973  0.1487  0.8655  0.0572
   40MOL   H24019038   5.715   8.245   8.152  0.0938  0.0249 -0.7158
   40MOL   H24119039   5.930   8.383   8.116  0.5583  1.7734  0.3052
   40MOL   C24219040   5.470   8.243   8.339  0.3261  0.1283  0.5339
   40MOL   C24319041   5.467   8.259   0.058  0.1134  0.4474  0.2224
   40MOL   C24419042   5.434   8.383   0.117 -0.3799 -0.0518 -0.4310
   40MOL   C24519043   5.408   0.067   0.023  0.3844 -0.5592 -0.4905
   40MOL   C24619044   5.422   0.051   8.305 -0.3552 -0.3107  1.2266
   40MOL   C24719045   5.450   8.352   8.252 -0.3298 -0.0392  0.2007
   40MOL   S24819046   5.449   8.414   0.296 -0.2114  0.1159 -0.3564
   40MOL   O24919047   5.442   8.286   0.365 -0.0258  0.0340 -0.9049
   40MOL   O25019048   5.362   0.102   0.324  0.0919  0.2762  0.1615
   40MOL   C25119049   5.609   0.056   0.325  0.2347 -0.1906 -0.4716
   40MOL   C25219050   5.709   8.407   0.391 -0.0111 -0.0724  0.3041
   40MOL   C25319051   5.840   0.032   0.388 -0.1343 -0.4415 -0.3446
   40MOL   C25419052   5.867   0.164   0.352  0.7196  0.3250  0.1149
   40MOL   C25519053   5.762   0.244   0.300  0.1557  0.0113 -0.8836
   40MOL   C25619054   5.635   0.192   0.286  0.0154  0.0944 -0.2732
   40MOL   O25719055   5.993   0.222   0.372 -0.4188 -0.4562 -0.9483
   40MOL   H25819056   5.507   8.152   8.296 -2.0794 -0.1254 -1.0711
   40MOL   H25919057   5.493   8.177   0.124 -1.5283 -2.5520 -2.6816
   40MOL   H26019058   5.391   0.170   0.051 -0.9793 -1.1176  0.8148
   40MOL   H26119059   5.419   0.131   8.233 -1.8668 -3.2317 -2.0628
   40MOL   H26219060   5.687   8.304   0.413  0.1708  0.0192  0.9583
   40MOL   H26319061   5.917   8.389   0.422 -1.3228 -1.5571  0.1403
   40MOL   H26419062   5.789   0.343   0.265 -0.0167 -0.0208 -1.1088
   40MOL   H26519063   5.554   0.245   0.237 -1.9890 -3.8398 -1.3728
   40MOL   C26619064   6.123   0.210   0.577 -0.4382 -0.4050  0.1021
   40MOL   C26719065   6.149   0.249   0.708 -0.1363 -1.0992 -0.1355
   40MOL   C26819066   6.065   0.348   0.760  0.9195 -0.3921  0.7834
   40MOL   C26919067   5.967   0.419   0.685 -0.3931 -0.6397  0.5610
   40MOL   C27019068   5.936   0.369   0.559 -0.1787 -0.3997  0.1321
   40MOL   C27119069   6.015   0.267   0.504 -0.0983 -0.7255  0.2678
   40MOL   S27219070   6.089   0.396   0.930 -0.2931  0.4694  0.2246
   40MOL   O27319071   5.965   0.371   0.998  0.5060 -0.4581 -0.1139
   40MOL   O27419072   6.152   0.528   0.932 -0.3859 -0.1821 -0.9341
   40MOL   C27519073   6.213   0.292   1.007 -0.1138  0.3603  0.3733
   40MOL   C27619074   6.348   0.299   0.962  0.0794 -0.8913  0.2170
   40MOL   C27719075   6.447   0.211   1.017  0.2986  0.1478  0.7274
   40MOL   C27819076   6.411   0.124   1.120 -1.1749 -0.5665  0.8415
   40MOL   C27919077   6.276   0.119   1.168  0.0382  1.0173 -0.7555
   40MOL   C28019078   6.178   0.204   1.109 -0.0351  0.2404  0.5857
   40MOL   O28119079   6.510   0.045   1.171 -0.6919  0.0158  0.2401
   40MOL   H28219080   6.185   0.140   0.522 -0.1861  1.4800 -2.0861
   40MOL   H28319081   6.232   0.211   0.765  1.3906  2.1901 -0.0634
   40MOL   H28419082   5.909   0.498   0.729 -1.3506 -1.5364  0.9478
   40MOL   H28519083   5.857   0.413   0.500 -0.9665 -1.1882  0.5776
   40MOL   H28619084   6.387   0.370   0.891  0.4373  1.3024  2.5232
   40MOL   H28719085   6.540   0.197   0.965 -0.5910  2.0195 -1.4248
   40MOL   H28819086   6.253   0.054   1.251 -1.0500 -0.0357 -1.8506
   40MOL   H28919087   6.076   0.202   1.143 -1.1147 -1.2537 -2.6025
   40MOL   C29019088   6.478   8.312   1.349 -0.2651 -0.1328 -0.4362
   40MOL   C29119089   6.451   8.286   1.488 -0.3782 -0.1271  1.1164
   40MOL   C29219090   6.480   8.387   1.581 -0.5268 -0.4644  0.0957
   40MOL   C29319091   6.533   0.089   1.533  0.2786  0.0232  0.3406
   40MOL   C29419092   6.539   0.119   1.393  0.2041  0.4784 -0.3539
   40MOL   C29519093   6.505   0.019   1.302  0.3199  0.5570  0.0642
   40MOL   S29619094   6.487   8.361   1.759  0.0026  0.1979  0.2507
   40MOL   O29719095   6.349   8.374   1.814  0.2434  0.0488  0.3070
   40MOL   O29819096   6.593   0.015   1.821  0.3338  0.6157 -0.6790
   40MOL   C29919097   6.536   8.194   1.791  0.5583  0.7090 -0.1301
   40MOL   C30019098   6.440   8.117   1.867 -0.1015  0.3299  0.6689
   40MOL   C30119099   6.466   7.990   1.904  0.0021 -0.4364 -0.1310
   40MOL   C30219100   6.581   7.929   1.843  0.2191 -0.2975 -0.7858
   40MOL   C30319101   6.676   7.997   1.761  0.3905  0.5038 -0.0090
   40MOL   C30419102   6.649   8.134   1.734 -0.3325 -0.5665  0.2918
   40MOL   O30519103   6.608   7.796   1.863 -0.7870  0.4159 -0.0920
   40MOL   H30619104   6.465   8.226   1.286  0.3761  0.5472 -1.5067
   40MOL   H30719105   6.436   8.188   1.531  1.5673  0.1601  2.5097
   40MOL   H30819106   6.559   0.164   1.606  2.2300 -1.8956  1.6859
   40MOL   H30919107   6.563   0.220   1.364  2.0300  0.2207  0.1875
   40MOL   H31019108   6.352   8.160   1.912 -1.1698 -1.4744  0.3542
   40MOL   H31119109   6.401   7.937   1.972 -0.6702  3.8870  2.8152
   40MOL   H31219110   6.760   7.944   1.717 -0.6147 -2.3085  1.3751
   40MOL   H31319111   6.719   8.190   1.673  0.3744 -2.0904 -0.3300
   40MOL   C31419112   6.693   7.763   2.085 -0.6635 -0.6704 -0.5644
   40MOL   C31519113   6.796   7.711   2.166 -0.4363 -0.4981  0.6958
   40MOL   C31619114   6.921   7.666   2.109 -0.4021  0.6172 -0.7841
   40MOL   C31719115   6.935   7.663   1.967 -0.1186  0.1182  0.2009
   40MOL   C31819116   6.830   7.709   1.884  0.6427  0.2693 -0.1017
   40MOL   C31919117   6.711   7.757   1.942 -0.3485 -0.2500  0.2717
   40MOL   S32019118   7.043   7.613   2.222  0.2630  0.0196  0.3668
   40MOL   O32119119   7.005   7.485   2.294 -0.1745  0.1072 -0.2153
   40MOL   O32219120   7.088   7.733   2.296 -0.5841 -0.4504  0.0850
   40MOL   C32319121   7.182   7.555   2.113  1.1198 -0.6905 -0.4760
   40MOL   C32419122   7.159   7.438   2.043  0.9682  0.7056  0.9758
   40MOL   C32519123   7.264   7.395   1.962 -1.0007 -0.4406  0.6705
   40MOL   C32619124   7.380   7.472   1.936  0.5923  0.0300 -0.7052
   40MOL   C32719125   7.399   7.585   2.009 -0.1329 -0.2928 -0.6147
   40MOL   C32819126   7.298   7.625   2.097 -0.2894 -0.0667  0.8448
   40MOL   O32919127   7.469   7.426   1.840 -0.1809  0.5220  0.2972
   40MOL   H33019128   6.597   7.805   2.112 -0.1067 -0.2434  0.7836
   40MOL   H33119129   6.789   7.713   2.274 -1.7833 -0.4967  0.6109
   40MOL   H33219130   7.032   7.638   1.927 -0.0636 -1.5131  1.3015
   40MOL   H33319131   6.834   7.713   1.776 -0.6191  2.2616 -0.0871
   40MOL   H33419132   7.067   7.383   2.047  1.1381  0.2441 -1.1211
   40MOL   H33519133   7.246   7.307   1.901 -0.5073 -1.2634  1.7081
   40MOL   H33619134   7.482   7.651   1.989  0.0528 -0.4971 -0.5076
   40MOL   H33719135   7.312   7.710   2.161 -0.6337  0.3742  0.3430
   40MOL   C33819136   7.356   7.509   1.640 -0.3875 -0.4201  0.3427
   40MOL   C33919137   7.300   7.472   1.515 -0.2895 -0.0208  0.1801
   40MOL   C34019138   7.326   7.346   1.454  0.3473  0.1260  0.2049
   40MOL   C34119139   7.403   7.256   1.525  0.3362 -0.0930 -0.5288
   40MOL   C34219140   7.447   7.288   1.655 -0.1398 -0.3452  0.1075
   40MOL   C34319141   7.430   7.414   1.712 -0.1201 -0.1123  0.4137
   40MOL   S34419142   7.258   7.301   1.298  0.5160  0.3454 -0.5445
   40MOL   O34519143   7.162   7.405   1.263  0.3288 -0.5880  0.5681
   40MOL   O34619144   7.218   7.158   1.302 -0.4693 -0.2723  0.3643
   40MOL   C34719145   7.396   7.317   1.186 -0.2604 -0.1838 -0.5122
   40MOL   C34819146   7.415   7.441   1.124  0.1802 -0.1057 -0.0575
   40MOL   C34919147   7.518   7.464   1.032 -0.8724 -0.6613  0.6631
   40MOL   C35019148   7.602   7.356   0.998  0.3547  0.3080 -0.0808
   40MOL   C35119149   7.596   7.232   1.071 -0.5823 -0.1299 -0.3236
   40MOL   C35219150   7.491   7.216   1.164 -0.0197  0.2627  0.7084
   40MOL   O35319151   7.707   7.388   0.913  0.3696  0.3971 -0.2708
   40MOL   H35419152   7.341   7.608   1.681  1.5080 -0.5916  1.5179
   40MOL   H35519153   7.239   7.539   1.457  1.6539  1.3305 -0.3606
   40MOL   H35619154   7.412   7.156   1.483 -0.3020 -0.0701 -0.7377
   40MOL   H35719155   7.483   7.202   1.709 -0.2880 -0.8649 -0.6055
   40MOL   H35819156   7.355   7.520   1.168  2.6539 -0.1689  3.6887
   40MOL   H35919157   7.538   7.555   0.977 -0.9539 -1.2232 -0.3187
   40MOL   H36019158   7.671   7.158   1.048 -0.5559 -0.1389 -0.2068
   40MOL   H36119159   7.489   7.120   1.213 -1.4914  0.5919  1.3083
   40MOL   C36219160   7.782   7.618   0.941 -0.0254  0.5311  1.0138
   40MOL   C36319161   7.881   7.707   0.978  0.3763  0.0932 -0.5845
   40MOL   C36419162   7.992   7.667   1.045 -0.4783 -0.4617  0.3635
   40MOL   C36519163   8.015   7.526   1.061  0.0205 -0.0573  0.0078
   40MOL   C36619164   7.922   7.430   1.012  0.0021 -0.4035  0.2887
   40MOL   C36719165   7.801   7.477   0.958 -0.4705 -0.0018 -0.3776
   40MOL   S36819166   8.102   7.794   1.115 -0.4877  0.0340  0.3505
   40MOL   O36919167   8.211   7.728   1.188  0.5420  0.4125  0.2933
   40MOL   O37019168   8.022   7.891   1.184  0.1996 -0.5806  0.1302
   40MOL   C37119169   8.173   7.872   0.972 -0.2904 -0.7449  0.0846
   40MOL   C37219170   8.290   7.826   0.907 -0.2968 -0.5238 -0.3047
   40MOL   C37319171   8.340   7.886   0.791 -0.1038  0.0527 -0.3035
   40MOL   C37419172   8.280   8.005   0.741  0.1308  0.3903 -0.2074
   40MOL   C37519173   8.166   8.059   0.804  0.1287  0.0862  0.3616
   40MOL   C37619174   8.108   7.989   0.914 -0.3364 -0.6443 -0.3792
   40MOL   O37719175   8.335   8.076   0.635  0.3172  0.1977 -0.0999
   40MOL   H37819176   7.693   7.648   0.888 -0.2103 -2.0634 -0.2601
   40MOL   H37919177   7.874   7.814   0.964  1.3997  0.1547 -0.6349
   40MOL   H38019178   8.101   7.506   1.122  1.3692  0.9019 -1.5345
   40MOL   H38119179   7.943   7.324   1.022  1.0197 -0.5304 -2.7395
   40MOL   H38219180   8.345   7.743   0.949 -0.5507 -0.3896  0.3058
   40MOL   H38319181   8.424   7.833   0.747  1.4161  0.7475  1.6533
   40MOL   H38419182   8.125   8.150   0.764 -0.5769 -0.0994  0.6637
   40MOL   H38519183   8.018   8.026   0.960 -1.1024 -0.2298 -2.1923
   40MOL   C38619184   0.119   8.012   0.542  0.0356 -0.2005 -0.8094
   40MOL   C38719185   0.198   7.945   0.442  0.8057  0.1168  0.2510
   40MOL   C38819186   0.134   7.875   0.338 -0.0583 -0.2746 -0.1304
   40MOL   C38919187   8.424   7.876   0.334  0.3014  0.3057 -0.0939
   40MOL   C39019188   8.344   7.949   0.429  0.4260  0.0880  0.4942
   40MOL   C39119189   8.406   8.016   0.536 -1.3325 -0.4712 -0.2338
   40MOL   S39219190   0.230   7.786   0.221 -0.3074 -0.0283 -0.1454
   40MOL   O39319191   0.269   7.886   0.122 -0.0351 -0.1729  0.2692
   40MOL   O39419192   0.154   7.669   0.173 -0.4149  0.6416  1.0155
   40MOL   C39519193   0.379   7.716   0.304  0.4501 -0.1848 -0.3207
   40MOL   C39619194   0.368   7.645   0.425 -0.2652  0.2472 -0.4096
   40MOL   C39719195   0.486   7.591   0.485  0.3792 -0.8708  0.3040
   40MOL   C39819196   0.608   7.602   0.422  0.2618  0.0777 -0.0603
   40MOL   C39919197   0.614   7.670   0.296 -0.0467  0.5810  0.0529
   40MOL   C40019198   0.501   7.717   0.231  0.3911 -0.4339  0.6744
   40MOL   O40119199   0.730   7.549   0.473 -0.3024 -0.1438 -0.0451
   40MOL   H40219200   0.161   8.043   0.636  0.2602  1.4339 -1.4366
   40MOL   H40319201   0.306   7.939   0.448  0.8573  1.0504  0.3708
   40MOL   H40419202   8.382   7.818   0.253 -0.8439 -0.5247  1.0706
   40MOL   H40519203   8.236   7.946   0.424  0.4001 -0.4569  1.3536
   40MOL   H40619204   0.268   7.633   0.464  0.5115 -4.8105  0.2792
   40MOL   H40719205   0.474   7.531   0.574  2.8491 -0.1513  1.1819
   40MOL   H40819206   0.709   7.674   0.245 -0.1857 -0.9674 -0.3491
   40MOL   H40919207   0.500   7.754   0.129  0.6559 -0.3308  0.7103
   40MOL   C41019208   0.717   7.312   0.494  0.2951  0.2268 -0.0999
   40MOL   C41119209   0.758   7.183   0.459  0.3255  0.1487  1.7164
   40MOL   C41219210   0.855   7.170   0.364 -0.2264  0.2371 -0.4768
   40MOL   C41319211   0.912   7.276   0.298 -0.5886 -0.3563 -0.0648
   40MOL   C41419212   0.866   7.409   0.324  0.6503 -0.3553  0.3082
   40MOL   C41519213   0.767   7.425   0.427 -0.0387 -0.1777  0.1629
   40MOL   S41619214   0.942   7.011   0.327 -0.1937  0.0897  0.0463
   40MOL   O41719215   1.082   7.032   0.287 -0.2510  0.2055  0.4341
   40MOL   O41819216   0.865   6.933   0.230  0.1657  0.9919  0.2130
   40MOL   C41919217   0.958   6.911   0.479 -0.0205  0.3181  0.5523
   40MOL   C42019218   0.864   6.812   0.514 -0.2668  0.5240  0.5349
   40MOL   C42119219   0.894   6.728   0.623  0.1184  0.0760 -0.0550
   40MOL   C42219220   1.004   6.747   0.702  0.4324 -0.0182  0.1730
   40MOL   C42319221   1.090   6.853   0.672 -0.7507 -0.8982  0.5100
   40MOL   C42419222   1.076   6.930   0.552  0.2911  0.1587 -0.3590
   40MOL   O42519223   1.029   6.662   0.805 -0.2999 -0.5652  0.1197
   40MOL   H42619224   0.653   7.333   0.578  0.5111  3.4171 -0.6597
   40MOL   H42719225   0.712   7.104   0.517 -0.8869 -0.9637 -0.6934
   40MOL   H42819226   0.995   7.259   0.231  1.5401  2.2143  1.8105
   40MOL   H42919227   0.920   7.491   0.279  0.7258  0.0520  1.1370
   40MOL   H43019228   0.772   6.817   0.457 -0.4240 -2.1182  0.4863
   40MOL   H43119229   0.829   6.643   0.636 -0.5894  0.5725 -0.3629
   40MOL   H43219230   1.182   6.861   0.727  0.2033 -2.2093 -0.8424
   40MOL   H43319231   1.148   7.006   0.523 -0.4514  1.1040  0.2206
   40MOL   C43419232   0.890   6.787   0.953  0.0798 -0.5370  0.6938
   40MOL   C43519233   0.796   6.788   1.064  0.0701  0.2681 -0.4501
   40MOL   C43619234   0.733   6.676   1.103  0.2983  0.3024 -0.2084
   40MOL   C43719235   0.773   6.551   1.051  0.0583  0.9598 -0.0987
   40MOL   C43819236   0.881   6.543   0.954  0.1392  0.4019  0.6925
   40MOL   C43919237   0.933   6.663   0.902 -0.1304  0.0348 -0.1920
   40MOL   S44019238   0.610   6.678   1.229  0.2291  0.2225 -0.5541
   40MOL   O44119239   0.639   6.787   1.323  0.3420 -0.3688  0.2807
   40MOL   O44219240   0.600   6.542   1.287 -0.4096 -0.0538 -0.4213
   40MOL   C44319241   0.454   6.714   1.155 -0.5703  0.8954  0.0702
   40MOL   C44419242   0.432   6.683   1.024 -0.2016  0.3337 -0.1248
   40MOL   C44519243   0.315   6.718   0.955  0.2524  0.8578 -0.0845
   40MOL   C44619244   0.210   6.782   1.028 -0.1708 -0.5325  0.6650
   40MOL   C44719245   0.235   6.805   1.166 -0.0884  0.7287  0.4185
   40MOL   C44819246   0.355   6.775   1.228 -0.0090 -0.0023 -0.4131
   40MOL   O44919247   0.100   6.829   0.964  0.0909 -0.4588 -0.3754
   40MOL   H45019248   0.931   6.882   0.921  0.0488 -1.0339 -0.8690
   40MOL   H45119249   0.767   6.882   1.109  0.1184  1.8791 -3.6583
   40MOL   H45219250   0.724   6.464   1.091 -0.0496  1.5162  0.9731
   40MOL   H45319251   0.912   6.451   0.907  2.9415  1.3127  0.6706
   40MOL   H45419252   0.515   6.654   0.961  1.2806  3.2165  0.3992
   40MOL   H45519253   0.306   6.709   0.848  1.7092  0.9305 -0.2286
   40MOL   H45619254   0.162   6.858   1.226 -0.1945  1.5824 -0.4443
   40MOL   H45719255   0.361   6.797   1.334  0.0250 -1.3506 -0.1225
   40MOL   C45819256   0.011   7.044   1.031  0.1338 -0.9547 -0.1516
   40MOL   C45919257   8.334   7.117   1.098  0.0066  0.4186  0.1631
   40MOL   C46019258   8.232   7.052   1.171  0.6486  0.5291  0.3357
   40MOL   C46119259   8.228   6.913   1.176 -0.7081  0.0017  0.3358
   40MOL   C46219260   8.325   6.838   1.107  0.0559 -0.8751 -0.3245
   40MOL   C46319261   0.004   6.904   1.033  0.0516 -0.5160  0.2137
   40MOL   S46419262   8.106   7.149   1.261  0.3788  0.0578  0.7153
   40MOL   O46519263   7.985   7.120   1.185 -0.4440  0.2124 -0.3145
   40MOL   O46619264   8.165   7.280   1.288  0.3564  0.5464 -0.1839
   40MOL   C46719265   8.084   7.073   1.419 -0.3421  0.3403  0.2563
   40MOL   C46819266   8.141   7.128   1.531 -0.9320 -0.3636  0.3485
   40MOL   C46919267   8.130   7.064   1.653 -0.4453  0.3449 -0.2545
   40MOL   C47019268   8.057   6.942   1.663 -0.3614  0.4388  0.1239
   40MOL   C47119269   8.005   6.885   1.542  0.0327 -0.2578  0.5104
   40MOL   C47219270   8.014   6.949   1.421 -1.1431  0.1643  0.4967
   40MOL   O47319271   8.054   6.872   1.779 -0.7579  0.3903 -0.3871
   40MOL   H47419272   0.086   7.092   0.969 -0.6231  2.8689  1.7776
   40MOL   H47519273   8.330   7.225   1.098  2.3829  0.5518 -1.1790
   40MOL   H47619274   8.150   6.866   1.235 -1.8558  0.4950 -0.7733
   40MOL   H47719275   8.335   6.731   1.108  0.1910 -0.8751 -1.0257
   40MOL   H47819276   8.211   7.210   1.526 -2.1779  0.7320  0.7046
   40MOL   H47919277   8.169   7.099   1.747 -1.2965 -1.6486  0.8657
   40MOL   H48019278   7.953   6.790   1.542 -0.7793  0.1731 -2.0030
   40MOL   H48119279   7.974   6.905   1.331 -2.8707  0.3745  1.1230
   40MOL   H48219280   8.098   6.919   1.848  1.4800  0.9527 -2.1398
   41MOL     C119281   3.126   6.156   6.838 -0.7522 -0.4569 -0.1193
   41MOL     C219282   3.133   6.253   6.940  0.1344  0.0739 -0.8082
   41MOL     C319283   3.238   6.336   6.951 -0.1507  0.0521  0.1187
   41MOL     C419284   3.340   6.338   6.854 -0.5084 -0.0078  0.1818
   41MOL     C519285   3.333   6.244   6.748  0.3852 -0.0398 -0.2643
   41MOL     C619286   3.226   6.155   6.743 -1.0032  0.3511  0.1431
   41MOL     S719287   3.270   6.430   7.100 -0.1568  0.0638 -0.3398
   41MOL     O819288   3.351   6.349   7.193 -0.0540 -0.1956 -0.5269
   41MOL     O919289   3.145   6.497   7.144  0.2968  0.0273  0.2803
   41MOL    C1019290   3.362   6.573   7.043 -0.1867 -0.0031  0.7927
   41MOL    C1119291   3.328   6.635   6.919  0.1182  0.6327 -0.0504
   41MOL    C1219292   3.404   6.744   6.873 -0.1330 -0.4773 -0.2901
   41MOL    C1319293   3.514   6.794   6.950  0.7083 -0.4547  0.0176
   41MOL    C1419294   3.550   6.723   7.067  0.2415 -0.0862 -0.5207
   41MOL    C1519295   3.477   6.611   7.113 -0.4076  0.5483  0.2612
   41MOL    O1619296   3.584   6.909   6.909  0.1927 -0.0929 -0.2171
   41MOL    H1719297   3.047   6.082   6.840 -0.0166 -1.2400  0.6232
   41MOL    H1819298   3.059   6.263   7.018  1.6183 -2.5364  0.9901
   41MOL    H1919299   3.423   6.404   6.872 -0.1110 -0.3972 -0.2227
   41MOL    H2019300   3.422   6.235   6.688  0.8995  1.3539  0.2866
   41MOL    H2119301   3.238   6.608   6.864 -0.2547  0.9330  0.4119
   41MOL    H2219302   3.366   6.785   6.780  0.8528  1.1170 -0.0000
   41MOL    H2319303   3.639   6.763   7.114 -0.9679 -0.2275  1.9632
   41MOL    H2419304   3.507   6.552   7.198  1.0588 -2.2847 -2.1015
   41MOL    H2519305   3.205   6.081   6.667 -1.0223 -0.6081  1.0798
   41MOL    C2619306   3.757   7.024   7.024 -0.2426  0.4874  0.5617
   41MOL    C2719307   3.793   7.126   7.124  0.3284 -0.0235  0.9727
   41MOL    C2819308   3.698   7.200   7.187 -0.1082 -0.6904 -0.7687
   41MOL    C2919309   3.562   7.185   7.157  0.1042  1.2044  0.6188
   41MOL    C3019310   3.526   7.093   7.054 -0.6507 -0.1441  0.6870
   41MOL    C3119311   3.623   7.010   6.996  0.2582 -0.2091  0.0632
   41MOL    S3219312   3.756   7.323   7.304  0.2279 -0.1313 -0.0899
   41MOL    O3319313   3.641   7.388   7.370 -0.2633 -0.0401 -0.6116
   41MOL    O3419314   3.856   7.402   7.233 -0.1064  0.2457 -0.6131
   41MOL    C3519315   3.837   7.230   7.427  0.0201 -0.2696 -0.5427
   41MOL    C3619316   3.914   7.309   7.519  0.2442  0.3323 -0.2474
   41MOL    C3719317   4.008   7.242   7.603 -0.1321  0.3050 -0.6053
   41MOL    C3819318   3.998   7.098   7.617 -0.5216  0.4858 -0.1525
   41MOL    C3919319   3.893   7.029   7.551  0.4085  0.4126 -0.1436
   41MOL    C4019320   3.819   7.089   7.450 -0.0197 -0.2973  0.5474
   41MOL    O4119321   4.063   7.020   7.705  0.4610 -0.3889 -0.0618
   41MOL    H4219322   3.836   6.963   6.983 -1.5960 -1.6404  1.0448
   41MOL    H4319323   3.899   7.143   7.136  0.4011 -0.3697  0.8425
   41MOL    H4419324   3.484   7.244   7.204 -2.0267  0.9579 -2.4708
   41MOL    H4519325   3.424   7.077   7.020  0.2646 -1.7676 -1.4013
   41MOL    H4619326   3.922   7.416   7.506 -1.0908  0.3123 -1.3418
   41MOL    H4719327   4.086   7.295   7.656  0.2690  0.7208 -1.5867
   41MOL    H4819328   3.882   6.924   7.573 -0.2346  0.5857  0.3915
   41MOL    H4919329   3.748   7.034   7.390  0.6235 -0.8637  0.2961
   41MOL    C5019330   4.297   7.082   7.722  0.0180 -0.5660  0.5035
   41MOL    C5119331   4.428   7.052   7.691  0.0973  0.4186  0.9201
   41MOL    C5219332   4.461   6.927   7.623 -0.3002  0.4990 -0.9073
   41MOL    C5319333   4.356   6.837   7.590  0.1084 -0.2071  0.2577
   41MOL    C5419334   4.224   6.872   7.628  0.0834  0.6681 -0.0787
   41MOL    C5519335   4.193   6.997   7.684  0.2621  0.1675  0.4556
   41MOL    S5619336   4.634   6.899   7.585 -0.2721  0.0030  0.7849
   41MOL    O5719337   4.714   6.992   7.660  0.2303  0.4967  0.1309
   41MOL    O5819338   4.646   6.893   7.439 -0.2154 -0.3225 -0.2979
   41MOL    C5919339   4.660   6.724   7.641  0.0561  0.4064  0.2734
   41MOL    C6019340   4.660   6.622   7.549  0.2374  0.7148  0.1794
   41MOL    C6119341   4.670   6.487   7.595 -0.4153  0.3783 -0.2772
   41MOL    C6219342   4.688   6.468   7.734 -0.3235 -0.2518  0.6379
   41MOL    C6319343   4.708   6.573   7.824 -0.1286  0.3261  0.2175
   41MOL    C6419344   4.690   6.701   7.778  0.1985  0.3825  0.2286
   41MOL    O6519345   4.681   6.339   7.779  0.1719 -0.0995  0.0142
   41MOL    H6619346   4.279   7.182   7.760  1.3688 -0.5670  1.1553
   41MOL    H6719347   4.505   7.124   7.712 -1.7141  2.2495  1.4418
   41MOL    H6819348   4.382   6.746   7.538 -2.2264 -0.6193 -0.2644
   41MOL    H6919349   4.138   6.811   7.599  0.3661  0.0506  0.3779
   41MOL    H7019350   4.640   6.643   7.445 -0.3349 -0.0288  0.1295
   41MOL    H7119351   4.667   6.401   7.529  0.8689  1.5968 -1.9764
   41MOL    H7219352   4.717   6.558   7.930 -2.2814 -0.9317  0.2440
   41MOL    H7319353   4.699   6.780   7.852 -0.6675  0.1364  0.6023
   41MOL    C7419354   4.436   6.333   7.774  0.3989  0.0329 -0.0011
   41MOL    C7519355   4.324   6.263   7.818 -0.3568 -0.4083 -0.2193
   41MOL    C7619356   4.337   6.146   7.898 -0.4314 -0.0239  0.4336
   41MOL    C7719357   4.460   6.107   7.951  0.2921  0.4367 -0.3369
   41MOL    C7819358   4.572   6.180   7.908  0.5515  0.5552 -0.2220
   41MOL    C7919359   4.563   6.285   7.816  0.2766  0.1948 -0.1864
   41MOL    S8019360   4.185   6.057   7.939 -0.6997 -0.0312  0.1699
   41MOL    O8119361   4.228   5.917   7.936  0.0311 -0.5872 -0.4157
   41MOL    O8219362   4.075   6.109   7.849 -0.5271 -0.0701  0.3596
   41MOL    C8319363   4.140   6.112   8.103  0.1092  0.0569  0.2565
   41MOL    C8419364   4.069   6.229   8.116 -0.6684  0.0089 -0.1759
   41MOL    C8519365   4.017   6.270   8.244 -0.0892  0.4557 -0.1098
   41MOL    C8619366   4.032   6.185   8.359 -0.7395 -0.3838  0.4522
   41MOL    C8719367   4.108   6.067   8.340 -0.3444 -0.0349 -0.4583
   41MOL    C8819368   4.163   6.032   8.218 -0.2757 -0.5267  0.3949
   41MOL    O8919369   3.993   6.217   0.058 -0.1470 -0.3852  0.1653
   41MOL    H9019370   4.420   6.424   7.718 -0.2592 -0.1778 -0.1617
   41MOL    H9119371   4.223   6.290   7.791  0.0362 -0.6966 -2.0051
   41MOL    H9219372   4.464   6.020   8.016  0.1770  0.6830  0.0010
   41MOL    H9319373   4.670   6.153   7.945 -0.3107 -2.3281  0.0558
   41MOL    H9419374   4.046   6.284   8.026  0.5152  0.6751 -0.0662
   41MOL    H9519375   3.957   6.360   8.245 -1.8204 -0.6788  0.8589
   41MOL    H9619376   4.111   5.996   8.422 -1.1214 -1.1323 -1.3579
   41MOL    H9719377   4.218   5.941   8.200  1.0934  0.4499 -0.4082
   41MOL    C9819378   3.955   6.442   0.126  0.4066  0.3765  0.4429
   41MOL    C9919379   3.992   6.549   0.202 -0.2001  0.4803  0.6123
   41MOL   C10019380   4.119   6.555   0.264 -0.5542 -0.7065 -0.3282
   41MOL   C10119381   4.209   6.448   0.245  0.4554 -0.7266 -0.0356
   41MOL   C10219382   4.169   6.335   0.174 -0.1351  0.3322 -0.3881
   41MOL   C10319383   4.043   6.333   0.106 -0.3055  0.7338  0.1763
   41MOL   S10419384   4.154   6.694   0.373 -0.0804  0.6171  0.1371
   41MOL   O10519385   4.275   6.658   0.448 -0.1870  0.2360  0.1364
   41MOL   O10619386   4.029   6.733   0.446 -0.4532 -0.3387  0.4929
   41MOL   C10719387   4.188   6.838   0.274 -0.0586 -0.2191 -0.2841
   41MOL   C10819388   4.149   6.855   0.139 -0.1348  0.2758  0.1467
   41MOL   C10919389   4.182   6.973   0.069 -0.3182 -0.2305  0.6771
   41MOL   C11019390   4.253   7.070   0.136 -0.1152 -0.3786  0.3827
   41MOL   C11119391   4.291   7.056   0.271 -0.9454  0.3672 -0.2650
   41MOL   C11219392   4.255   6.942   0.343  0.4628 -0.6459 -0.2152
   41MOL   O11319393   4.302   7.181   0.066 -0.4029 -0.2451  0.2131
   41MOL   H11419394   3.849   6.445   0.104  0.5383  0.2189 -0.2295
   41MOL   H11519395   3.938   6.640   0.224 -2.2646 -0.2344 -1.3105
   41MOL   H11619396   4.301   6.445   0.301 -1.2218 -2.3860  2.8187
   41MOL   H11719397   4.242   6.255   0.174 -0.0098  0.4395  0.4369
   41MOL   H11819398   4.098   6.772   0.092  0.6628 -1.6679  2.5288
   41MOL   H11919399   4.143   6.987   8.395 -0.2662  0.2481  0.7256
   41MOL   H12019400   4.345   7.135   0.322 -0.9434  0.4336 -0.3710
   41MOL   H12119401   4.264   6.929   0.450 -0.6557 -3.1335 -0.3880
   41MOL   C12219402   4.402   7.273   8.287  1.3275  0.4854  0.2682
   41MOL   C12319403   4.477   7.256   8.172  0.7865  0.4457 -0.2386
   41MOL   C12419404   4.543   7.132   8.152  0.8411 -0.0369  0.9560
   41MOL   C12519405   4.539   7.028   8.248  0.6004  0.7864  0.0326
   41MOL   C12619406   4.469   7.048   8.369  0.6388 -0.1975  0.4374
   41MOL   C12719407   4.390   7.169   8.385  0.5873 -0.2656 -0.9628
   41MOL   S12819408   4.624   7.116   7.995 -0.2440  0.2816  0.0853
   41MOL   O12919409   4.580   7.228   7.911 -0.6326 -0.5567  0.3651
   41MOL   O13019410   4.606   6.975   7.955 -0.2843  0.2326  0.2758
   41MOL   C13119411   4.802   7.137   8.031  0.1754  0.8114  0.6932
   41MOL   C13219412   4.844   7.205   8.150  0.2834  0.5538 -0.2792
   41MOL   C13319413   4.981   7.200   8.188  0.1432  0.2286  0.3044
   41MOL   C13419414   5.075   7.153   8.091  0.1892 -0.4807  0.8150
   41MOL   C13519415   5.031   7.088   7.972  0.4893 -0.2359  0.9298
   41MOL   C13619416   4.897   7.077   7.943  0.1615 -0.1572  0.4426
   41MOL   O13719417   5.209   7.165   8.120  0.1780 -0.0156 -0.2792
   41MOL   H13819418   4.359   7.372   8.296  1.3795  0.3390  2.3573
   41MOL   H13919419   4.479   7.336   8.101 -2.4216 -0.4338 -1.3904
   41MOL   H14019420   4.588   6.935   8.225 -1.2804  0.1234 -1.4349
   41MOL   H14119421   4.474   6.957   0.001  2.4127 -0.7198 -0.4951
   41MOL   H14219422   4.772   7.249   8.218  1.2056 -0.8241  1.6187
   41MOL   H14319423   5.003   7.245   8.284  1.0931 -2.2263  1.3052
   41MOL   H14419424   5.102   7.041   7.906 -1.5827  0.0428 -1.6012
   41MOL   H14519425   4.856   7.028   7.856  0.0631 -2.1246  1.5831
   41MOL   C14619426   5.309   7.181   8.334 -1.0097 -0.1299  0.1429
   41MOL   C14719427   5.390   7.123   0.009  0.3407 -0.6818  0.3626
   41MOL   C14819428   5.406   6.985   0.013 -0.1019 -0.4666  0.3103
   41MOL   C14919429   5.351   6.898   8.338  0.8039 -0.3448 -0.6830
   41MOL   C15019430   5.273   6.962   8.235 -0.2887  0.9221  0.7591
   41MOL   C15119431   5.255   7.101   8.230 -0.1553 -0.5085  0.0650
   41MOL   S15219432   5.508   6.917   0.148 -0.0066  0.0062  0.1222
   41MOL   O15319433   5.489   7.010   0.262  0.0881  0.3013 -0.2983
   41MOL   O15419434   5.640   6.909   0.089 -0.1870 -0.1102 -0.1122
   41MOL   C15519435   5.457   6.747   0.188  0.6436 -0.3022  0.4678
   41MOL   C15619436   5.320   6.716   0.173 -0.3947 -0.6180 -0.5896
   41MOL   C15719437   5.273   6.591   0.203 -0.4314  0.2212 -0.5073
   41MOL   C15819438   5.366   6.489   0.245  1.2803  0.5107  0.3329
   41MOL   C15919439   5.500   6.518   0.256  0.3337 -0.8042 -0.6347
   41MOL   C16019440   5.548   6.648   0.225  0.5940  0.9996 -0.5866
   41MOL   O16119441   5.318   6.366   0.288 -0.2865  0.6150 -0.1711
   41MOL   H16219442   5.298   7.289   8.335 -1.9114 -0.1884 -1.5230
   41MOL   H16319443   5.425   7.182   0.092 -1.3705  1.7677 -0.5991
   41MOL   H16419444   5.353   6.791   8.344  0.2570 -0.3477 -0.6113
   41MOL   H16519445   5.229   6.901   8.158 -1.3966  0.8156  1.4586
   41MOL   H16619446   5.253   6.794   0.140 -0.1755 -0.1720  0.0117
   41MOL   H16719447   5.166   6.577   0.191 -0.5409  1.5658 -1.1749
   41MOL   H16819448   5.571   6.443   0.287 -0.4765 -0.6338  1.7145
   41MOL   H16919449   5.654   6.665   0.229  0.6567  0.7325 -1.0737
   41MOL   C17019450   5.267   6.407   0.518 -0.1517  0.2258 -0.1489
   41MOL   C17119451   5.173   6.412   0.619  0.2724  0.1441  0.5120
   41MOL   C17219452   5.036   6.390   0.590  0.2612  0.0766  0.5815
   41MOL   C17319453   4.992   6.359   0.457  0.2422  0.3202  0.2408
   41MOL   C17419454   5.085   6.355   0.356 -0.0499  0.3689 -0.4157
   41MOL   C17519455   5.222   6.375   0.389 -0.4086  0.2471 -0.0026
   41MOL   S17619456   4.909   6.391   0.723  0.3890  0.0855 -0.0187
   41MOL   O17719457   4.905   6.255   0.774  0.3101 -0.0470 -0.0342
   41MOL   O17819458   4.789   6.452   0.680 -0.2305 -0.2143 -0.4262
   41MOL   C17919459   4.961   6.503   0.857  0.7689 -0.1505  1.0614
   41MOL   C18019460   4.990   6.636   0.822  0.4917  0.1980  0.7316
   41MOL   C18119461   5.054   6.714   0.924 -0.2329 -0.3624  0.3454
   41MOL   C18219462   5.069   6.672   1.051 -0.1667  0.1255 -0.2246
   41MOL   C18319463   5.018   6.546   1.091 -0.5203  0.2293  0.0332
   41MOL   C18419464   4.965   6.466   0.990 -0.0320 -0.3669  0.2278
   41MOL   O18519465   5.131   6.760   1.143  0.2147  0.3153 -0.0811
   41MOL   H18619466   5.371   6.434   0.532 -0.1732 -0.0305  0.5161
   41MOL   H18719467   5.205   6.442   0.718  0.2743 -0.2168  0.6222
   41MOL   H18819468   4.889   6.344   0.431  0.1785  0.6782  0.2920
   41MOL   H18919469   5.053   6.342   0.254  2.1828  1.0848 -1.2454
   41MOL   H19019470   4.998   6.670   0.720 -2.6572 -0.9245  0.0668
   41MOL   H19119471   5.086   6.810   0.886  0.0895  0.2047  2.0124
   41MOL   H19219472   5.015   6.518   1.195  2.1793  1.4110  0.4636
   41MOL   H19319473   4.918   6.371   1.012  1.8074 -1.7893 -1.7612
   41MOL   C19419474   5.308   6.924   1.093  0.0263  0.2656 -0.6530
   41MOL   C19519475   5.447   6.944   1.067  0.2474 -0.0618  0.1085
   41MOL   C19619476   5.535   6.830   1.055 -0.4769  0.2704 -0.4363
   41MOL   C19719477   5.488   6.702   1.077  0.6408 -1.2282 -0.1633
   41MOL   C19819478   5.354   6.680   1.101  0.3649  0.1430  0.4934
   41MOL   C19919479   5.262   6.788   1.117  0.7365  0.1395 -1.1516
   41MOL   S20019480   5.707   6.844   1.029  0.1577  0.6454 -0.0566
   41MOL   O20119481   5.732   6.980   0.976  0.4194 -0.1161  0.2579
   41MOL   O20219482   5.753   6.728   0.957 -0.4948 -0.0571 -0.0205
   41MOL   C20319483   5.784   6.845   1.196  0.1103 -0.0118 -0.4176
   41MOL   C20419484   5.878   6.740   1.229  0.8240  0.0532 -0.1868
   41MOL   C20519485   5.929   6.730   1.359  0.3614  0.0518  0.5906
   41MOL   C20619486   5.893   6.832   1.453  0.2266 -0.1027  0.5273
   41MOL   C20719487   5.803   6.934   1.417  0.8913 -0.5127 -0.1115
   41MOL   C20819488   5.746   6.944   1.288 -0.3354 -0.2295  0.3855
   41MOL   O20919489   5.952   6.830   1.576  0.3805  0.6605  0.0187
   41MOL   H21019490   5.229   6.997   1.094  0.5792  0.8411  1.3256
   41MOL   H21119491   5.492   7.042   1.069  1.2044 -0.5173  0.9521
   41MOL   H21219492   5.556   6.618   1.077 -0.9650 -2.6367  3.3249
   41MOL   H21319493   5.321   6.577   1.107 -1.4320  0.4182 -3.1906
   41MOL   H21419494   5.898   6.675   1.145 -1.6516 -0.1049 -0.7065
   41MOL   H21519495   6.003   6.661   1.398 -0.9733 -1.4120  0.6343
   41MOL   H21619496   5.779   7.010   1.490 -2.2260  1.1103 -2.6786
   41MOL   H21719497   5.691   7.032   1.257 -2.1804 -0.7688  2.0481
   41MOL   C21819498   5.845   6.948   1.757 -0.9722 -0.7223 -0.2463
   41MOL   C21919499   5.772   6.954   1.877 -0.0198 -0.9879  0.0217
   41MOL   C22019500   5.709   6.835   1.918 -0.1588  0.3674 -0.5553
   41MOL   C22119501   5.730   6.709   1.848 -0.0034 -0.2181  0.0896
   41MOL   C22219502   5.808   6.708   1.728  0.0287 -0.5578  0.0287
   41MOL   C22319503   5.868   6.831   1.687 -0.1442 -0.1466  0.1825
   41MOL   S22419504   5.621   6.824   2.070 -0.1149  0.0101  0.3243
   41MOL   O22519505   5.625   6.958   2.126  0.2827  0.3499  0.5892
   41MOL   O22619506   5.675   6.708   2.143 -0.1521  0.3714  0.3443
   41MOL   C22719507   5.458   6.784   2.019 -0.3339  0.2290 -0.7077
   41MOL   C22819508   5.367   6.881   1.985 -0.1256 -0.1963 -1.0395
   41MOL   C22919509   5.240   6.840   1.938  0.1632 -0.3254  0.0007
   41MOL   C23019510   5.197   6.710   1.939  1.0508  1.0419  0.4972
   41MOL   C23119511   5.292   6.610   1.972 -0.5070  0.2811  0.0748
   41MOL   C23219512   5.423   6.644   2.007  0.4650  0.6836  0.0858
   41MOL   O23319513   5.068   6.685   1.896 -0.1690 -0.3334 -0.0697
   41MOL   H23419514   5.890   7.041   1.724 -1.9051 -0.5282 -0.9815
   41MOL   H23519515   5.761   7.043   1.937  2.5704 -0.5988 -0.0048
   41MOL   H23619516   5.700   6.612   1.886  0.1624 -0.0341  0.6980
   41MOL   H23719517   5.837   6.619   1.674 -2.2862  0.5342 -3.1959
   41MOL   H23819518   5.393   6.986   1.979 -2.4435  0.5103  0.2017
   41MOL   H23919519   5.180   6.920   1.896  0.7165  0.3375  0.4701
   41MOL   H24019520   5.264   6.506   1.972 -0.7506  0.3419 -0.7393
   41MOL   H24119521   5.484   6.569   2.056 -0.7474 -0.2725  0.1421
   41MOL   C24219522   4.981   6.590   2.095  0.2730 -0.4692  0.5574
   41MOL   C24319523   4.906   6.482   2.151  0.1495  0.6603  1.1012
   41MOL   C24419524   4.855   6.378   2.067  0.5239 -0.2070  0.0710
   41MOL   C24519525   4.868   6.380   1.928  0.5419  1.0117  0.1570
   41MOL   C24619526   4.934   6.495   1.872  1.1769  1.2562 -0.2565
   41MOL   C24719527   4.990   6.592   1.955  0.1163 -0.3010  0.1944
   41MOL   S24819528   4.772   6.245   2.153  0.1491  0.2738  0.5546
   41MOL   O24919529   4.627   6.264   2.139 -0.2468 -0.5569  0.2867
   41MOL   O25019530   4.838   6.243   2.285  0.3750 -0.2658 -0.3599
   41MOL   C25119531   4.810   6.086   2.071  0.2919  0.6604  0.6313
   41MOL   C25219532   4.920   6.020   2.125 -0.4773  0.7360 -0.3101
   41MOL   C25319533   4.962   5.898   2.068  0.2966  0.0545  0.0330
   41MOL   C25419534   4.890   5.845   1.960  0.1077 -0.9763  0.0204
   41MOL   C25519535   4.771   5.912   1.910  0.1182  0.3057  0.0202
   41MOL   C25619536   4.736   6.031   1.963  0.1568 -0.1193 -0.4313
   41MOL   O25719537   4.921   5.722   1.909  0.2125  0.0605 -0.0193
   41MOL   H25819538   5.026   6.657   2.167 -1.6735  0.5407  0.8664
   41MOL   H25919539   4.894   6.477   2.258 -0.8993  2.1476  1.0694
   41MOL   H26019540   4.822   6.299   1.874  1.8076  1.2598 -1.3466
   41MOL   H26119541   4.938   6.497   1.764  4.0568 -0.4839 -0.2395
   41MOL   H26219542   4.980   6.062   2.204  2.5627  0.0434 -2.1400
   41MOL   H26319543   5.049   5.855   2.115  0.6343 -0.2736 -0.8871
   41MOL   H26419544   4.709   5.873   1.831 -2.3253  0.3019  1.9051
   41MOL   H26519545   4.650   6.089   1.933 -0.9678  0.0411  2.9165
   41MOL   C26619546   5.142   5.663   1.854  0.5109  0.2322  0.3578
   41MOL   C26719547   5.247   5.633   1.763  0.2360  0.0992 -0.0683
   41MOL   C26819548   5.218   5.647   1.626  0.1924  0.1405  0.1999
   41MOL   C26919549   5.087   5.698   1.582  0.2141  0.1682  0.2459
   41MOL   C27019550   4.982   5.718   1.678  0.9028 -0.0033 -0.2440
   41MOL   C27119551   5.013   5.709   1.816 -0.0122  0.0878  0.0286
   41MOL   S27219552   5.346   5.625   1.506  0.3927 -0.4254 -0.5264
   41MOL   O27319553   5.430   5.513   1.545 -0.2914 -0.0366 -0.6383
   41MOL   O27419554   5.404   5.757   1.475  1.1404  0.3211 -0.1307
   41MOL   C27519555   5.277   5.562   1.354  0.4333 -0.1650 -0.6852
   41MOL   C27619556   5.163   5.481   1.354  0.4913  0.2013 -0.0798
   41MOL   C27719557   5.126   5.410   1.234 -0.2236  0.3028  0.4842
   41MOL   C27819558   5.200   5.432   1.120 -0.1085  0.0826 -0.4185
   41MOL   C27919559   5.316   5.509   1.124  0.9227  0.1981  0.7856
   41MOL   C28019560   5.356   5.571   1.246  0.3646  0.4144  1.6021
   41MOL   O28119561   5.150   5.377   0.999 -0.5294 -0.6987  0.0607
   41MOL   H28219562   5.157   5.650   1.960  0.9572  0.9458  0.3835
   41MOL   H28319563   5.341   5.598   1.805 -1.4222 -1.2485  2.6243
   41MOL   H28419564   5.076   5.707   1.475  3.3031  1.9161  0.0441
   41MOL   H28519565   4.887   5.753   1.640  0.0639 -0.9748  0.9135
   41MOL   H28619566   5.112   5.465   1.448 -1.1827  0.8353 -0.8578
   41MOL   H28719567   5.029   5.362   1.235  0.2464 -0.6561  0.4993
   41MOL   H28819568   5.376   5.514   1.034 -1.3910  1.5826 -0.7413
   41MOL   H28919569   5.454   5.616   1.248  0.3030  0.7281 -0.7078
   41MOL   C29019570   5.294   5.233   0.871 -0.6578 -0.1564  0.0632
   41MOL   C29119571   5.337   5.107   0.827  0.2190  0.0101 -1.1231
   41MOL   C29219572   5.299   4.992   0.899 -0.8891  1.1736  0.2632
   41MOL   C29319573   5.214   5.006   1.007 -0.2860 -0.1828  0.0217
   41MOL   C29419574   5.151   5.129   1.035 -0.0256  0.0784 -0.4831
   41MOL   C29519575   5.201   5.247   0.971 -0.3304 -0.6011  0.8938
   41MOL   S29619576   5.368   4.826   0.872 -0.4156 -0.3186  0.1314
   41MOL   O29719577   5.425   4.810   0.736  0.8567 -0.7772 -0.2292
   41MOL   O29819578   5.271   4.726   0.914  0.1301 -0.3380  0.1608
   41MOL   C29919579   5.512   4.817   0.980  0.2544  0.0936 -0.4505
   41MOL   C30019580   5.569   4.690   1.006  0.1284 -0.4136  0.3475
   41MOL   C30119581   5.681   4.681   1.087 -0.2309 -0.0215 -0.2446
   41MOL   C30219582   5.747   4.801   1.136 -0.0180  0.3265 -0.6813
   41MOL   C30319583   5.694   4.925   1.101  0.0955  0.0176  0.5958
   41MOL   C30419584   5.572   4.935   1.028 -0.0118  0.3671 -0.2861
   41MOL   O30519585   5.863   4.792   1.202  0.8064 -0.4908  0.3355
   41MOL   H30619586   5.328   5.317   0.813  2.3290  0.1668  2.1845
   41MOL   H30719587   5.410   5.107   0.747  1.5541 -1.0639  0.0615
   41MOL   H30819588   5.196   4.916   1.064 -2.2607  0.1538 -0.0296
   41MOL   H30919589   5.079   5.134   1.115 -0.4251  0.1713 -0.8461
   41MOL   H31019590   5.519   4.601   0.970 -0.1124  0.8710 -2.6812
   41MOL   H31119591   5.737   4.589   1.103  2.8321  1.9188  0.6575
   41MOL   H31219592   5.738   5.016   1.140  1.4664 -0.7423  0.8614
   41MOL   H31319593   5.545   5.031   0.985  1.2423  0.5306 -0.7413
   41MOL   C31419594   5.974   4.907   1.375 -0.2738 -0.1621  0.8851
   41MOL   C31519595   5.985   4.929   1.517  0.2829  0.5328  0.1779
   41MOL   C31619596   5.884   4.889   1.604 -0.2912 -0.1481 -0.2589
   41MOL   C31719597   5.781   4.805   1.563  0.2134 -0.4877  0.3748
   41MOL   C31819598   5.778   4.772   1.426  0.4625  0.1415  0.1116
   41MOL   C31919599   5.867   4.829   1.336  0.0119 -0.0853 -0.2747
   41MOL   S32019600   5.888   4.952   1.769 -0.6513  0.2240 -0.0381
   41MOL   O32119601   5.760   4.949   1.833  0.1332  0.1381  0.6636
   41MOL   O32219602   5.948   5.086   1.768  0.4413 -0.3884  0.5054
   41MOL   C32319603   5.996   4.847   1.866 -0.4067  0.5498  0.1564
   41MOL   C32419604   6.088   4.906   1.956  0.1033 -0.6877  0.1829
   41MOL   C32519605   6.163   4.822   2.041 -0.7998  0.8578  0.0464
   41MOL   C32619606   6.146   4.681   2.041  0.1689  0.5382  0.8771
   41MOL   C32719607   6.064   4.624   1.945 -0.3194  0.0777  0.0782
   41MOL   C32819608   5.993   4.703   1.857 -0.1579 -0.1558  0.2610
   41MOL   O32919609   6.210   4.613   2.141  0.7860  0.0718 -0.0793
   41MOL   H33019610   6.040   4.958   1.307  0.7139 -0.4630  1.6101
   41MOL   H33119611   6.069   4.993   1.541  0.7176  0.3675 -0.8624
   41MOL   H33219612   5.709   4.772   1.636 -1.3850 -0.6445 -1.2364
   41MOL   H33319613   5.702   4.703   1.390 -1.2779  0.7614  2.4398
   41MOL   H33419614   6.117   5.010   1.953 -1.5091 -0.2326 -0.5614
   41MOL   H33519615   6.239   4.864   2.106 -0.1083  0.0045 -0.1985
   41MOL   H33619616   6.052   4.517   1.946 -3.0245  0.3510  0.3586
   41MOL   H33719617   5.921   4.655   1.793  0.4972 -0.2422 -0.4127
   41MOL   C33819618   6.420   4.608   2.262 -0.2994  0.2953 -0.1900
   41MOL   C33919619   6.560   4.589   2.268  0.0272 -0.9247  0.2455
   41MOL   C34019620   6.620   4.539   2.149  0.0709  0.1873  0.3941
   41MOL   C34119621   6.544   4.511   2.034 -0.6248 -0.2728 -0.3560
   41MOL   C34219622   6.407   4.530   2.028 -0.0587  0.6933  0.2441
   41MOL   C34319623   6.346   4.586   2.145  0.0168 -0.4043 -0.9636
   41MOL   S34419624   6.793   4.490   2.152 -0.3012 -0.1780  0.4217
   41MOL   O34519625   6.861   4.557   2.266  0.2745  0.4668 -0.3090
   41MOL   O34619626   6.847   4.497   2.016  0.3482  0.8041  0.1009
   41MOL   C34719627   6.785   4.311   2.185 -0.4578 -0.0445  0.6507
   41MOL   C34819628   6.858   4.221   2.104 -0.2508  0.0185  0.4109
   41MOL   C34919629   6.847   4.086   2.132 -0.2676  0.2335  0.4752
   41MOL   C35019630   6.756   4.031   2.230  0.2911  0.1570  0.1561
   41MOL   C35119631   6.683   4.125   2.306  0.4704  0.2594 -0.2621
   41MOL   C35219632   6.706   4.266   2.289 -0.4006 -0.2101  0.6754
   41MOL   O35319633   6.722   3.897   2.240 -0.2773  0.4770 -0.2051
   41MOL   H35419634   6.370   4.641   2.352 -0.6100  1.9487 -0.9534
   41MOL   H35519635   6.614   4.600   2.361 -3.2000  5.3128  1.6543
   41MOL   H35619636   6.602   4.460   1.959 -2.3800 -1.7054 -0.7845
   41MOL   H35719637   6.337   4.514   1.947 -0.3352 -0.3150  0.6811
   41MOL   H35819638   6.924   4.262   2.029 -0.8361 -1.0136 -0.6698
   41MOL   H35919639   6.908   4.022   2.070 -0.4895  2.0712 -1.7156
   41MOL   H36019640   6.620   4.098   2.390  1.2009 -0.5081  0.0442
   41MOL   H36119641   6.649   4.337   2.346  0.8252  0.8344  0.6178
   41MOL   C36219642   6.573   3.812   2.403  0.2371  0.0930 -1.0833
   41MOL   C36319643   6.551   3.758   2.534  0.2765 -0.0885 -0.1037
   41MOL   C36419644   6.660   3.739   2.617  0.2035  0.1498 -0.3111
   41MOL   C36519645   6.785   3.772   2.570 -0.5957  0.1450  0.0154
   41MOL   C36619646   6.809   3.820   2.444 -0.5132 -0.0930 -0.0870
   41MOL   C36719647   6.701   3.845   2.361 -0.0772  0.2295  0.4391
   41MOL   S36819648   6.636   3.661   2.777 -0.3740  0.3411 -0.5359
   41MOL   O36919649   6.496   3.676   2.818 -0.0762  0.0904 -0.0846
   41MOL   O37019650   6.747   3.707   2.865  0.3584  0.3087 -0.2155
   41MOL   C37119651   6.657   3.489   2.745  0.3481  0.4976 -0.1263
   41MOL   C37219652   6.635   3.406   2.857  0.1823 -0.6404 -0.2057
   41MOL   C37319653   6.622   3.268   2.836  0.4663  0.3722  0.3034
   41MOL   C37419654   6.637   3.212   2.707  0.3195  0.1981  0.2403
   41MOL   C37519655   6.680   3.297   2.603 -0.3976  0.4089  0.1631
   41MOL   C37619656   6.683   3.432   2.619 -0.0061 -0.2554 -0.0047
   41MOL   O37719657   6.625   3.073   2.690 -0.5732  0.0491  0.3318
   41MOL   H37819658   6.491   3.829   2.335 -0.2801 -0.6197 -0.6491
   41MOL   H37919659   6.451   3.739   2.569 -0.9280  1.4399 -2.5665
   41MOL   H38019660   6.869   3.743   2.631 -0.9880 -0.4846  0.2457
   41MOL   H38119661   6.909   3.847   2.413 -0.6661  0.2274 -0.3173
   41MOL   H38219662   6.618   3.448   2.955 -0.2214 -0.9095 -0.1609
   41MOL   H38319663   6.604   3.205   2.921 -0.5043  0.9640  0.5489
   41MOL   H38419664   6.689   3.250   2.506 -0.3888  2.0816 -0.6587
   41MOL   H38519665   6.704   3.499   2.536 -1.8561  1.1598  0.6424
   41MOL   C38619666   6.490   2.989   2.517  0.7735 -0.5493 -0.0446
   41MOL   C38719667   6.362   2.948   2.464  0.7230 -0.2099 -0.4733
   41MOL   C38819668   6.245   2.959   2.537 -0.3693  0.2545 -0.0591
   41MOL   C38919669   6.260   3.005   2.674 -0.3287 -0.3313  0.8316
   41MOL   C39019670   6.383   3.058   2.723 -0.2477  0.4126  0.8276
   41MOL   C39119671   6.500   3.040   2.647 -0.1428  0.3461 -0.9407
   41MOL   S39219672   6.100   2.884   2.476  0.0436 -0.3777 -0.0666
   41MOL   O39319673   5.999   2.856   2.586 -0.0357 -0.0031  0.2225
   41MOL   O39419674   6.144   2.771   2.387 -0.2880 -0.3714 -0.2346
   41MOL   C39519675   6.030   3.017   2.380  0.3100  0.1262  0.4533
   41MOL   C39619676   6.115   3.095   2.301 -0.0089  0.0010  0.1699
   41MOL   C39719677   6.054   3.186   2.210 -0.0957 -0.1064  0.3201
   41MOL   C39819678   5.915   3.212   2.212  0.1200 -0.0821 -0.7109
   41MOL   C39919679   5.833   3.139   2.306 -0.7873 -0.3426  0.3024
   41MOL   C40019680   5.891   3.038   2.382 -0.2027  0.6892  0.2694
   41MOL   O40119681   5.871   3.313   2.129 -0.1338 -0.1237 -0.6493
   41MOL   H40219682   6.582   2.982   2.461  1.2867  2.4737  0.3615
   41MOL   H40319683   6.359   2.917   2.361  1.4573  0.9207 -0.8475
   41MOL   H40419684   6.172   3.001   2.737  0.1403 -1.0890  1.4445
   41MOL   H40519685   6.387   3.106   2.820  0.7439 -2.3503  2.2308
   41MOL   H40619686   6.221   3.074   2.300 -0.1733 -0.8651 -1.7047
   41MOL   H40719687   6.119   3.244   2.147 -0.5295 -2.3582 -2.3289
   41MOL   H40819688   5.725   3.144   2.314 -0.8150 -0.5023  0.0223
   41MOL   H40919689   5.848   2.983   2.464  0.8632  0.2161  0.5275
   41MOL   C41019690   5.724   3.498   2.146 -0.0200 -0.4902  0.2262
   41MOL   C41119691   5.706   3.635   2.188 -0.1965  0.7746 -0.2416
   41MOL   C41219692   5.811   3.698   2.256  0.2949 -0.5289 -0.0624
   41MOL   C41319693   5.930   3.636   2.296 -0.2271 -0.3403  0.2515
   41MOL   C41419694   5.947   3.503   2.265 -0.2243 -0.4081 -0.3857
   41MOL   C41519695   5.851   3.437   2.182  0.0081 -0.1911 -0.2991
   41MOL   S41619696   5.794   3.863   2.324  0.0271  0.0745  0.1917
   41MOL   O41719697   5.878   3.879   2.440  0.2125  0.1867  0.4492
   41MOL   O41819698   5.648   3.883   2.344 -0.1450  0.0599 -0.2326
   41MOL   C41919699   5.850   3.981   2.198  0.0131 -0.1337  0.3973
   41MOL   C42019700   5.879   4.114   2.244  0.1165 -0.1971 -0.0014
   41MOL   C42119701   5.905   4.216   2.151  0.3846  0.8605  0.4317
   41MOL   C42219702   5.903   4.179   2.011 -0.0102  0.4206 -0.1150
   41MOL   C42319703   5.880   4.044   1.970  0.3565 -0.0473 -0.4666
   41MOL   C42419704   5.863   3.940   2.064  0.1543  0.6698 -0.2924
   41MOL   O42519705   5.939   4.276   1.920 -0.1696 -0.1854 -0.2710
   41MOL   H42619706   5.652   3.437   2.095 -0.7913  0.0550  0.6605
   41MOL   H42719707   5.613   3.684   2.164 -0.6142 -0.7057 -1.7329
   41MOL   H42819708   6.009   3.681   2.354  0.6585  0.4077 -1.5093
   41MOL   H42919709   6.030   3.440   2.294 -0.1441 -0.6420 -1.1151
   41MOL   H43019710   5.890   4.137   2.348 -0.4726  0.3889 -0.0662
   41MOL   H43119711   5.925   4.311   2.198  1.1390  0.9535 -0.0753
   41MOL   H43219712   5.899   4.019   1.867 -0.2937 -0.5783 -0.4614
   41MOL   H43319713   5.838   3.839   2.036  0.8857  0.7487 -1.2331
   41MOL   C43419714   5.921   4.202   1.686  0.1306 -0.1668 -0.0065
   41MOL   C43519715   5.861   4.207   1.559  0.0544  0.0387 -0.2576
   41MOL   C43619716   5.760   4.297   1.534  0.7377 -0.8560 -0.2079
   41MOL   C43719717   5.720   4.377   1.643  0.6565 -0.4886 -0.3381
   41MOL   C43819718   5.770   4.365   1.773 -0.4488  0.4266  0.0798
   41MOL   C43919719   5.877   4.280   1.797  0.3218  0.3237 -0.3242
   41MOL   S44019720   5.687   4.324   1.377 -0.3008  0.0110  0.5196
   41MOL   O44119721   5.754   4.434   1.302  0.0112 -0.3942  0.1754
   41MOL   O44219722   5.543   4.342   1.398  0.5841  0.1097 -0.1345
   41MOL   C44319723   5.701   4.174   1.283  0.8970  0.0377  0.3252
   41MOL   C44419724   5.801   4.167   1.178  0.1255  0.3086  0.1903
   41MOL   C44519725   5.807   4.050   1.104 -0.4673  0.3314  0.6033
   41MOL   C44619726   5.721   3.938   1.127 -0.6230 -0.1489 -0.7669
   41MOL   C44719727   5.636   3.940   1.234  0.0830  0.0784  0.1060
   41MOL   C44819728   5.622   4.059   1.310 -0.3820 -0.3412  0.2737
   41MOL   O44919729   5.733   3.819   1.058  0.1385  0.2820 -0.3981
   41MOL   H45019730   5.999   4.130   1.707 -0.8983 -0.9092  1.3503
   41MOL   H45119731   5.890   4.147   1.475 -1.3211 -1.1431  0.0965
   41MOL   H45219732   5.645   4.452   1.623 -0.3890 -1.6808 -1.0236
   41MOL   H45319733   5.740   4.422   1.860 -0.7429  0.9718 -0.3802
   41MOL   H45419734   5.859   4.253   1.146 -2.2044  1.1741 -1.8721
   41MOL   H45519735   5.878   4.043   1.023  0.2501  1.7022  1.0909
   41MOL   H45619736   5.575   3.852   1.250 -0.3027  0.2184 -0.5808
   41MOL   H45719737   5.562   4.055   1.400  2.9055  1.7229  2.6404
   41MOL   C45819738   5.639   3.878   0.844  0.2001 -0.0326  0.1851
   41MOL   C45919739   5.647   3.868   0.705  0.4182  0.3373  0.1053
   41MOL   C46019740   5.764   3.809   0.645  0.1755  0.0654 -0.4466
   41MOL   C46119741   5.856   3.730   0.722  0.3802  0.1315  0.3649
   41MOL   C46219742   5.837   3.729   0.864  0.2171 -0.4982  0.2946
   41MOL   C46319743   5.738   3.816   0.921 -0.4042 -0.1533 -0.6291
   41MOL   S46419744   5.773   3.810   0.462 -0.0012 -0.5637 -0.6059
   41MOL   O46519745   5.694   3.698   0.415 -0.0622  0.2741 -0.0851
   41MOL   O46619746   5.913   3.827   0.426 -0.2700 -0.4683 -0.6246
   41MOL   C46719747   5.689   3.964   0.418 -0.1536  0.6060 -0.2228
   41MOL   C46819748   5.746   4.090   0.447 -0.3040 -0.2990 -0.0512
   41MOL   C46919749   5.682   4.206   0.413  0.4420  0.1695  0.4606
   41MOL   C47019750   5.551   4.208   0.357 -0.2030 -0.2009  0.0215
   41MOL   C47119751   5.491   4.080   0.341  0.3967  0.2363  0.2355
   41MOL   C47219752   5.562   3.961   0.364 -0.0808  0.8155  0.4414
   41MOL   O47319753   5.482   4.321   0.331 -0.2811  0.0620  0.0040
   41MOL   H47419754   5.556   3.930   0.889  1.1575 -0.0302  1.9877
   41MOL   H47519755   5.565   3.902   0.643  0.8201  2.1529  0.5295
   41MOL   H47619756   5.928   3.674   0.664  1.2152  0.5474  0.9938
   41MOL   H47719757   5.894   3.663   0.927 -2.1441  1.0308  4.2450
   41MOL   H47819758   5.845   4.099   0.491 -0.1160 -1.8393 -0.1486
   41MOL   H47919759   5.736   4.296   0.438 -0.5161  1.2653 -1.2673
   41MOL   H48019760   5.389   4.068   0.308  0.1294 -0.0560  1.1571
   41MOL   H48119761   5.525   3.863   0.338 -0.6295  1.0261  0.4222
   41MOL   H48219762   5.537   4.397   0.343 -0.8620  0.9263 -2.4447
   42MOL     C119763   3.568   2.623   6.693 -1.0089 -0.2742  0.4259
   42MOL     C219764   3.626   2.688   6.799  0.2433 -0.1050  0.8347
   42MOL     C319765   3.768   2.717   6.792  0.7930 -0.5018  0.0779
   42MOL     C419766   3.849   2.677   6.682  0.0526  0.7127  0.4634
   42MOL     C519767   3.787   2.612   6.574 -0.3377 -0.3754  0.0202
   42MOL     C619768   3.648   2.584   6.580  0.7874  0.1238 -0.0284
   42MOL     S719769   3.845   2.797   6.938 -0.4840  0.1993 -0.1048
   42MOL     O819770   3.990   2.800   6.918 -0.2621 -0.8418 -0.0389
   42MOL     O919771   3.792   2.729   7.058  0.4653 -0.3181 -0.0858
   42MOL    C1019772   3.798   2.969   6.956  0.5959 -0.3939  0.7359
   42MOL    C1119773   3.731   3.038   6.852 -0.6640 -0.1530 -0.6781
   42MOL    C1219774   3.702   3.177   6.863  0.2780 -0.5625 -0.2946
   42MOL    C1319775   3.720   3.238   6.995 -0.5757  0.0466  0.2927
   42MOL    C1419776   3.788   3.162   7.093 -0.2309  0.2542  0.0665
   42MOL    C1519777   3.831   3.031   7.074 -0.3320 -0.3756  0.8555
   42MOL    O1619778   3.666   3.364   7.010  0.3165 -0.4260 -0.0218
   42MOL    H1719779   3.465   2.591   6.685 -0.2600 -1.9954 -3.1161
   42MOL    H1819780   3.561   2.707   6.883  1.0007 -0.9414  1.6127
   42MOL    H1919781   3.956   2.692   6.684  0.2459 -0.2184 -1.5241
   42MOL    H2019782   3.851   2.581   6.492  1.4290  0.6382  0.9850
   42MOL    H2119783   3.712   2.987   6.759  1.0342 -4.8377  1.4250
   42MOL    H2219784   3.654   3.235   6.785 -0.8288 -1.3406 -0.2040
   42MOL    H2319785   3.796   3.217   7.186  2.0526 -0.4896  0.3375
   42MOL    H2419786   3.892   2.985   7.150  0.2341 -1.1810 -0.0709
   42MOL    H2519787   3.596   2.539   6.496 -1.6089  2.8519 -0.1235
   42MOL    C2619788   3.636   3.474   7.219 -0.2850 -0.3375  0.2548
   42MOL    C2719789   3.566   3.502   7.338  0.2503 -0.0805  0.0789
   42MOL    C2819790   3.452   3.425   7.367  0.0439 -0.0099  0.1248
   42MOL    C2919791   3.415   3.320   7.282 -0.3974 -0.0536  0.0170
   42MOL    C3019792   3.480   3.304   7.157 -0.4959  0.0269 -0.6105
   42MOL    C3119793   3.591   3.383   7.119 -0.6038 -0.8550 -0.2447
   42MOL    S3219794   3.363   3.440   7.526 -0.0662 -0.2595 -0.2452
   42MOL    O3319795   3.422   3.555   7.588  0.3299  0.1293 -0.2593
   42MOL    O3419796   3.377   3.309   7.594  0.2199 -0.3415 -0.1367
   42MOL    C3519797   3.187   3.472   7.502  0.0667  0.7807  0.0119
   42MOL    C3619798   3.100   3.364   7.497 -0.3755 -0.3390 -0.5878
   42MOL    C3719799   2.964   3.387   7.479 -0.2187  0.6466  0.4904
   42MOL    C3819800   2.910   3.518   7.460  0.1633  0.2553 -0.9511
   42MOL    C3919801   2.997   3.625   7.475 -0.4815 -0.4826  0.6379
   42MOL    C4019802   3.133   3.601   7.486  0.2079  0.1100 -0.7925
   42MOL    O4119803   2.783   3.546   7.452  0.3130 -0.2659  0.1021
   42MOL    H4219804   3.728   3.527   7.196  0.1673 -1.4275 -0.5399
   42MOL    H4319805   3.591   3.574   7.414  0.7630  0.1017 -0.2637
   42MOL    H4419806   3.336   3.253   7.314  1.8687 -1.4356  3.0361
   42MOL    H4519807   3.451   3.220   7.096  0.3910 -1.5386  1.0525
   42MOL    H4619808   3.141   3.264   7.497 -0.4476 -0.4191  1.9552
   42MOL    H4719809   2.889   3.310   7.473  0.5903  0.0776 -2.8798
   42MOL    H4819810   2.965   3.728   7.469  1.0296 -0.0310  0.0428
   42MOL    H4919811   3.197   3.688   7.495 -0.8624  0.8033  0.2290
   42MOL    C5019812   2.646   3.467   7.277  0.6356 -0.1504  0.3869
   42MOL    C5119813   2.579   3.476   7.153 -0.5119 -0.3444  0.8743
   42MOL    C5219814   2.605   3.591   7.075 -0.2392  1.1533  0.8782
   42MOL    C5319815   2.681   3.693   7.130 -0.4613 -0.2438  0.1644
   42MOL    C5419816   2.745   3.686   7.255 -0.2821  0.2652 -0.8153
   42MOL    C5519817   2.726   3.569   7.328  0.1339  0.1732 -0.6560
   42MOL    S5619818   2.511   3.623   6.922 -0.2915  0.0450 -0.2876
   42MOL    O5719819   2.500   3.493   6.861  0.0166 -0.4154 -0.0603
   42MOL    O5819820   2.562   3.742   6.854  0.6861 -0.1664 -0.5448
   42MOL    C5919821   2.349   3.661   6.992 -0.4867  0.5277  0.3581
   42MOL    C6019822   2.243   3.573   6.974 -0.7446  0.4508  0.0800
   42MOL    C6119823   2.116   3.598   7.032  0.1065 -0.0373 -0.0506
   42MOL    C6219824   2.094   3.705   7.120  0.2933 -0.7160  1.1915
   42MOL    C6319825   2.213   3.786   7.139  0.3288  0.2082  0.2946
   42MOL    C6419826   2.340   3.768   7.077 -0.3206  0.7388 -0.7332
   42MOL    O6519827   1.976   3.743   7.176 -0.2190 -0.5836  0.7061
   42MOL    H6619828   2.625   3.377   7.333 -1.6741 -1.2252 -2.1087
   42MOL    H6719829   2.517   3.397   7.115 -1.0674  0.2965  0.4240
   42MOL    H6819830   2.696   3.784   7.074 -2.9376 -0.0815 -0.2852
   42MOL    H6919831   2.809   3.770   7.278 -0.3170  0.1957 -0.4502
   42MOL    H7019832   2.261   3.489   6.908  1.4394 -1.5550  3.0621
   42MOL    H7119833   2.039   3.526   7.009 -0.7262  0.4937  1.0502
   42MOL    H7219834   2.203   3.874   7.200 -1.2351 -0.1932  0.6344
   42MOL    H7319835   2.424   3.828   7.108  0.9827  0.2856 -3.2499
   42MOL    C7419836   1.797   3.592   7.257 -0.4481  0.1966  0.8662
   42MOL    C7519837   1.756   3.495   7.354  0.0907 -0.0578 -0.4578
   42MOL    C7619838   1.825   3.484   7.472  0.4595 -0.1041 -0.1220
   42MOL    C7719839   1.953   3.549   7.490 -0.4427  0.6430  0.0169
   42MOL    C7819840   1.996   3.633   7.387 -0.1686  0.0900 -0.1388
   42MOL    C7919841   1.922   3.655   7.271 -0.4769  0.5605  0.2352
   42MOL    S8019842   1.763   3.372   7.597  0.6680  0.2234  0.1886
   42MOL    O8119843   1.859   3.265   7.622  0.0623  0.8349  0.6937
   42MOL    O8219844   1.629   3.334   7.563  0.0813 -0.6610 -0.2938
   42MOL    C8319845   1.750   3.462   7.752  0.2633  0.0498 -0.2401
   42MOL    C8419846   1.814   3.412   7.873  0.0090 -0.0137  0.1398
   42MOL    C8519847   1.793   3.476   7.996 -0.3132 -0.4317  0.0199
   42MOL    C8619848   1.712   3.591   8.002 -0.1737 -0.0408  0.2283
   42MOL    C8719849   1.645   3.636   7.886  0.4120 -0.5661  0.2275
   42MOL    C8819850   1.658   3.569   7.765  0.1809 -0.8179  0.1109
   42MOL    O8919851   1.696   3.653   8.123  0.1535 -0.3491  0.1625
   42MOL    H9019852   1.732   3.598   7.171 -0.6057 -3.0663  0.6898
   42MOL    H9119853   1.673   3.426   7.347  2.6538 -3.4450  1.2687
   42MOL    H9219854   2.011   3.539   7.581 -1.3544  0.3142  0.5716
   42MOL    H9319855   2.081   3.700   7.392 -0.2325  0.0845  1.1918
   42MOL    H9419856   1.873   3.322   7.866  2.4411  1.7508 -3.6750
   42MOL    H9519857   1.838   3.436   8.087  1.3244  3.8541  1.1922
   42MOL    H9619858   1.591   3.729   7.888 -1.1016 -1.4699  1.4400
   42MOL    H9719859   1.594   3.604   7.686 -1.7762 -2.6079  0.8683
   42MOL    C9819860   1.829   3.842   8.041 -0.6817  0.1281 -0.0557
   42MOL    C9919861   1.871   3.972   8.062 -0.3522 -0.3830  0.6588
   42MOL   C10019862   1.836   4.044   8.175 -0.0714  0.6160 -0.2388
   42MOL   C10119863   1.755   3.982   8.272 -0.2109 -0.0429 -0.7395
   42MOL   C10219864   1.719   3.848   8.261  0.1960 -0.4622  0.6526
   42MOL   C10319865   1.755   3.778   8.143  0.3500 -0.0012  0.4078
   42MOL   S10419866   1.869   4.216   8.188 -0.1738  0.2045  0.5075
   42MOL   O10519867   1.739   4.290   8.166 -0.4559 -0.3363  0.3240
   42MOL   O10619868   1.985   4.242   8.099 -0.0868 -0.0481 -0.6642
   42MOL   C10719869   1.916   4.257   8.353 -1.1734  0.3716  0.4851
   42MOL   C10819870   1.813   4.268   0.022 -0.0179 -0.3384 -0.1525
   42MOL   C10919871   1.843   4.274   0.160 -0.2878  0.6130 -0.4117
   42MOL   C11019872   1.977   4.273   0.204 -0.5277  0.0494  0.0081
   42MOL   C11119873   2.079   4.268   0.105  0.5843  0.5979 -0.0262
   42MOL   C11219874   2.046   4.256   8.391  0.6146 -0.3601  0.6080
   42MOL   O11319875   1.993   4.275   0.340 -0.4669 -0.0635 -0.0254
   42MOL   H11419876   1.851   3.793   7.947  0.8745 -0.2762  0.4978
   42MOL   H11519877   1.922   4.025   7.983  0.0537 -2.6704 -0.6706
   42MOL   H11619878   1.714   4.040   8.353 -1.4324  0.6543 -1.8330
   42MOL   H11719879   1.667   3.801   8.342  0.6074  0.5324  1.5040
   42MOL   H11819880   1.710   4.268   8.414 -0.1253 -1.5562  0.1790
   42MOL   H11919881   1.757   4.269   0.226  1.0185 -1.6242  1.1834
   42MOL   H12019882   2.177   4.293   0.143  0.9314  0.3056 -0.7194
   42MOL   H12119883   2.127   4.254   8.319  0.8173  0.6581  0.7993
   42MOL   C12219884   2.179   4.419   0.418 -0.4985  0.2133  0.7528
   42MOL   C12319885   2.211   4.538   0.493 -0.1459 -0.5036  0.1596
   42MOL   C12419886   2.111   4.620   0.550  0.0690  0.0269 -1.1751
   42MOL   C12519887   1.975   4.588   0.539 -0.3399  0.3277 -0.2989
   42MOL   C12619888   1.944   4.477   0.457  0.1897 -0.1087  0.5484
   42MOL   C12719889   2.040   4.393   0.396  0.2784 -0.6290  0.7208
   42MOL   S12819890   2.155   4.773   0.636  0.3103  0.0668 -0.2770
   42MOL   O12919891   2.165   4.878   0.532 -0.3472 -0.4681  0.1332
   42MOL   O13019892   2.274   4.745   0.717 -0.4692  0.0361  0.3367
   42MOL   C13119893   2.017   4.818   0.741  0.1638 -0.2888 -0.5328
   42MOL   C13219894   1.922   4.913   0.699  0.0539  0.6400  0.4527
   42MOL   C13319895   1.816   4.938   0.781  0.7259 -0.1782 -0.1680
   42MOL   C13419896   1.805   4.880   0.906 -0.7145  0.0802  0.2864
   42MOL   C13519897   1.904   4.802   0.959  0.3811 -0.0026 -0.1324
   42MOL   C13619898   2.014   4.773   0.877  0.2173  0.5962 -0.0665
   42MOL   O13719899   1.687   4.882   0.974  0.4523  0.6058  0.5957
   42MOL   H13819900   2.251   4.345   0.384  1.3096  1.4873  1.7415
   42MOL   H13919901   2.312   4.576   0.504  0.3383 -2.1611  1.5525
   42MOL   H14019902   1.902   4.650   0.588  0.5526  1.1522 -0.0145
   42MOL   H14119903   1.841   4.449   0.446 -0.1691  1.2954  0.1959
   42MOL   H14219904   1.919   4.942   0.595  2.9024 -1.1956 -0.1768
   42MOL   H14319905   1.734   4.999   0.746  0.9100 -0.9795 -2.0984
   42MOL   H14419906   1.895   4.764   1.059 -0.1459 -1.4072 -0.7036
   42MOL   H14519907   2.107   4.721   0.898  1.4698  1.9752 -2.0407
   42MOL   C14619908   1.479   5.005   0.948 -0.1784  0.6250  0.4983
   42MOL   C14719909   1.404   5.126   0.957 -0.3592 -1.0885  0.1004
   42MOL   C14819910   1.467   5.236   1.022  0.4041  0.0297 -0.3992
   42MOL   C14919911   1.602   5.232   1.062 -0.2931 -0.6456  0.2943
   42MOL   C15019912   1.676   5.114   1.047  0.0084  0.0183  0.8523
   42MOL   C15119913   1.617   5.000   0.986 -0.6175 -0.3034 -0.0104
   42MOL   S15219914   1.371   5.387   1.058  0.1672 -0.2734  0.1387
   42MOL   O15319915   1.227   5.349   1.033  0.6063  0.7109 -0.2145
   42MOL   O15419916   1.418   5.499   0.982 -0.1724  0.8681 -0.2417
   42MOL   C15519917   1.384   5.418   1.236 -0.3817 -0.4140 -0.5216
   42MOL   C15619918   1.475   5.517   1.275 -0.1903  0.0217  0.0938
   42MOL   C15719919   1.466   5.568   1.408  0.9792  0.2903  0.2169
   42MOL   C15819920   1.366   5.516   1.495  0.3333 -0.3149  0.6045
   42MOL   C15919921   1.285   5.412   1.459  0.1314  0.2301  0.0969
   42MOL   C16019922   1.288   5.365   1.326 -0.4406  0.1173 -1.2621
   42MOL   O16119923   1.363   5.577   1.616 -0.8468  0.2512  0.2642
   42MOL   H16219924   1.445   4.919   0.894  3.2129  0.1666 -1.0555
   42MOL   H16319925   1.299   5.124   0.929 -0.4579  0.5511  0.2997
   42MOL   H16419926   1.651   5.317   1.107 -2.0739  0.6266 -0.1157
   42MOL   H16519927   1.782   5.111   1.062  0.1638 -0.6399 -0.3060
   42MOL   H16619928   1.551   5.555   1.208 -1.9683  1.0298 -1.3869
   42MOL   H16719929   1.532   5.637   1.459 -1.0586  0.8707  2.1537
   42MOL   H16819930   1.212   5.377   1.531 -0.8752 -0.6139 -1.3206
   42MOL   H16919931   1.220   5.285   1.302 -0.8339  0.6152 -1.8178
   42MOL   C17019932   1.168   5.719   1.654  0.4800  0.2736  0.0765
   42MOL   C17119933   1.049   5.741   1.728 -0.6689 -0.0297 -0.9311
   42MOL   C17219934   1.013   5.655   1.832 -0.3691 -0.9538  0.2547
   42MOL   C17319935   1.082   5.535   1.859 -0.7109  0.3521  0.0257
   42MOL   C17419936   1.190   5.514   1.775  0.4096 -0.3992 -0.5152
   42MOL   C17519937   1.241   5.598   1.675  0.2187  0.5115 -0.1813
   42MOL   S17619938   0.865   5.697   1.926  0.7055 -0.0989  0.3275
   42MOL   O17719939   0.832   5.834   1.889 -0.1146 -0.2692  0.3071
   42MOL   O17819940   0.890   5.660   2.063 -0.1010  0.5249 -0.5462
   42MOL   C17919941   0.746   5.585   1.858  0.3518 -0.0288 -0.7260
   42MOL   C18019942   0.732   5.453   1.910  0.0825 -1.4557  0.0798
   42MOL   C18119943   0.626   5.379   1.855  0.2400 -0.3413 -0.1196
   42MOL   C18219944   0.556   5.426   1.741  0.3208  0.1080 -0.6886
   42MOL   C18319945   0.576   5.555   1.683 -0.9156  0.0911  0.1384
   42MOL   C18419946   0.677   5.633   1.746  0.4055 -0.6598  0.0821
   42MOL   O18519947   0.464   5.343   1.688  0.2630  0.4987  0.2550
   42MOL   H18619948   1.197   5.794   1.582  0.4607  2.2683  2.1068
   42MOL   H18719949   0.996   5.831   1.700  0.8000  1.6942  1.6161
   42MOL   H18819950   1.038   5.464   1.927  0.7653  2.2761  3.1210
   42MOL   H18919951   1.243   5.420   1.786  1.3697  0.3862  1.8989
   42MOL   H19019952   0.797   5.421   1.990  1.4364 -2.4423 -1.3837
   42MOL   H19119953   0.613   5.275   1.883 -1.9926  0.0773  0.5283
   42MOL   H19219954   0.528   5.587   1.592 -0.9515 -1.4920 -0.4149
   42MOL   H19319955   0.698   5.734   1.716 -0.7152 -0.1058  1.1237
   42MOL   C19419956   0.340   5.162   1.802 -0.3362  0.4757 -0.5883
   42MOL   C19519957   0.232   5.115   1.878 -0.6028 -0.5400  0.0832
   42MOL   C19619958   0.140   5.212   1.920  0.3776 -0.3002  0.2655
   42MOL   C19719959   0.150   5.348   1.884 -0.5152  0.5289 -0.2387
   42MOL   C19819960   0.260   5.398   1.812  0.7834 -0.3555 -0.2253
   42MOL   C19919961   0.359   5.301   1.771  0.2986  0.4529 -0.0472
   42MOL   S20019962   8.404   5.142   1.976  0.0285  0.1971 -0.3837
   42MOL   O20119963   8.332   5.245   2.051 -0.5161  0.1468  0.2339
   42MOL   O20219964   0.013   5.022   2.052 -0.7111 -0.1207  0.3363
   42MOL   C20319965   8.300   5.118   1.839 -0.8327  0.3710 -0.8327
   42MOL   C20419966   8.207   5.016   1.846  0.0664 -0.0998  0.1194
   42MOL   C20519967   8.128   4.997   1.731 -0.6510  0.5459 -0.1323
   42MOL   C20619968   8.133   5.083   1.618 -0.1590 -0.0528 -0.5701
   42MOL   C20719969   8.225   5.187   1.619  0.1773  0.0497 -0.0940
   42MOL   C20819970   8.311   5.207   1.732  0.2635  0.0439 -0.1654
   42MOL   O20919971   8.047   5.073   1.516  0.7825 -0.5754  0.1137
   42MOL   H21019972   0.410   5.094   1.755 -1.9272 -1.3663 -0.3630
   42MOL   H21119973   0.211   5.010   1.890 -2.2937 -0.3292 -0.9129
   42MOL   H21219974   0.067   5.411   1.911 -0.0518  0.3193  1.7798
   42MOL   H21319975   0.265   5.501   1.779  1.2282 -0.3669 -0.1962
   42MOL   H21419976   8.206   4.951   1.932  0.7922  0.0205  0.2226
   42MOL   H21519977   8.055   4.918   1.737 -0.9991  0.8532 -0.2792
   42MOL   H21619978   8.231   5.249   1.531 -4.4525 -0.4522 -0.8760
   42MOL   H21719979   8.391   5.279   1.730 -0.7270  1.1278 -1.4213
   42MOL   C21819980   8.189   4.917   1.391  0.0939  0.3448 -0.0991
   42MOL   C21919981   8.199   4.793   1.320  0.6785  0.6385 -0.2313
   42MOL   C22019982   8.092   4.718   1.283  0.1613 -0.7941 -0.3876
   42MOL   C22119983   7.964   4.762   1.328 -0.6475 -0.3674 -0.0217
   42MOL   C22219984   7.950   4.872   1.420  0.5616 -0.1392  0.4474
   42MOL   C22319985   8.061   4.961   1.439 -0.1937  0.2804 -0.3182
   42MOL   S22419986   8.091   4.565   1.194  0.4703 -0.3610  0.1205
   42MOL   O22519987   7.955   4.539   1.149 -0.3249  0.7043  0.0726
   42MOL   O22619988   8.165   4.462   1.268  0.2717  0.1026 -0.5388
   42MOL   C22719989   8.191   4.605   1.060  0.6389  0.8004  0.3806
   42MOL   C22819990   8.335   4.595   1.069  0.2974  0.8978  0.1136
   42MOL   C22919991   8.414   4.627   0.959 -0.0788 -0.0869  0.3897
   42MOL   C23019992   8.350   4.676   0.844 -0.2191 -0.0459  0.4250
   42MOL   C23119993   8.206   4.695   0.837  0.1045  0.1624  0.0814
   42MOL   C23219994   8.126   4.655   0.945  0.5813  0.3364  0.0548
   42MOL   O23319995   8.424   4.707   0.736 -0.0858 -0.1697  0.6230
   42MOL   H23419996   8.275   4.978   1.417 -0.8001  1.5158  0.1759
   42MOL   H23519997   8.297   4.758   1.290 -0.0048 -1.6945  0.1284
   42MOL   H23619998   7.876   4.706   1.302 -1.7040  1.9582 -1.6287
   42MOL   H23719999   7.855   4.901   1.464 -0.3994 -1.6401 -0.6083
   42MOL   H23820000   8.395   4.552   1.148 -0.8591 -1.8901 -0.4687
   42MOL   H23920001   0.095   4.612   0.972 -0.4511 -2.9503  0.6406
   42MOL   H24020002   8.152   4.737   0.753 -0.6037 -0.1767  0.3561
   42MOL   H24120003   8.018   4.657   0.939  0.3390  0.3739  3.1919
   42MOL   C24220004   8.345   4.533   0.590 -0.2651  0.1699 -0.9354
   42MOL   C24320005   8.328   4.490   0.454  0.2864  0.0847 -0.2135
   42MOL   C24420006   8.348   4.581   0.350 -0.3667 -0.2402  0.1006
   42MOL   C24520007   8.396   4.709   0.371 -0.0194 -0.0737  0.3445
   42MOL   C24620008   0.001   4.748   0.505 -0.0777 -0.0144 -0.3088
   42MOL   C24720009   8.397   4.662   0.609  0.2903 -0.1032 -0.0942
   42MOL   S24820010   8.315   4.527   0.179  0.0314  0.3037  0.3212
   42MOL   O24920011   8.189   4.452   0.175 -0.0063 -0.4101  0.0617
   42MOL   O25020012   0.008   4.449   0.131  0.2110 -0.6029 -0.3957
   42MOL   C25120013   8.296   4.680   0.081 -0.1290 -0.1058  0.1419
   42MOL   C25220014   8.395   4.704   8.405  0.4723 -0.2228  0.0916
   42MOL   C25320015   8.385   4.813   8.317  0.5225  0.0054  0.0566
   42MOL   C25420016   8.283   4.911   8.337 -0.1949 -0.0171  0.1504
   42MOL   C25520017   8.194   4.891   0.023 -0.4166 -0.5629  0.5651
   42MOL   C25620018   8.200   4.774   0.102  0.2392  0.1137  0.0264
   42MOL   O25720019   8.280   5.033   8.268  0.9576  0.2648  0.0761
   42MOL   H25820020   8.325   4.471   0.676 -0.8501  0.8774 -0.5582
   42MOL   H25920021   8.286   4.391   0.441  0.1689 -0.2696  2.4556
   42MOL   H26020022   8.408   4.776   0.287 -1.8621 -3.3069 -2.6113
   42MOL   H26120023   0.048   4.843   0.522 -1.2456  0.5849 -0.3310
   42MOL   H26220024   0.053   4.636   8.398 -0.3168 -1.1196 -0.6228
   42MOL   H26320025   0.033   4.833   8.241  1.0052 -2.2112 -0.0940
   42MOL   H26420026   8.124   4.970   0.044  0.3504  0.1227  0.5897
   42MOL   H26520027   8.129   4.767   0.183 -0.4234 -1.9176 -0.7056
   42MOL   C26620028   8.414   5.172   8.399 -0.0448 -0.0646 -0.0063
   42MOL   C26720029   8.418   5.269   0.074 -0.4734 -0.1119 -0.1966
   42MOL   C26820030   8.302   5.345   0.097 -0.7292 -0.1940 -0.1757
   42MOL   C26920031   8.185   5.331   0.025 -0.3049  0.6151 -1.0872
   42MOL   C27020032   8.178   5.221   8.364  0.0698 -0.2666 -0.1185
   42MOL   C27120033   8.291   5.145   8.337  0.0483 -0.2659 -0.7393
   42MOL   S27220034   8.299   5.449   0.246  0.4102 -0.1553  0.0400
   42MOL   O27320035   8.170   5.522   0.243  0.6801  0.4082 -0.0416
   42MOL   O27420036   0.006   5.519   0.247  0.0762 -0.4925  0.1032
   42MOL   C27520037   8.302   5.345   0.399  0.0259 -0.6224  0.4468
   42MOL   C27620038   8.296   5.412   0.518  0.6587  0.2248  0.3001
   42MOL   C27720039   8.303   5.352   0.642  0.6833  0.1285 -0.3857
   42MOL   C27820040   8.329   5.214   0.642  0.2850  0.9822  0.3853
   42MOL   C27920041   8.326   5.140   0.519 -0.0533 -0.1773  0.1225
   42MOL   C28020042   8.323   5.207   0.399 -0.1622 -0.0083  0.4266
   42MOL   O28120043   8.365   5.151   0.760 -0.0438 -0.0131  0.2390
   42MOL   H28220044   0.064   5.099   8.375  0.7050  1.0211 -1.0578
   42MOL   H28320045   0.085   5.287   0.127  0.6717  0.7463 -2.4048
   42MOL   H28420046   8.090   5.380   0.040  0.1756  1.2673 -0.1623
   42MOL   H28520047   8.090   5.201   8.305 -0.4731 -0.2724  0.6874
   42MOL   H28620048   8.279   5.519   0.515 -1.8381 -0.1493 -0.1166
   42MOL   H28720049   8.305   5.412   0.732  0.6621  0.2031 -0.4340
   42MOL   H28820050   8.334   5.032   0.518  1.1978 -0.1173  1.3642
   42MOL   H28920051   8.333   5.145   0.312 -0.4480 -0.4512  0.7062
   42MOL   C29020052   0.160   5.244   0.800 -0.0093  0.5628 -0.3660
   42MOL   C29120053   0.298   5.228   0.795 -0.6640  0.6763 -0.0540
   42MOL   C29220054   0.350   5.102   0.768  0.6605 -0.2066 -0.7069
   42MOL   C29320055   0.271   4.988   0.745  0.0185  0.1521  0.3474
   42MOL   C29420056   0.132   5.007   0.744  0.6738 -0.8088  0.1173
   42MOL   C29520057   0.077   5.134   0.772  0.3411 -0.2009 -0.8004
   42MOL   S29620058   0.533   5.096   0.764 -0.4050  0.1582 -0.3616
   42MOL   O29720059   0.592   5.204   0.848 -0.2010  0.2604 -0.4664
   42MOL   O29820060   0.561   5.081   0.620  0.0077 -0.2146  0.3694
   42MOL   C29920061   0.570   4.940   0.853  0.0561  0.0811  0.1448
   42MOL   C30020062   0.594   4.829   0.770  0.3677  0.3170 -0.8133
   42MOL   C30120063   0.636   4.706   0.826 -0.1264 -0.8975  0.5587
   42MOL   C30220064   0.647   4.693   0.968 -0.5194  0.3917  0.2439
   42MOL   C30320065   0.621   4.803   1.054 -0.1682  1.0245  0.6091
   42MOL   C30420066   0.585   4.930   0.996 -0.1451  0.1603 -0.2035
   42MOL   O30520067   0.674   4.571   1.020  0.3702 -0.8453 -0.0824
   42MOL   H30620068   0.108   5.339   0.800  0.4130  0.8048 -1.2240
   42MOL   H30720069   0.357   5.318   0.806  0.3936 -0.0607  0.4509
   42MOL   H30820070   0.316   4.890   0.740  0.0869  0.1870  0.2821
   42MOL   H30920071   0.067   4.921   0.737 -0.8448  0.4081 -1.3041
   42MOL   H31020072   0.587   4.829   0.662  0.2626  2.5771 -0.8317
   42MOL   H31120073   0.665   4.628   0.757  1.7940  0.5607 -0.3791
   42MOL   H31220074   0.635   4.798   1.161 -0.0736  1.6777  0.6278
   42MOL   H31320075   0.557   5.019   1.051 -1.4328  0.0585 -0.6775
   42MOL   C31420076   0.878   4.574   1.138 -0.4996 -0.2923  0.0997
   42MOL   C31520077   0.945   4.553   1.257  0.1393  0.6996  0.2866
   42MOL   C31620078   0.878   4.495   1.369 -0.9865 -0.2014 -0.2952
   42MOL   C31720079   0.743   4.478   1.366  0.4156  0.6423 -0.5991
   42MOL   C31820080   0.671   4.512   1.252 -0.1311  0.2841  0.3980
   42MOL   C31920081   0.738   4.556   1.139 -0.5056 -0.4062 -0.5540
   42MOL   S32020082   0.980   4.432   1.504 -0.2212 -0.5272 -0.1880
   42MOL   O32120083   1.084   4.341   1.446  0.4794 -0.3373 -0.3154
   42MOL   O32220084   0.882   4.381   1.602 -0.1344 -0.0479 -0.1249
   42MOL   C32320085   1.064   4.578   1.572 -0.3523  0.1862  0.0210
   42MOL   C32420086   1.166   4.637   1.498  0.0694 -0.4567  0.0653
   42MOL   C32520087   1.245   4.736   1.568 -0.0799  0.4009 -0.7355
   42MOL   C32620088   1.221   4.757   1.707  0.4008  0.8346  0.0105
   42MOL   C32720089   1.112   4.695   1.776 -0.5318  0.1407  0.8745
   42MOL   C32820090   1.031   4.609   1.705  0.6859 -0.5940 -0.7018
   42MOL   O32920091   1.318   4.811   1.783  0.0135 -0.0076 -0.1164
   42MOL   H33020092   0.931   4.604   1.050  0.2273  1.4951  1.1174
   42MOL   H33120093   1.051   4.573   1.253 -0.1858  2.2516 -1.1704
   42MOL   H33220094   0.699   4.423   1.447  1.9276 -0.7676 -0.7121
   42MOL   H33320095   0.565   4.492   1.256 -0.3276  1.2462  0.1749
   42MOL   H33420096   1.190   4.612   1.396  2.2836  2.3740 -0.1670
   42MOL   H33520097   1.324   4.785   1.513 -0.9345  2.4732 -0.1655
   42MOL   H33620098   1.098   4.706   1.883 -0.3352 -0.2765  0.9441
   42MOL   H33720099   0.946   4.568   1.756  2.0654 -1.8055  0.6621
   42MOL   C33820100   1.525   4.804   1.902  0.1953 -0.7130  0.0316
   42MOL   C33920101   1.640   4.736   1.954 -0.3358 -0.6079  0.6862
   42MOL   C34020102   1.648   4.596   1.943  0.9581 -0.1730  0.9148
   42MOL   C34120103   1.549   4.524   1.867 -0.2343 -0.1964  0.1498
   42MOL   C34220104   1.435   4.595   1.822 -0.4203  0.6931  0.1144
   42MOL   C34320105   1.423   4.736   1.835  0.4522 -0.0073 -0.4640
   42MOL   S34420106   1.786   4.508   2.012 -0.2236  0.1499 -0.0930
   42MOL   O34520107   1.727   4.388   2.075  0.8103 -0.0613 -0.5539
   42MOL   O34620108   1.866   4.597   2.098  0.7800  0.6074 -0.5681
   42MOL   C34720109   1.886   4.461   1.870 -0.5970  0.4010  0.0964
   42MOL   C34820110   1.979   4.355   1.877 -0.0639  0.6270  0.9026
   42MOL   C34920111   2.058   4.320   1.761 -0.3426  0.3141 -0.0033
   42MOL   C35020112   2.028   4.379   1.635 -0.5220  0.0260  0.5298
   42MOL   C35120113   1.935   4.488   1.633  0.4253 -0.3667  0.5055
   42MOL   C35220114   1.871   4.530   1.751 -0.3915 -0.1025 -0.4383
   42MOL   O35320115   2.100   4.338   1.527 -0.0901 -0.1342 -0.4238
   42MOL   H35420116   1.519   4.905   1.939  0.0525 -0.3136 -1.0811
   42MOL   H35520117   1.715   4.794   2.007 -0.7137 -1.2175  1.8859
   42MOL   H35620118   1.568   4.424   1.830 -2.6283 -0.5180 -0.2710
   42MOL   H35720119   1.357   4.540   1.773 -1.8799  3.7012 -1.0465
   42MOL   H35820120   1.983   4.302   1.971  1.2646  0.2118  0.6138
   42MOL   H35920121   2.127   4.237   1.759 -0.2085  0.4533 -1.6052
   42MOL   H36020122   1.917   4.537   1.538  0.9625 -0.5320  0.3170
   42MOL   H36120123   1.802   4.612   1.746  0.9919  1.0583 -0.9267
   42MOL   C36220124   2.243   4.533   1.514 -0.5332 -0.1349  0.4090
   42MOL   C36320125   2.294   4.638   1.431 -0.3199 -0.3110 -0.5929
   42MOL   C36420126   2.235   4.663   1.305  0.1993 -0.7025 -0.3701
   42MOL   C36520127   2.144   4.577   1.247 -0.8589 -0.1272  0.1850
   42MOL   C36620128   2.108   4.457   1.320  0.1013  0.5703 -0.6404
   42MOL   C36720129   2.150   4.444   1.454  0.1227  0.6754 -0.4849
   42MOL   S36820130   2.274   4.816   1.229  0.2292  0.0181 -0.1645
   42MOL   O36920131   2.271   4.924   1.329  0.0598  0.3541 -0.3140
   42MOL   O37020132   2.186   4.828   1.112 -0.4322 -0.7038 -0.6500
   42MOL   C37120133   2.439   4.792   1.169 -0.3314  0.1805  0.5840
   42MOL   C37220134   2.455   4.742   1.041  0.2750 -0.5628  0.2391
   42MOL   C37320135   2.582   4.713   0.990  0.4450 -0.3933 -0.3878
   42MOL   C37420136   2.692   4.720   1.078 -0.1103 -0.3565 -1.0467
   42MOL   C37520137   2.672   4.777   1.205 -0.5627 -0.4606 -0.4838
   42MOL   C37620138   2.540   4.814   1.260  0.2195  0.8303 -0.1664
   42MOL   O37720139   2.820   4.692   1.033 -0.4745  0.2243 -0.0003
   42MOL   H37820140   2.281   4.508   1.612  0.3001 -2.2179 -0.4208
   42MOL   H37920141   2.365   4.710   1.471 -1.2492 -0.0613  0.6448
   42MOL   H38020142   2.105   4.611   1.152 -2.3262  0.7550  1.0760
   42MOL   H38120143   2.039   4.391   1.269  1.0807  0.2192 -1.5375
   42MOL   H38220144   2.372   4.720   0.976 -1.1286 -0.0874  1.8406
   42MOL   H38320145   2.586   4.677   0.888  1.7993 -0.7617 -0.2075
   42MOL   H38420146   2.753   4.772   1.277 -1.2375 -2.0405  0.1794
   42MOL   H38520147   2.530   4.845   1.363 -0.1184  0.6005 -0.1316
   42MOL   C38620148   2.880   4.468   1.115  0.7017  0.2685  0.2579
   42MOL   C38720149   2.917   4.337   1.087 -0.4547 -0.3061  0.3870
   42MOL   C38820150   2.905   4.289   0.955 -0.6643 -0.0289 -0.6991
   42MOL   C38920151   2.866   4.369   0.849  0.1814 -0.3531  0.1305
   42MOL   C39020152   2.837   4.505   0.882  0.2622 -0.5154 -0.2408
   42MOL   C39120153   2.845   4.555   1.012 -0.3486 -0.1985  0.1867
   42MOL   S39220154   2.935   4.116   0.927 -0.3855  0.3876 -0.4885
   42MOL   O39320155   3.075   4.096   0.969 -0.2382 -0.0816 -0.3232
   42MOL   O39420156   2.895   4.086   0.791  0.9685  0.0447  0.3695
   42MOL   C39520157   2.826   4.021   1.033  0.4508 -0.4210  0.3347
   42MOL   C39620158   2.690   4.051   1.035  0.6531  0.7644  0.1369
   42MOL   C39720159   2.600   3.971   1.102  0.2474 -0.0835  0.7449
   42MOL   C39820160   2.636   3.846   1.158 -0.0231  0.3161  0.4773
   42MOL   C39920161   2.775   3.811   1.144  0.0864 -0.4605 -0.7653
   42MOL   C40020162   2.871   3.902   1.089  0.0480 -0.0648 -0.4936
   42MOL   O40120163   2.541   3.765   1.209  0.5410  0.5408 -0.6315
   42MOL   H40220164   2.874   4.513   1.213 -2.1173  0.7556 -0.1089
   42MOL   H40320165   2.956   4.273   1.164 -0.8713 -0.6744  0.2950
   42MOL   H40420166   2.871   4.330   0.748  1.1220 -0.0350  0.0514
   42MOL   H40520167   2.820   4.571   0.798  2.6772  0.9651  0.3752
   42MOL   H40620168   2.647   4.135   0.983 -1.4735  0.0714  0.7485
   42MOL   H40720169   2.496   3.997   1.089  0.1252 -1.2664 -0.8013
   42MOL   H40820170   2.787   3.715   1.193 -3.3250 -0.8959 -0.6833
   42MOL   H40920171   2.972   3.867   1.084 -0.6361 -2.1914  0.2863
   42MOL   C41020172   2.646   3.743   1.433 -0.4236  0.2541  0.0291
   42MOL   C41120173   2.687   3.665   1.541 -0.1827 -0.6541  0.1978
   42MOL   C41220174   2.668   3.528   1.532 -0.4307  0.1677 -0.0900
   42MOL   C41320175   2.609   3.467   1.422 -0.3730  0.2991 -0.2101
   42MOL   C41420176   2.575   3.547   1.310  0.1136  0.1894 -0.0286
   42MOL   C41520177   2.579   3.686   1.318 -0.8263 -0.3789 -0.1541
   42MOL   S41620178   2.730   3.423   1.671  0.2121 -0.3014  0.1972
   42MOL   O41720179   2.790   3.523   1.762 -0.5318  0.7145 -0.1235
   42MOL   O41820180   2.816   3.325   1.614 -0.0830  0.1579 -0.6604
   42MOL   C41920181   2.591   3.354   1.764 -0.0711  0.1995 -0.0630
   42MOL   C42020182   2.587   3.212   1.766 -0.9846 -0.5261 -0.2497
   42MOL   C42120183   2.483   3.159   1.847 -1.3106  0.7654 -0.3062
   42MOL   C42220184   2.388   3.230   1.916 -0.0991 -0.8016  0.1888
   42MOL   C42320185   2.391   3.369   1.909  0.4486 -0.3246  0.2930
   42MOL   C42420186   2.495   3.430   1.832  0.3177  0.3372 -0.9880
   42MOL   O42520187   2.291   3.159   1.991  0.4433  0.9150  0.1962
   42MOL   H42620188   2.663   3.849   1.440  1.3179  0.1156 -1.5083
   42MOL   H42720189   2.738   3.714   1.623  0.0023 -0.4730 -0.0268
   42MOL   H42820190   2.601   3.359   1.416 -1.4984  0.3522  0.2058
   42MOL   H42920191   2.532   3.496   1.225  0.4331 -0.5814  0.2684
   42MOL   H43020192   2.670   3.152   1.732 -1.5010 -2.6115  2.0392
   42MOL   H43120193   2.478   3.052   1.861  0.2696  0.9442  1.9893
   42MOL   H43220194   2.315   3.418   1.967  1.2595 -0.1127  1.1826
   42MOL   H43320195   2.504   3.537   1.840  0.0409  0.4113 -1.6461
   42MOL   C43420196   2.140   3.231   2.163 -0.9167 -0.2200  0.9878
   42MOL   C43520197   2.021   3.291   2.201 -0.1422  0.4862  0.2819
   42MOL   C43620198   1.925   3.317   2.102  0.6296 -0.0887 -0.3387
   42MOL   C43720199   1.950   3.283   1.968 -0.0013 -0.2437 -0.2990
   42MOL   C43820200   2.074   3.228   1.927  0.9014  0.1688  0.0231
   42MOL   C43920201   2.173   3.214   2.024  0.8422 -0.6344 -0.3699
   42MOL   S44020202   1.774   3.410   2.139  0.2145 -0.0461 -0.4778
   42MOL   O44120203   1.758   3.498   2.022  0.3300 -0.5856 -0.2496
   42MOL   O44220204   1.784   3.471   2.272  0.3104 -0.4127  0.0351
   42MOL   C44320205   1.629   3.302   2.134 -0.4154 -0.2992 -0.1535
   42MOL   C44420206   1.505   3.366   2.147 -0.4409 -0.4121  0.0187
   42MOL   C44520207   1.390   3.282   2.143  0.5529 -0.0235  0.0776
   42MOL   C44620208   1.399   3.144   2.133 -0.2945 -0.1677 -0.3306
   42MOL   C44720209   1.523   3.085   2.104  0.4695  0.0542  0.2776
   42MOL   C44820210   1.640   3.163   2.114  0.8299  0.0677  0.1829
   42MOL   O44920211   1.281   3.075   2.151 -0.0255 -0.4869 -0.0396
   42MOL   H45020212   2.211   3.220   2.243 -0.4105  1.0257  0.7199
   42MOL   H45120213   2.000   3.319   2.304 -0.2750  0.6552  0.2093
   42MOL   H45220214   1.881   3.301   1.886  0.1447  1.3199 -0.0849
   42MOL   H45320215   2.098   3.213   1.823 -0.6588 -0.5630 -0.2316
   42MOL   H45420216   1.502   3.474   2.159 -2.1789 -0.6294  1.7112
   42MOL   H45520217   1.291   3.323   2.155 -0.7335 -2.5094 -1.5440
   42MOL   H45620218   1.533   2.980   2.082  1.0861  0.4334 -1.2618
   42MOL   H45720219   1.742   3.130   2.104  0.7366 -0.5952  1.2967
   42MOL   C45820220   1.327   2.832   2.154  0.4050 -0.6653 -0.2361
   42MOL   C45920221   1.299   2.710   2.087 -0.4617 -0.0129 -0.2627
   42MOL   C46020222   1.230   2.701   1.964 -0.4338 -0.0278 -0.1550
   42MOL   C46120223   1.165   2.819   1.919 -0.7569  0.6098  0.5495
   42MOL   C46220224   1.178   2.939   1.990  0.5161 -0.0503  0.2668
   42MOL   C46320225   1.269   2.948   2.094 -0.4660 -0.6272 -0.2671
   42MOL   S46420226   1.218   2.543   1.875 -0.0765 -0.4579 -0.2900
   42MOL   O46520227   1.277   2.437   1.959 -0.1573  0.3421  0.2139
   42MOL   O46620228   1.271   2.565   1.738  0.0694 -0.0391 -0.1281
   42MOL   C46720229   1.046   2.504   1.856  0.4497  0.2620 -0.4097
   42MOL   C46820230   0.977   2.436   1.964 -0.1782 -0.3268 -0.1567
   42MOL   C46920231   0.840   2.412   1.952  0.9150  0.2406  0.0370
   42MOL   C47020232   0.775   2.435   1.836 -0.2130  0.2374  0.2169
   42MOL   C47120233   0.842   2.497   1.724  0.1590 -0.7692 -0.0889
   42MOL   C47220234   0.981   2.525   1.731  0.3009  0.1595  0.4140
   42MOL   O47320235   0.636   2.409   1.825  0.0944 -0.1383  0.1623
   42MOL   H47420236   1.395   2.831   2.238 -1.2844  0.7676  1.1767
   42MOL   H47520237   1.337   2.618   2.129 -1.7476 -1.1380 -1.4858
   42MOL   H47620238   1.109   2.830   1.827  0.0624  0.4727  0.0335
   42MOL   H47720239   1.132   3.028   1.949  0.5359  1.4540  3.3536
   42MOL   H47820240   1.027   2.411   2.056 -3.1225 -1.2842  1.2579
   42MOL   H47920241   0.788   2.356   2.028 -1.2662  2.0405 -0.0823
   42MOL   H48020242   0.784   2.531   1.640  0.2615 -0.0646  0.1242
   42MOL   H48120243   1.033   2.581   1.654 -2.2108 -2.0437 -3.0119
   42MOL   H48220244   0.608   2.398   1.736 -1.8077  1.0298  0.6021
   43MOL     C120245   3.331   0.390   0.605  0.6648  0.2684 -0.1141
   43MOL     C220246   3.367   0.253   0.590 -0.0830  0.0963 -0.4416
   43MOL     C320247   3.472   0.213   0.499  0.3435  0.0029  0.0772
   43MOL     C420248   3.534   0.309   0.414 -0.6581 -0.0131  0.2088
   43MOL     C520249   3.486   0.445   0.414 -0.2370 -0.3956  0.5027
   43MOL     C620250   3.393   0.482   0.515  0.1974  0.0468  0.0496
   43MOL     S720251   3.510   0.040   0.472  0.1137  0.1287 -0.0362
   43MOL     O820252   3.529   0.019   0.328  0.3932 -0.3332 -0.0693
   43MOL     O920253   3.415   8.387   0.546  0.1977 -0.0656  0.2745
   43MOL    C1020254   3.661   0.017   0.554  0.4477 -0.1367  0.2269
   43MOL    C1120255   3.663   8.350   0.661  0.3728  0.2490  0.2138
   43MOL    C1220256   3.793   8.317   0.716  0.5894  0.1654 -0.0911
   43MOL    C1320257   3.913   8.361   0.655  0.4923  0.3020 -1.1549
   43MOL    C1420258   3.905   0.017   0.544 -0.5544 -0.2949 -0.0267
   43MOL    C1520259   3.785   0.060   0.490  0.0999  0.3729  0.1052
   43MOL    O1620260   4.036   8.319   0.721  0.1053  0.6209 -0.2792
   43MOL    H1720261   3.250   0.409   0.674  0.1371 -2.1342 -0.0153
   43MOL    H1820262   3.325   0.175   0.652 -3.7085  1.1867 -1.4136
   43MOL    H1920263   3.612   0.282   0.345 -1.4772 -0.0856 -0.7065
   43MOL    H2020264   3.524   0.515   0.341  1.0498 -0.1037  1.4400
   43MOL    H2120265   3.567   8.332   0.705 -0.9325 -0.1089 -2.6897
   43MOL    H2220266   3.802   8.250   0.800 -0.1381  0.2057  0.0207
   43MOL    H2320267   3.989   0.058   0.489  0.1892 -1.6269  0.0857
   43MOL    H2420268   3.773   0.127   0.406 -1.6811 -1.4377 -1.1058
   43MOL    H2520269   3.354   0.582   0.523  1.6487  0.4621  2.0832
   43MOL    C2620270   4.214   8.217   0.594 -0.0928 -0.3766  0.7850
   43MOL    C2720271   4.341   8.218   0.530 -0.2904 -0.4567 -0.5009
   43MOL    C2820272   4.403   8.351   0.523 -0.1109  0.5678 -0.3902
   43MOL    C2920273   4.339   0.041   0.573  0.2772 -0.7813  0.5498
   43MOL    C3020274   4.215   0.028   0.629  0.1770 -0.0882 -0.2246
   43MOL    C3120275   4.155   8.331   0.647 -0.1728 -0.0996  0.1583
   43MOL    S3220276   4.573   8.365   0.462 -0.0715  0.0317 -0.5932
   43MOL    O3320277   4.633   0.063   0.516  0.0627 -0.5236 -0.2868
   43MOL    O3420278   4.558   8.351   0.321  0.3839 -0.2481  0.2957
   43MOL    C3520279   4.675   8.222   0.527 -0.0497 -0.0728 -0.1735
   43MOL    C3620280   4.724   8.118   0.444  0.4688  0.0714 -0.0893
   43MOL    C3720281   4.781   8.000   0.495  0.6172  0.2059 -0.2927
   43MOL    C3820282   4.778   7.988   0.630 -0.0422 -0.0705  0.0129
   43MOL    C3920283   4.739   8.091   0.722 -0.4132 -0.1374 -0.0660
   43MOL    C4020284   4.685   8.204   0.664  0.2555  0.1917  0.3735
   43MOL    O4120285   4.829   7.874   0.687  0.5518  0.3882  0.1027
   43MOL    H4220286   4.154   8.127   0.596  1.9079 -1.7260  1.0440
   43MOL    H4320287   4.391   8.125   0.507  3.3004  0.9714  1.1063
   43MOL    H4420288   4.381   0.140   0.562 -1.7748 -0.0618 -1.2528
   43MOL    H4520289   4.163   0.117   0.661  1.9501  1.2938 -1.0927
   43MOL    H4620290   4.712   8.137   0.339 -0.8539 -1.5039 -0.2491
   43MOL    H4720291   4.811   7.918   0.431 -0.6383  0.6347 -1.4538
   43MOL    H4820292   4.752   8.070   0.827 -0.5199 -0.7659 -0.1771
   43MOL    H4920293   4.650   8.285   0.727 -1.8859  0.3102 -0.9399
   43MOL    C5020294   4.843   7.643   0.626 -0.1778 -0.0570  0.2873
   43MOL    C5120295   4.788   7.516   0.595 -0.0696  0.1852 -0.5120
   43MOL    C5220296   4.649   7.494   0.585  0.6394 -0.3194 -0.2214
   43MOL    C5320297   4.562   7.600   0.610 -0.0277 -0.4387  0.1391
   43MOL    C5420298   4.618   7.722   0.655  0.5022 -0.1632 -0.3420
   43MOL    C5520299   4.760   7.749   0.658  0.5808  0.5993  0.1065
   43MOL    S5620300   4.583   7.334   0.519 -0.4242 -0.4651  0.3757
   43MOL    O5720301   4.691   7.238   0.500 -0.0894  0.8453  0.5466
   43MOL    O5820302   4.496   7.358   0.401 -0.3468  0.1489 -0.2555
   43MOL    C5920303   4.474   7.283   0.649 -0.6497 -0.0251  0.2200
   43MOL    C6020304   4.335   7.330   0.649  0.5324  0.5979  0.1257
   43MOL    C6120305   4.247   7.282   0.751  0.5391 -0.5004  0.4419
   43MOL    C6220306   4.291   7.198   0.855  0.0050  0.0829  0.3729
   43MOL    C6320307   4.428   7.155   0.853 -0.4646 -0.0428 -0.3598
   43MOL    C6420308   4.514   7.192   0.747 -0.1458 -0.2804  0.5297
   43MOL    O6520309   4.211   7.155   0.959  0.1466 -0.2858 -0.0103
   43MOL    H6620310   4.947   7.665   0.609 -0.1520  0.3055  0.9349
   43MOL    H6720311   4.852   7.432   0.571  0.5517 -0.3737  2.9029
   43MOL    H6820312   4.456   7.585   0.594 -0.2032  1.1898 -0.2191
   43MOL    H6920313   4.562   7.811   0.682  3.1576  2.3095 -2.6366
   43MOL    H7020314   4.304   7.399   0.571  0.0351  1.0077  0.6775
   43MOL    H7120315   4.143   7.309   0.757  0.8635  0.5331  1.5173
   43MOL    H7220316   4.463   7.080   0.922 -0.1421 -0.1925 -0.6902
   43MOL    H7320317   4.616   7.155   0.741 -0.6554 -1.6795  0.2486
   43MOL    C7420318   4.274   7.120   1.190  0.2917 -0.6694 -0.3051
   43MOL    C7520319   4.286   7.177   1.318  0.1928  1.0805  0.8817
   43MOL    C7620320   4.275   7.314   1.337  0.3851 -0.1853  0.1754
   43MOL    C7720321   4.257   7.404   1.225  0.1302 -0.2884 -0.1481
   43MOL    C7820322   4.232   7.345   1.098 -0.4678  0.7961 -0.1383
   43MOL    C7920323   4.233   7.203   1.085 -0.0920 -0.4869  0.4027
   43MOL    S8020324   4.272   7.372   1.502  0.2508 -0.2531 -0.0825
   43MOL    O8120325   4.277   7.519   1.496 -0.2260 -0.1291 -0.6773
   43MOL    O8220326   4.364   7.294   1.596 -0.3664 -0.3678  0.4972
   43MOL    C8320327   4.107   7.338   1.558 -0.5344 -0.4172 -0.2707
   43MOL    C8420328   4.032   7.439   1.620 -1.0101  0.0855  0.0727
   43MOL    C8520329   3.895   7.420   1.632 -0.2015 -0.0097 -0.2687
   43MOL    C8620330   3.827   7.300   1.587 -0.1892  0.3296 -0.3889
   43MOL    C8720331   3.916   7.202   1.543 -0.3437 -0.1235 -0.0582
   43MOL    C8820332   4.053   7.215   1.523  0.5196 -0.0154 -0.2848
   43MOL    O8920333   3.692   7.275   1.585  0.5857 -0.3730  0.1467
   43MOL    H9020334   4.284   7.014   1.172 -1.2553 -1.2245  1.9072
   43MOL    H9120335   4.323   7.121   1.403  0.7265  0.2402  0.1030
   43MOL    H9220336   4.252   7.510   1.245 -3.4944  0.1052 -2.6854
   43MOL    H9320337   4.220   7.407   1.010  1.1498  0.8838 -0.3172
   43MOL    H9420338   4.087   7.527   1.649 -2.2758  1.2677 -1.0233
   43MOL    H9520339   3.839   7.502   1.674  1.2909  0.0585  1.6433
   43MOL    H9620340   3.877   7.103   1.525  1.0737 -0.9601  1.3576
   43MOL    H9720341   4.100   7.131   1.475 -0.1760 -0.4861 -0.1431
   43MOL    C9820342   3.599   7.342   1.792 -0.3979  0.1881  0.9511
   43MOL    C9920343   3.560   7.313   1.926 -0.2365 -0.2382 -0.1257
   43MOL   C10020344   3.557   7.175   1.973 -0.3085 -0.1186  0.4138
   43MOL   C10120345   3.583   7.073   1.882  0.7422  0.2632 -0.0226
   43MOL   C10220346   3.620   7.103   1.750  0.1374 -0.4380 -0.3287
   43MOL   C10320347   3.642   7.238   1.709  0.2730  0.5212  0.9559
   43MOL   S10420348   3.529   7.121   2.143 -0.3811  0.1945 -0.0262
   43MOL   O10520349   3.559   6.975   2.147 -0.5769 -0.4948  0.4195
   43MOL   O10620350   3.399   7.178   2.186 -0.1719  0.1712  0.0934
   43MOL   C10720351   3.645   7.197   2.251 -0.0582 -0.2000 -0.0185
   43MOL   C10820352   3.648   7.170   2.394  0.3824  1.2767 -0.2734
   43MOL   C10920353   3.759   7.206   2.481  0.0645  0.0647 -0.1935
   43MOL   C11020354   3.860   7.282   2.423 -0.0625 -1.3213  0.1013
   43MOL   C11120355   3.854   7.321   2.286  0.8416 -0.0014 -0.1831
   43MOL   C11220356   3.752   7.276   2.198 -0.1620 -0.0076 -0.5148
   43MOL   O11320357   3.969   7.319   2.501  0.0739 -0.1127  0.2853
   43MOL   H11420358   3.583   7.441   1.752 -0.9996 -0.2856 -0.0030
   43MOL   H11520359   3.531   7.399   1.986 -1.1430 -0.9740  0.5101
   43MOL   H11620360   3.575   6.969   1.908 -2.0804  0.4007 -0.2284
   43MOL   H11720361   3.646   7.024   1.682  0.0275  0.3046 -1.2507
   43MOL   H11820362   3.568   7.111   2.435  2.0530  0.6252  2.2074
   43MOL   H11920363   3.764   7.185   2.586  3.0930  1.5288  0.0071
   43MOL   H12020364   3.929   7.383   2.238 -0.4250  0.3480 -1.7454
   43MOL   H12120365   3.762   7.297   2.092  0.7626  3.3623  0.1806
   43MOL   C12220366   3.994   7.561   2.531 -0.3325 -0.5993 -0.2294
   43MOL   C12320367   4.062   7.679   2.505 -0.1435 -0.0545 -0.1272
   43MOL   C12420368   4.171   7.678   2.418 -0.5188 -0.2747 -0.1462
   43MOL   C12520369   4.211   7.553   2.364 -0.6037 -0.0423 -0.4440
   43MOL   C12620370   4.153   7.435   2.397  0.1505 -0.1494 -0.4958
   43MOL   C12720371   4.040   7.437   2.479 -0.5509  0.9520  0.8637
   43MOL   S12820372   4.263   7.830   2.375 -0.1267  0.3673  0.1732
   43MOL   O12920373   4.378   7.797   2.290 -0.6937 -0.9554 -0.6122
   43MOL   O13020374   4.287   7.902   2.500  0.6990 -0.4365 -0.8415
   43MOL   C13120375   4.153   7.936   2.281  0.1899  0.3313  0.3070
   43MOL   C13220376   4.217   8.030   2.206  0.3793 -0.0551  0.0776
   43MOL   C13320377   4.141   8.125   2.127 -0.6663  0.4480 -0.4054
   43MOL   C13420378   4.001   8.132   2.128 -0.4428  0.2700  0.2186
   43MOL   C13520379   3.937   8.032   2.211  0.0315 -0.3836 -0.6743
   43MOL   C13620380   4.011   7.932   2.280 -0.1106  0.4897  0.4680
   43MOL   O13720381   3.939   8.227   2.056  0.1811 -0.1482  0.2268
   43MOL   H13820382   3.912   7.575   2.600 -1.4380 -1.8202 -1.2917
   43MOL   H13920383   4.042   7.774   2.552 -2.2358 -1.1293  1.2037
   43MOL   H14020384   4.285   7.546   2.286  1.5911 -0.9462  1.6682
   43MOL   H14120385   4.176   7.344   2.342 -0.0625 -0.2616 -0.4007
   43MOL   H14220386   4.325   8.026   2.204  0.4149 -0.6708  2.2398
   43MOL   H14320387   4.194   8.205   2.077  0.0043 -0.5546 -1.3101
   43MOL   H14420388   3.830   8.046   2.216  0.4397  2.2955  2.1316
   43MOL   H14520389   3.963   7.851   2.333  0.8053 -0.6331 -0.3818
   43MOL   C14620390   3.692   8.212   2.060 -0.1588 -0.1469 -0.2883
   43MOL   C14720391   3.574   8.168   1.996 -0.5815 -0.2584  0.0373
   43MOL   C14820392   3.576   8.133   1.861 -0.4656  0.3219  0.4932
   43MOL   C14920393   3.698   8.142   1.786  0.0556  0.2746  0.4561
   43MOL   C15020394   3.815   8.170   1.854 -0.3055  0.3234 -0.1119
   43MOL   C15120395   3.820   8.199   1.989  0.9419 -0.0836 -0.7014
   43MOL   S15220396   3.416   8.088   1.784 -0.3857 -0.0712 -0.2392
   43MOL   O15320397   3.427   8.089   1.640  0.4021  0.1610  0.1314
   43MOL   O15420398   3.318   8.177   1.845  0.8136  0.3728 -0.1834
   43MOL   C15520399   3.379   7.922   1.833  0.4768 -0.5396 -0.1129
   43MOL   C15620400   3.249   7.884   1.880  0.1016 -0.6097 -0.5126
   43MOL   C15720401   3.223   7.758   1.922  0.6172 -0.4761  0.2444
   43MOL   C15820402   3.330   7.670   1.937 -0.6815  0.9039 -0.2555
   43MOL   C15920403   3.458   7.703   1.895  0.1503 -0.2691  0.5489
   43MOL   C16020404   3.485   7.830   1.842  0.6423 -0.1792 -0.3229
   43MOL   O16120405   3.319   7.549   1.998 -0.0275  0.5675  0.1254
   43MOL   H16220406   3.695   8.250   2.161  0.1931 -0.6885 -0.0924
   43MOL   H16320407   3.487   8.167   2.061  1.0005 -0.6396  2.2041
   43MOL   H16420408   3.683   8.134   1.679 -0.7129 -0.0791  0.5816
   43MOL   H16520409   3.900   8.168   1.787  0.5639  3.4525  0.8050
   43MOL   H16620410   3.174   7.961   1.873  0.9892  0.4377  1.1824
   43MOL   H16720411   3.126   7.729   1.957  0.2857 -0.6930 -0.8272
   43MOL   H16820412   3.545   7.640   1.903  1.3555  1.3953  0.6254
   43MOL   H16920413   3.586   7.857   1.816  0.8583 -1.5658 -0.9978
   43MOL   C17020414   3.199   7.452   1.813  0.0003  0.1993 -0.3022
   43MOL   C17120415   3.124   7.345   1.762  0.2823  0.8696  0.1761
   43MOL   C17220416   3.078   7.241   1.853 -0.6079 -0.3599  0.4625
   43MOL   C17320417   3.111   7.251   1.989 -0.0324 -0.3074 -0.0653
   43MOL   C17420418   3.192   7.357   2.041  0.8786  0.1343  0.3653
   43MOL   C17520419   3.232   7.456   1.952 -0.3635  0.0420  0.1171
   43MOL   S17620420   2.988   7.093   1.796  0.3588 -0.0031 -0.1308
   43MOL   O17720421   2.979   7.097   1.647  0.0948 -1.1392 -0.5691
   43MOL   O17820422   2.862   7.085   1.875 -0.3909  0.0084  0.3664
   43MOL   C17920423   3.081   6.944   1.832  0.1202  0.2948  1.0272
   43MOL   C18020424   3.021   6.815   1.826  0.3502  0.5590 -0.9509
   43MOL   C18120425   3.102   6.702   1.854  0.2171 -0.1169  0.3718
   43MOL   C18220426   3.231   6.719   1.901 -0.4271 -0.3088  0.5130
   43MOL   C18320427   3.299   6.843   1.891  0.0017 -0.7322 -0.2405
   43MOL   C18420428   3.220   6.959   1.854  0.0126 -0.0726 -0.5512
   43MOL   O18520429   3.309   6.619   1.940 -0.0765 -0.4981 -0.2909
   43MOL   H18620430   3.237   7.522   1.741 -1.5130  0.0822 -1.2154
   43MOL   H18720431   3.111   7.342   1.655  1.6852  2.4680 -0.0646
   43MOL   H18820432   3.077   7.168   2.049  0.1860  0.1750  0.7184
   43MOL   H18920433   3.227   7.362   2.143  0.6016  0.3078  0.4540
   43MOL   H19020434   2.921   6.801   1.790  0.9062  0.6689 -2.5800
   43MOL   H19120435   3.051   6.608   1.864  0.5303 -0.3481 -0.1456
   43MOL   H19220436   3.400   6.846   1.928 -0.1984  0.7002  0.2411
   43MOL   H19320437   3.269   7.055   1.849  0.1616 -0.1439 -0.4545
   43MOL   C19420438   3.355   6.681   2.168 -0.2304 -0.4037 -0.1520
   43MOL   C19520439   3.360   6.650   2.301 -0.1993  0.7710  0.6147
   43MOL   C19620440   3.326   6.524   2.344 -0.2094 -0.0131 -0.7255
   43MOL   C19720441   3.296   6.428   2.244  0.0380  0.0543 -0.5631
   43MOL   C19820442   3.283   6.456   2.112 -0.1744 -0.7886  0.4987
   43MOL   C19920443   3.313   6.585   2.072 -0.6055 -0.6126 -0.2886
   43MOL   S20020444   3.337   6.478   2.517 -0.3162 -0.2317  0.2731
   43MOL   O20120445   3.295   6.598   2.591  0.0834  0.6036  0.4130
   43MOL   O20220446   3.471   6.420   2.544 -0.1304 -0.4902 -0.2323
   43MOL   C20320447   3.220   6.347   2.548  0.1172  0.0745 -0.1814
   43MOL   C20420448   3.237   6.213   2.507 -0.3724 -0.1201  0.4077
   43MOL   C20520449   3.149   6.115   2.547  0.4571  0.1341  0.0685
   43MOL   C20620450   3.034   6.145   2.612  0.3617  0.6249  0.0678
   43MOL   C20720451   3.000   6.280   2.643 -0.1493  0.2377  0.3097
   43MOL   C20820452   3.096   6.378   2.608  0.0847  0.3026 -0.3439
   43MOL   O20920453   2.951   6.042   2.633 -0.2716  0.2392 -0.3363
   43MOL   H21020454   3.396   6.778   2.146  0.8630 -0.2638  2.3742
   43MOL   H21120455   3.400   6.728   2.364  3.4352  0.5681 -1.2664
   43MOL   H21220456   3.277   6.323   2.262 -1.0047  0.2330 -0.5461
   43MOL   H21320457   3.254   6.374   2.047 -1.5974  0.8375 -1.0003
   43MOL   H21420458   3.325   6.189   2.449 -1.6829 -0.9191 -1.3111
   43MOL   H21520459   3.181   6.015   2.522  0.4887  0.9940 -3.7327
   43MOL   H21620460   2.904   6.298   2.688 -0.5579 -1.7830  0.3016
   43MOL   H21720461   3.084   6.484   2.625 -0.3293  0.5675 -2.1400
   43MOL   C21820462   2.788   6.038   2.812  0.8842 -0.1811 -0.3275
   43MOL   C21920463   2.757   6.022   2.944 -0.4472 -0.0781  0.1059
   43MOL   C22020464   2.857   5.969   3.032 -0.0332  0.0593  0.1619
   43MOL   C22120465   2.986   5.938   2.986 -0.2698 -0.2183 -0.2893
   43MOL   C22220466   3.012   5.954   2.848  0.3900 -0.6596  0.8242
   43MOL   C22320467   2.915   6.010   2.762  0.0177  0.1663 -0.8898
   43MOL   S22420468   2.817   5.954   3.209  0.0700  0.2396  0.0007
   43MOL   O22520469   2.907   5.853   3.274 -0.1365  0.3570  0.6779
   43MOL   O22620470   2.670   5.942   3.227  0.7984  0.3592  0.1463
   43MOL   C22720471   2.859   6.109   3.284  0.0231  0.4195  0.5671
   43MOL   C22820472   2.956   6.119   3.385  0.4352  0.4319  0.4524
   43MOL   C22920473   2.978   6.243   3.447  0.4821 -0.2102 -0.4094
   43MOL   C23020474   2.906   6.360   3.412  0.2787 -0.3727 -0.3114
   43MOL   C23120475   2.808   6.352   3.314  0.4869  0.2665 -0.7001
   43MOL   C23220476   2.777   6.224   3.254 -0.5685 -0.4811 -0.2307
   43MOL   O23320477   2.930   6.470   3.496  0.6313  0.0904  0.6381
   43MOL   H23420478   2.714   6.062   2.737 -1.4610  0.1823  2.0330
   43MOL   H23520479   2.659   6.041   2.986 -0.7155 -0.9183 -0.1343
   43MOL   H23620480   3.054   5.912   3.066 -0.7727 -0.3638  0.0909
   43MOL   H23720481   3.105   5.926   2.802 -0.1433 -2.1937  0.6595
   43MOL   H23820482   3.017   6.038   3.423 -0.3242 -0.4916 -0.2510
   43MOL   H23920483   3.046   6.245   3.531  1.2530 -0.9479 -1.0124
   43MOL   H24020484   2.747   6.439   3.293 -0.9225  0.2110  2.8365
   43MOL   H24120485   2.705   6.212   3.174 -0.7362  0.3000 -0.2045
   43MOL   C24220486   2.995   6.699   3.535 -0.7954  0.7436  0.5182
   43MOL   C24320487   3.077   6.812   3.506 -0.5679 -0.0796 -0.0739
   43MOL   C24420488   3.162   6.804   3.390 -0.2488 -0.1855  0.5228
   43MOL   C24520489   3.160   6.691   3.309  0.1127 -1.1149  0.5227
   43MOL   C24620490   3.083   6.574   3.340  0.0341 -0.3756  0.2522
   43MOL   C24720491   3.003   6.581   3.455  0.4309  0.8526  0.2688
   43MOL   S24820492   3.250   6.948   3.337  0.2185 -0.4379  0.2840
   43MOL   O24920493   3.192   7.065   3.404 -0.1521  0.4696 -0.0448
   43MOL   O25020494   3.252   6.933   3.190  0.8241  0.2205 -0.6385
   43MOL   C25120495   3.419   6.921   3.397 -0.1719 -0.1042 -0.0695
   43MOL   C25220496   3.535   6.958   3.322  0.7625 -0.1200 -0.2212
   43MOL   C25320497   3.660   6.930   3.375 -0.5632 -0.0844 -0.4331
   43MOL   C25420498   3.675   6.897   3.513 -0.0646  0.1074  0.1954
   43MOL   C25520499   3.566   6.878   3.595 -0.0289  0.1330 -0.1158
   43MOL   C25620500   3.441   6.878   3.531  0.7855  0.2149 -1.3193
   43MOL   O25720501   3.798   6.876   3.573  0.0842  0.3673  0.1263
   43MOL   H25820502   2.934   6.698   3.624 -3.1841  2.0266 -1.0336
   43MOL   H25920503   3.062   6.906   3.556 -0.2789  0.1550 -0.4271
   43MOL   H26020504   3.221   6.687   3.220 -0.9647 -0.3878 -0.2512
   43MOL   H26120505   3.087   6.485   3.278 -1.6423 -0.4916  0.2871
   43MOL   H26220506   3.530   6.988   3.218 -1.5428  1.4681  0.3099
   43MOL   H26320507   3.752   6.923   3.318  1.4559  0.0271  2.7190
   43MOL   H26420508   3.569   6.847   3.698 -0.9893 -1.4899 -0.5550
   43MOL   H26520509   3.350   6.862   3.588  1.6555  3.2192  1.0103
   43MOL   C26620510   3.988   7.009   3.519  0.0091  0.0639 -0.7840
   43MOL   C26720511   4.038   7.138   3.505 -1.0590 -0.3526  0.3646
   43MOL   C26820512   3.985   7.243   3.577 -0.2506  0.4248 -0.3746
   43MOL   C26920513   3.874   7.228   3.662  0.7584  0.2127 -0.4002
   43MOL   C27020514   3.815   7.097   3.669 -0.2906  0.5791 -0.3231
   43MOL   C27120515   3.867   6.993   3.591 -0.3579 -0.3615 -0.2711
   43MOL   S27220516   4.057   7.400   3.559  0.4098 -0.0649 -0.4770
   43MOL   O27320517   3.945   7.491   3.573 -0.1753 -0.4697 -0.0381
   43MOL   O27420518   4.133   7.405   3.432 -0.4966  0.3047 -0.3923
   43MOL   C27520519   4.176   7.432   3.690 -0.2277  0.3954 -0.9149
   43MOL   C27620520   4.190   7.341   3.797 -1.1621  0.1357 -0.8189
   43MOL   C27720521   4.271   7.377   3.905  0.7094 -0.6540 -0.6947
   43MOL   C27820522   4.340   7.500   3.901  0.7592  0.5875  0.0561
   43MOL   C27920523   4.331   7.588   3.793  0.6840  0.3327 -0.0474
   43MOL   C28020524   4.248   7.557   3.684  0.1500  0.2046  0.7641
   43MOL   O28120525   4.426   7.525   4.004  0.4854 -0.0942  0.3462
   43MOL   H28220526   4.039   6.921   3.482 -2.7830 -1.9450 -0.0300
   43MOL   H28320527   4.128   7.157   3.449 -1.4791 -0.2704 -0.2773
   43MOL   H28420528   3.822   7.304   3.719 -3.7093 -1.8023 -1.5942
   43MOL   H28520529   3.726   7.078   3.729 -0.1670  1.2220  0.0765
   43MOL   H28620530   4.145   7.243   3.793 -2.6506  0.8063 -0.8719
   43MOL   H28720531   4.287   7.319   3.995 -0.0248 -2.2629 -1.5653
   43MOL   H28820532   4.387   7.680   3.787  0.3128  0.8121  3.0933
   43MOL   H28920533   4.226   7.619   3.598  0.2340 -1.3502 -0.4006
   43MOL   C29020534   4.363   7.500   4.238  0.1814  0.6785 -0.0670
   43MOL   C29120535   4.325   7.557   4.360  0.5027  0.3412  0.6362
   43MOL   C29220536   4.283   7.689   4.372 -0.0599  0.2760 -0.2060
   43MOL   C29320537   4.280   7.768   4.255 -0.1363 -0.7537  0.0932
   43MOL   C29420538   4.328   7.714   4.121 -0.5412  0.1626 -0.1388
   43MOL   C29520539   4.374   7.577   4.117 -0.5513  0.5308 -0.5490
   43MOL   S29620540   4.213   7.746   4.532 -0.1470  0.0756 -0.4966
   43MOL   O29720541   4.113   7.648   4.572 -0.0405 -0.1390 -0.0821
   43MOL   O29820542   4.172   7.886   4.532 -0.3303 -0.1005  0.4945
   43MOL   C29920543   4.346   7.733   4.650 -1.0658 -0.9596 -0.0293
   43MOL   C30020544   4.461   7.813   4.644 -0.0504 -0.3609 -0.6103
   43MOL   C30120545   4.572   7.795   4.730  0.4177 -0.5757  0.2185
   43MOL   C30220546   4.574   7.685   4.820  0.0949  0.3176  0.0384
   43MOL   C30320547   4.458   7.599   4.829  0.5988 -0.1806 -0.4798
   43MOL   C30420548   4.352   7.623   4.733 -0.2490 -0.1759  0.1136
   43MOL   O30520549   4.686   7.646   4.888  0.7252  0.5959  0.2106
   43MOL   H30620550   4.391   7.396   4.228 -0.6999  0.3422  0.9340
   43MOL   H30720551   4.332   7.498   4.451  0.2034  0.8088  0.9688
   43MOL   H30820552   4.230   7.863   4.264  1.1109 -0.0046 -0.6484
   43MOL   H30920553   4.340   7.783   4.039  0.0269 -1.3430 -1.3483
   43MOL   H31020554   4.458   7.897   4.577 -0.0348  0.0102 -0.1513
   43MOL   H31120555   4.659   7.855   4.708  0.1542 -0.9423 -2.0317
   43MOL   H31220556   4.453   7.510   4.890 -1.6241  0.9370  1.0160
   43MOL   H31320557   4.274   7.549   4.739 -0.9641  0.6404  1.0078
   43MOL   C31420558   4.839   7.525   4.755 -0.2357 -0.7852  0.0574
   43MOL   C31520559   4.891   7.402   4.712  0.0035 -0.0077  0.1422
   43MOL   C31620560   4.857   7.282   4.771 -0.3696 -0.4173  0.0697
   43MOL   C31720561   4.778   7.287   4.886  0.2625 -1.1758  0.0463
   43MOL   C31820562   4.722   7.414   4.929  0.2392  0.0052  0.0986
   43MOL   C31920563   4.750   7.533   4.858 -0.5100  0.2891 -0.1371
   43MOL   S32020564   4.914   7.128   4.700  0.4033 -0.6474  0.0730
   43MOL   O32120565   4.905   7.025   4.800  0.1702 -0.0421  0.1438
   43MOL   O32220566   5.045   7.152   4.639 -0.1480  0.7549  0.6523
   43MOL   C32320567   4.800   7.108   4.572  0.0061 -0.5234 -0.4294
   43MOL   C32420568   4.823   7.144   4.442 -0.6914 -0.2310  0.6892
   43MOL   C32520569   4.720   7.149   4.349 -0.1494 -0.4749 -0.1527
   43MOL   C32620570   4.584   7.130   4.382  0.1120 -0.4064  0.3135
   43MOL   C32720571   4.562   7.088   4.512 -0.3399 -0.4917 -0.4011
   43MOL   C32820572   4.666   7.067   4.603  0.6297  0.1027 -0.3148
   43MOL   O32920573   4.485   7.174   4.302  0.1154  0.0085  0.8487
   43MOL   H33020574   4.868   7.611   4.695 -0.3024  0.1110  1.2963
   43MOL   H33120575   4.945   7.390   4.619  0.2659 -1.8629  0.5124
   43MOL   H33220576   4.750   7.200   4.943 -0.6820 -1.1211 -0.3250
   43MOL   H33320577   4.659   7.416   5.017  0.4820  0.1027  0.2693
   43MOL   H33420578   4.919   7.179   4.407 -1.0385 -1.2581 -1.3634
   43MOL   H33520579   4.753   7.189   4.254  1.5930  0.7986  0.9669
   43MOL   H33620580   4.461   7.064   4.541 -0.1054  0.9489  1.6866
   43MOL   H33720581   4.641   7.024   4.699 -1.4062  0.5819 -0.6066
   43MOL   C33820582   4.486   7.042   4.100  0.2547 -0.1210 -0.1519
   43MOL   C33920583   4.411   6.959   4.009 -0.8880 -0.0139  0.4499
   43MOL   C34020584   4.278   6.934   4.036 -0.1331 -0.4047 -0.3277
   43MOL   C34120585   4.218   6.976   4.155  0.0706 -0.2934 -0.4876
   43MOL   C34220586   4.294   7.048   4.250 -0.0960 -0.0721  0.2779
   43MOL   C34320587   4.426   7.085   4.217  0.0650  0.6551  0.0533
   43MOL   S34420588   4.170   6.890   3.902 -0.0011  0.0340 -0.1023
   43MOL   O34520589   4.249   6.815   3.803 -0.1298  0.1050  0.4305
   43MOL   O34620590   4.094   7.013   3.876  0.4505  0.3415  0.4563
   43MOL   C34720591   4.057   6.772   3.964 -0.5370  0.1166 -0.4729
   43MOL   C34820592   4.104   6.681   4.064  0.5532 -0.9853  0.7357
   43MOL   C34920593   4.014   6.590   4.118  0.4148 -0.4644  0.1677
   43MOL   C35020594   3.878   6.591   4.077  0.2768 -0.3708  0.3179
   43MOL   C35120595   3.832   6.686   3.978 -0.3727  0.1751 -0.3865
   43MOL   C35220596   3.925   6.772   3.920  0.6229  0.1172  0.4539
   43MOL   O35320597   3.791   6.491   4.123  0.0529 -0.2031 -0.0161
   43MOL   H35420598   4.582   7.081   4.070 -0.9927  2.7192 -0.6324
   43MOL   H35520599   4.456   6.926   3.917  2.0128  0.0224  1.7882
   43MOL   H35620600   4.113   6.958   4.171 -0.0311 -0.1958 -1.0221
   43MOL   H35720601   4.249   7.074   4.345 -0.4206 -0.6858  0.2952
   43MOL   H35820602   4.203   6.687   4.106  1.7206 -0.0118 -2.0473
   43MOL   H35920603   4.046   6.524   4.198  0.1697  1.2248  1.6883
   43MOL   H36020604   3.732   6.683   3.938 -0.0883 -0.2859 -1.0829
   43MOL   H36120605   3.890   6.843   3.847 -0.6000 -0.4198  0.5037
   43MOL   C36220606   3.876   6.393   4.331 -0.1584 -0.7397 -0.3059
   43MOL   C36320607   3.860   6.383   4.471 -0.4060  0.1731  0.0842
   43MOL   C36420608   3.752   6.436   4.542 -0.1612  0.2368  0.2618
   43MOL   C36520609   3.652   6.501   4.469  0.7451  0.3858  0.2530
   43MOL   C36620610   3.661   6.513   4.327 -0.2920 -0.7924 -0.4024
   43MOL   C36720611   3.779   6.467   4.259  0.4889  0.2575 -0.4115
   43MOL   S36820612   3.750   6.436   4.722 -0.0962 -0.0513  0.4529
   43MOL   O36920613   3.823   6.553   4.776 -0.5747 -0.0096  0.2806
   43MOL   O37020614   3.789   6.304   4.767  0.0528  0.3685 -0.2100
   43MOL   C37120615   3.574   6.446   4.779 -0.1161  0.4510  0.3757
   43MOL   C37220616   3.485   6.352   4.725 -0.5340  0.1777  0.0359
   43MOL   C37320617   3.352   6.369   4.756 -0.0461  0.0541 -0.7086
   43MOL   C37420618   3.312   6.486   4.821 -0.0973 -0.0347 -0.0466
   43MOL   C37520619   3.401   6.578   4.875 -0.0597  0.0124 -0.2002
   43MOL   C37620620   3.537   6.557   4.850 -0.3813  0.1001 -0.2880
   43MOL   O37720621   3.180   6.502   4.853  0.5520  0.0349 -0.0234
   43MOL   H37820622   3.964   6.355   4.282  0.7686  0.5057  0.3674
   43MOL   H37920623   3.933   6.321   4.521 -0.4195 -0.0808 -0.2086
   43MOL   H38020624   3.566   6.547   4.517  0.7213  0.8670 -0.2479
   43MOL   H38120625   3.586   6.551   4.259  0.6606  1.9957  0.0327
   43MOL   H38220626   3.525   6.267   4.672 -0.0996  1.9041 -2.5014
   43MOL   H38320627   3.281   6.296   4.720  0.1514 -0.9780  0.8847
   43MOL   H38420628   3.373   6.660   4.940  1.7804  0.4377  0.0870
   43MOL   H38520629   3.613   6.622   4.893  1.6039 -1.9024 -0.6974
   43MOL   C38620630   3.067   6.684   4.951 -0.2493  0.4023  0.5942
   43MOL   C38720631   2.998   6.805   4.943 -0.2952  0.0069 -0.4142
   43MOL   C38820632   2.977   6.876   4.818  0.4432 -0.4617  0.1927
   43MOL   C38920633   3.027   6.811   4.705  0.5355  0.3223 -0.8573
   43MOL   C39020634   3.094   6.686   4.712  0.2729  0.1579  0.9203
   43MOL   C39120635   3.118   6.620   4.834  0.2785  0.2567  0.2142
   43MOL   S39220636   2.891   7.036   4.814  0.1998 -0.3894 -0.1519
   43MOL   O39320637   2.748   7.007   4.790 -0.3770 -0.7618 -0.1519
   43MOL   O39420638   2.959   7.123   4.718  0.3593  0.4311  0.4486
   43MOL   C39520639   2.917   7.105   4.980 -0.1133  0.8172 -0.6218
   43MOL   C39620640   3.044   7.160   5.016  0.1470 -0.5768 -0.2303
   43MOL   C39720641   3.059   7.206   5.149  0.0478  0.4512  0.5255
   43MOL   C39820642   2.945   7.212   5.232 -0.6374  0.8795 -0.3911
   43MOL   C39920643   2.824   7.149   5.200 -0.1495  0.3146 -0.5731
   43MOL   C40020644   2.808   7.103   5.073 -0.0396 -0.4695 -0.4195
   43MOL   O40120645   2.962   7.281   5.353 -0.2743  0.1604  0.7876
   43MOL   H40220646   3.070   6.634   5.047 -2.2846 -0.6100  0.1600
   43MOL   H40320647   2.964   6.855   5.033  2.0270  0.9894 -0.0312
   43MOL   H40420648   2.991   6.841   4.608 -1.1394  0.8107 -0.1184
   43MOL   H40520649   3.129   6.647   4.617 -3.1879 -0.1311 -0.3236
   43MOL   H40620650   3.129   7.154   4.950  0.8124 -2.9394  0.7712
   43MOL   H40720651   3.151   7.252   5.181 -0.5276  2.5742 -0.7534
   43MOL   H40820652   2.743   7.126   5.268 -0.1903 -0.5127 -0.8931
   43MOL   H40920653   2.713   7.057   5.049 -0.3580 -1.8417  3.2839
   43MOL   C41020654   2.874   7.504   5.359  0.5443  0.0849 -0.0734
   43MOL   C41120655   2.904   7.644   5.359  0.3452 -0.1585 -0.1952
   43MOL   C41220656   3.041   7.681   5.367  0.1197 -0.4557 -0.3535
   43MOL   C41320657   3.145   7.590   5.371 -0.4303  0.1263 -0.3609
   43MOL   C41420658   3.113   7.458   5.360 -1.0055  0.4250 -0.6623
   43MOL   C41520659   2.982   7.413   5.354  0.0313 -0.2446 -0.7769
   43MOL   S41620660   3.087   7.864   5.362  0.1560 -0.1648  0.9400
   43MOL   O41720661   3.086   7.900   5.219  0.0617  0.2218  0.1596
   43MOL   O41820662   3.205   7.878   5.450  0.2478  0.8885  0.1322
   43MOL   C41920663   2.959   7.968   5.427 -0.2872  0.2143  0.0692
   43MOL   C42020664   2.985   8.029   5.544  0.3974 -0.1488  0.2515
   43MOL   C42120665   2.899   8.126   5.590 -0.7808 -0.5479  0.6961
   43MOL   C42220666   2.791   8.166   5.517 -0.3094 -0.2891  0.5903
   43MOL   C42320667   2.758   8.098   5.396 -0.6173 -0.1528  0.0728
   43MOL   C42420668   2.852   8.007   5.344  0.0103 -0.1721 -0.1487
   43MOL   O42520669   2.707   8.258   5.566 -0.1341 -0.5481 -0.3601
   43MOL   H42620670   2.772   7.468   5.357  0.1245  0.9483  2.6057
   43MOL   H42720671   2.827   7.720   5.365  2.6833  2.2334  1.0843
   43MOL   H42820672   3.242   7.634   5.389  0.0369 -0.3762 -1.6433
   43MOL   H42920673   3.193   7.387   5.371  0.0441  1.3069 -2.3708
   43MOL   H43020674   3.071   8.003   5.602  0.5166  1.6384  0.9016
   43MOL   H43120675   2.919   8.175   5.683 -2.6686  1.5141  0.0564
   43MOL   H43220676   2.676   8.127   5.332 -0.2276  0.5794 -0.1045
   43MOL   H43320677   2.837   7.962   5.247  1.1393  1.1618 -0.9572
   43MOL   C43420678   2.469   8.234   5.536 -0.1848 -0.1186 -0.1067
   43MOL   C43520679   2.347   8.196   5.598 -0.2924 -0.5750  0.1909
   43MOL   C43620680   2.346   8.146   5.729 -0.0373 -0.3529 -0.4097
   43MOL   C43720681   2.459   8.147   5.809  0.4246  0.4407  0.3117
   43MOL   C43820682   2.584   8.173   5.743  0.0247  0.3815 -0.4659
   43MOL   C43920683   2.590   8.219   5.609  0.7898  0.1174  0.3055
   43MOL   S44020684   2.193   8.094   5.814  0.5714  0.0400  0.4801
   43MOL   O44120685   2.083   8.194   5.788 -0.0117  0.0163  0.2423
   43MOL   O44220686   2.229   8.056   5.949 -0.2842 -0.2800  0.4079
   43MOL   C44320687   2.149   7.943   5.733  0.2840  0.2724 -0.2289
   43MOL   C44420688   2.170   7.820   5.794 -0.1250  0.1069 -0.8803
   43MOL   C44520689   2.134   7.702   5.722 -0.1781  0.1476  0.9078
   43MOL   C44620690   2.064   7.712   5.598 -0.0955  0.1320  0.3694
   43MOL   C44720691   2.044   7.841   5.543  0.2135  0.3926  0.6608
   43MOL   C44820692   2.083   7.952   5.610 -0.0261 -0.3869 -0.1665
   43MOL   O44920693   2.028   7.596   5.545 -0.3244  0.2014 -0.4392
   43MOL   H45020694   2.471   8.265   5.432  1.8117  1.9642  0.5109
   43MOL   H45120695   2.250   8.212   5.551  0.6246  0.5528 -1.3781
   43MOL   H45220696   2.459   8.118   5.913  0.7578 -0.8348 -0.0444
   43MOL   H45320697   2.669   8.164   5.809 -0.6293  0.3224  0.3878
   43MOL   H45420698   2.228   7.809   5.884 -0.8726  0.9947 -0.2823
   43MOL   H45520699   2.149   7.608   5.774  0.0776  0.6807  1.8164
   43MOL   H45620700   1.989   7.848   5.450 -1.1980  1.6879  1.5635
   43MOL   H45720701   2.074   8.052   5.571  1.0002 -0.6139 -0.9879
   43MOL   C45820702   2.179   7.596   5.348 -0.3436  0.6240 -0.3390
   43MOL   C45920703   2.267   7.520   5.267 -0.1298  0.2703 -0.7251
   43MOL   C46020704   2.288   7.383   5.290 -0.5485  0.1123  0.2443
   43MOL   C46120705   2.219   7.320   5.397  0.2155  0.6718  0.7662
   43MOL   C46220706   2.129   7.392   5.478  0.6655  0.0902 -0.4222
   43MOL   C46320707   2.112   7.534   5.456 -0.1430 -0.3976 -0.6836
   43MOL   S46420708   2.379   7.292   5.167  0.0571  0.2752 -0.1928
   43MOL   O46520709   2.425   7.163   5.220  0.1689  0.5384 -0.4618
   43MOL   O46620710   2.479   7.380   5.102  0.2330 -0.2318 -0.7365
   43MOL   C46720711   2.260   7.253   5.033 -0.4923 -0.1747  0.0103
   43MOL   C46820712   2.297   7.247   4.894 -0.2959  0.3721  0.3345
   43MOL   C46920713   2.209   7.222   4.785 -0.6226  0.6010 -0.3930
   43MOL   C47020714   2.069   7.208   4.821 -1.2618 -0.4261 -0.0550
   43MOL   C47120715   2.028   7.211   4.963 -0.0747 -0.2401  1.1175
   43MOL   C47220716   2.127   7.224   5.061  0.3640 -0.4608 -0.4455
   43MOL   O47320717   1.965   7.187   4.732 -0.6576  0.2762 -0.2951
   43MOL   H47420718   2.182   7.703   5.332  0.8920  0.8660  1.3722
   43MOL   H47520719   2.308   7.567   5.179  2.6256 -0.1901  0.2669
   43MOL   H47620720   2.219   7.212   5.398 -1.4771  0.6632  1.4218
   43MOL   H47720721   2.071   7.346   5.556  0.4925  2.2713  0.7670
   43MOL   H47820722   2.400   7.272   4.874  0.1717  0.9870  3.2153
   43MOL   H47920723   2.245   7.230   4.684 -1.5110 -1.9328 -0.9581
   43MOL   H48020724   1.924   7.192   4.987 -0.8217  1.6225 -0.5781
   43MOL   H48120725   2.097   7.219   5.164  0.2228  1.9536 -0.3580
   43MOL   H48220726   1.976   7.144   4.649 -2.0935  1.2850 -1.0389
   44MOL     C120727   2.813   0.711   1.392  0.3035  0.6072 -0.1727
   44MOL     C220728   2.728   0.792   1.468  0.5120 -1.0447 -0.7431
   44MOL     C320729   2.723   0.784   1.604  0.8204 -0.4914  0.0616
   44MOL     C420730   2.811   0.699   1.679 -0.0548  0.0826  0.8973
   44MOL     C520731   2.903   0.622   1.603  0.2629  1.1441 -0.5759
   44MOL     C620732   2.904   0.627   1.461  0.1503 -0.3497  0.0028
   44MOL     S720733   2.597   0.882   1.696 -0.6169 -0.0745 -0.0754
   44MOL     O820734   2.499   0.785   1.748  0.1950 -0.3290  0.4647
   44MOL     O920735   2.553   0.986   1.606  0.1487  0.3980 -0.0229
   44MOL    C1020736   2.694   0.949   1.830  0.1578 -0.9089  0.6833
   44MOL    C1120737   2.773   1.059   1.805 -0.2124  0.5530  0.0558
   44MOL    C1220738   2.852   1.120   1.909 -0.4516 -0.4226 -0.1573
   44MOL    C1320739   2.836   1.071   2.037 -0.1074 -0.5821 -1.4048
   44MOL    C1420740   2.749   0.960   2.064 -1.0741  0.8600  0.6188
   44MOL    C1520741   2.676   0.895   1.960 -0.0508  0.4112  0.1834
   44MOL    O1620742   2.907   1.130   2.137 -0.1111  0.7025  0.2206
   44MOL    H1720743   2.811   0.712   1.284 -1.6126  3.6849 -0.1888
   44MOL    H1820744   2.662   0.851   1.406 -1.2222 -0.6721  1.4083
   44MOL    H1920745   2.815   0.696   1.787 -0.8309 -0.3405  0.9181
   44MOL    H2020746   2.972   0.561   1.659 -2.2001 -1.0894  0.1306
   44MOL    H2120747   2.778   1.092   1.702 -2.5065  0.0192 -0.2589
   44MOL    H2220748   2.923   1.200   1.897  0.0142 -1.1087 -2.2907
   44MOL    H2320749   2.726   0.941   2.168 -0.7088  0.5608  0.6477
   44MOL    H2420750   2.601   0.824   1.990 -0.6718  1.1101  0.2860
   44MOL    H2520751   2.977   0.570   1.405  1.7891  2.3591 -0.7709
   44MOL    C2620752   2.777   1.331   2.160  0.0449 -0.1550  0.5723
   44MOL    C2720753   2.762   1.465   2.200  0.2576 -0.3076  0.8624
   44MOL    C2820754   2.882   1.542   2.215 -0.7742  0.0682 -0.4554
   44MOL    C2920755   3.007   1.479   2.205  0.0256  0.2882  0.7858
   44MOL    C3020756   3.017   1.339   2.177  0.3005 -0.4960  0.0912
   44MOL    C3120757   2.900   1.268   2.151 -0.2054 -0.1465 -0.2897
   44MOL    S3220758   2.879   1.711   2.270  0.1651  0.2496 -0.4956
   44MOL    O3320759   3.019   1.745   2.303  0.0058 -0.1782 -0.2400
   44MOL    O3420760   2.774   1.723   2.368  0.2508 -0.8192 -0.0957
   44MOL    C3520761   2.846   1.816   2.128 -1.1667  0.1933  1.2950
   44MOL    C3620762   2.721   1.882   2.133 -0.1397 -0.5770  0.1381
   44MOL    C3720763   2.695   1.986   2.038  0.2883  0.0125  0.2132
   44MOL    C3820764   2.794   2.028   1.946  0.2326 -0.1806 -0.1830
   44MOL    C3920765   2.920   1.963   1.943 -0.0648  0.5170  0.2390
   44MOL    C4020766   2.946   1.861   2.041  0.5277  0.1779  0.0328
   44MOL    O4120767   2.776   2.131   1.867 -0.5953 -0.2559  0.5219
   44MOL    H4220768   2.699   1.263   2.128  0.1210 -0.5514  1.2179
   44MOL    H4320769   2.665   1.512   2.209  0.3901  0.2367 -0.5059
   44MOL    H4420770   3.101   1.521   2.236  0.7537 -0.6520 -0.1362
   44MOL    H4520771   3.112   1.288   2.184  0.2518 -0.8198 -1.5071
   44MOL    H4620772   2.649   1.863   2.210  0.1747  1.1014  0.8651
   44MOL    H4720773   2.603   2.043   2.041  0.9838  1.0639  1.9416
   44MOL    H4820774   2.994   1.979   1.865 -1.0077  0.1230 -0.7561
   44MOL    H4920775   3.045   1.820   2.057 -0.8298 -3.7806 -1.1239
   44MOL    C5020776   2.727   2.036   1.654 -0.0763  0.0851  0.1331
   44MOL    C5120777   2.654   2.038   1.536 -0.2197 -0.4884  0.0912
   44MOL    C5220778   2.550   2.129   1.523  0.0839 -0.3330  0.5355
   44MOL    C5320779   2.522   2.222   1.624 -0.3375 -0.7405  0.2466
   44MOL    C5420780   2.602   2.228   1.737 -0.1073 -0.2263 -1.0124
   44MOL    C5520781   2.698   2.127   1.760 -0.5784 -1.3833 -0.1435
   44MOL    S5620782   2.465   2.141   1.377  0.5932 -0.0001  0.2652
   44MOL    O5720783   2.364   2.247   1.375 -0.1100  0.1545 -0.3303
   44MOL    O5820784   2.418   2.005   1.343  0.1445 -0.0267 -0.7675
   44MOL    C5920785   2.584   2.178   1.254 -0.0261  0.9683 -0.2054
   44MOL    C6020786   2.556   2.135   1.122  0.2173 -0.3417 -0.5517
   44MOL    C6120787   2.646   2.173   1.017 -0.0479  0.2894  0.2127
   44MOL    C6220788   2.766   2.239   1.044  0.9715  0.2695 -0.9498
   44MOL    C6320789   2.794   2.274   1.179 -0.1077 -0.2421 -0.2119
   44MOL    C6420790   2.704   2.241   1.283 -0.2174 -0.0849  0.2626
   44MOL    O6520791   2.858   2.270   0.941  0.0951 -0.0563 -0.9822
   44MOL    H6620792   2.801   1.958   1.669  0.8259  0.6108 -1.4497
   44MOL    H6720793   2.677   1.977   1.451  3.4277  1.7933 -0.6593
   44MOL    H6820794   2.447   2.293   1.595  2.2487  1.6109 -0.8991
   44MOL    H6920795   2.597   2.310   1.807 -1.5527 -1.1820  0.0307
   44MOL    H7020796   2.461   2.090   1.099  0.5894 -0.0601 -2.7607
   44MOL    H7120797   2.630   2.152   0.912  0.6048  2.3495 -0.3300
   44MOL    H7220798   2.881   2.335   1.199 -0.3008  0.5337 -1.6556
   44MOL    H7320799   2.729   2.261   1.387 -1.3583  1.1726  0.3002
   44MOL    C7420800   2.914   2.226   0.713  0.4732 -0.0038 -0.6157
   44MOL    C7520801   2.946   2.135   0.608  0.1283 -0.7303  0.4329
   44MOL    C7620802   2.957   1.994   0.642  0.1725  0.3453 -0.0783
   44MOL    C7720803   2.935   1.948   0.775  0.1083  0.8296 -0.3279
   44MOL    C7820804   2.901   2.043   0.879  0.0773  1.0541  0.2910
   44MOL    C7920805   2.880   2.179   0.844 -0.4923 -0.3530  0.2570
   44MOL    S8020806   3.000   1.889   0.499  0.1752  0.0095  0.3767
   44MOL    O8120807   3.068   1.769   0.548 -0.4082 -0.2425  0.6135
   44MOL    O8220808   3.073   1.976   0.403 -0.1378 -0.2230 -0.4880
   44MOL    C8320809   2.851   1.840   0.425  0.8004  0.0831 -0.4853
   44MOL    C8420810   2.829   1.825   0.286 -0.3853 -0.1089  0.4979
   44MOL    C8520811   2.706   1.784   0.244 -0.3002 -0.5104  0.5395
   44MOL    C8620812   2.593   1.769   0.328  0.6298  1.2374  0.1584
   44MOL    C8720813   2.612   1.788   0.468 -0.4073 -0.2230 -0.2527
   44MOL    C8820814   2.741   1.833   0.516  0.2621  0.3650 -0.4042
   44MOL    O8920815   2.465   1.727   0.280  0.2632  0.0710 -0.6068
   44MOL    H9020816   2.920   2.334   0.705  2.6790 -0.2012 -2.2740
   44MOL    H9120817   2.959   2.163   0.504 -0.8103 -1.3320  0.1443
   44MOL    H9220818   2.947   1.846   0.807  1.6457  1.2322  0.4276
   44MOL    H9320819   2.862   2.000   0.970  2.1660 -0.5390  0.4611
   44MOL    H9420820   2.915   1.829   0.220 -0.0326  0.1865  0.9748
   44MOL    H9520821   2.696   1.750   0.142  0.7912  0.6331  0.0352
   44MOL    H9620822   2.525   1.781   0.532 -1.1817 -2.0888 -1.4598
   44MOL    H9720823   2.761   1.844   0.621 -1.8105  0.5871 -0.0091
   44MOL    C9820824   2.294   1.833   0.402  0.6738 -0.1676  0.0204
   44MOL    C9920825   2.185   1.920   0.406  0.2644 -0.1275 -0.4518
   44MOL   C10020826   2.158   2.009   0.299  0.2671 -0.0260  0.3160
   44MOL   C10120827   2.242   2.006   0.182 -0.1013  0.0446  0.2490
   44MOL   C10220828   2.343   1.908   0.175 -0.5040 -0.6720  0.6406
   44MOL   C10320829   2.364   1.819   0.282  0.3368  0.1659  0.1152
   44MOL   S10420830   2.012   2.107   0.318 -0.1287  0.0516  0.0026
   44MOL   O10520831   1.924   2.047   0.419 -0.3977 -0.0067 -0.2242
   44MOL   O10620832   1.955   2.131   0.183  0.1787 -0.1296  0.2454
   44MOL   C10720833   2.063   2.269   0.373  0.0708  0.7562  0.0837
   44MOL   C10820834   2.186   2.322   0.332  0.5493  0.3067 -0.1542
   44MOL   C10920835   2.228   2.446   0.380  0.1910  0.7116 -0.3898
   44MOL   C11020836   2.151   2.523   0.469  0.1581  0.7065 -0.1435
   44MOL   C11120837   2.033   2.465   0.514  0.7657 -0.1522  0.0862
   44MOL   C11220838   1.983   2.340   0.469  0.1724 -0.1467  0.4194
   44MOL   O11320839   2.192   2.649   0.506  0.3165  0.4955 -0.4616
   44MOL   H11420840   2.300   1.767   0.487  1.8074  0.8389  0.7409
   44MOL   H11520841   2.124   1.928   0.494 -1.3122 -0.7068 -1.4565
   44MOL   H11620842   2.235   2.077   0.101  0.9732  1.5805  1.4964
   44MOL   H11720843   2.404   1.892   0.087 -0.8019  0.2927  0.2477
   44MOL   H11820844   2.255   2.265   0.273  0.7481 -1.0546  1.3597
   44MOL   H11920845   2.321   2.484   0.340 -0.0636  0.4384 -1.2634
   44MOL   H12020846   1.973   2.518   0.587 -1.2797 -0.7003 -1.1866
   44MOL   H12120847   1.888   2.299   0.498  1.0859 -1.2303  1.9589
   44MOL   C12220848   2.003   2.776   0.540 -0.2022 -0.7743 -0.4846
   44MOL   C12320849   1.904   2.865   0.496 -0.2890 -0.4237 -0.4023
   44MOL   C12420850   1.904   2.908   0.362  0.8288  0.6244 -0.0460
   44MOL   C12520851   2.024   2.894   0.287 -0.4852  0.1332 -0.0231
   44MOL   C12620852   2.133   2.814   0.332 -0.1731  0.4583  0.0630
   44MOL   C12720853   2.115   2.745   0.457  0.7745 -0.6104  0.1531
   44MOL   S12820854   1.754   2.967   0.283 -0.5909 -0.4047  0.0131
   44MOL   O12920855   1.666   2.848   0.268 -0.0681 -0.3976  0.0906
   44MOL   O13020856   1.797   3.038   0.161  0.2645 -0.2907  0.0808
   44MOL   C13120857   1.673   3.088   0.398  0.1190  0.0742 -0.5068
   44MOL   C13220858   1.543   3.118   0.369 -0.4407  0.3271 -0.1242
   44MOL   C13320859   1.480   3.214   0.445 -0.1746  0.7606  0.1179
   44MOL   C13420860   1.546   3.279   0.552 -0.6199 -0.0796 -0.2329
   44MOL   C13520861   1.683   3.253   0.580 -0.3185  0.2558 -0.1468
   44MOL   C13620862   1.738   3.145   0.507  0.6402  0.3779 -0.7511
   44MOL   O13720863   1.481   3.380   0.617  0.2182 -0.0694 -0.0938
   44MOL   H13820864   2.005   2.736   0.640 -0.7995  0.7904  0.1796
   44MOL   H13920865   1.822   2.886   0.564  0.0745  0.8610 -0.3343
   44MOL   H14020866   2.029   2.932   0.186  2.1523  0.6793  0.2937
   44MOL   H14120867   2.226   2.813   0.277 -0.8959 -0.2003 -1.1678
   44MOL   H14220868   1.494   3.077   0.282 -1.2488  2.8458 -0.8837
   44MOL   H14320869   1.382   3.246   0.412  0.1450 -0.3013 -1.9322
   44MOL   H14420870   1.747   3.303   0.651 -0.4672  0.1460  0.0655
   44MOL   H14520871   1.842   3.117   0.516  0.2711 -0.4663  1.1473
   44MOL   C14620872   1.540   3.559   0.755  0.1876 -0.3996  0.3088
   44MOL   C14720873   1.581   3.604   0.883  0.1184 -0.2040  0.1137
   44MOL   C14820874   1.601   3.513   0.988 -0.1246 -0.0214 -0.2082
   44MOL   C14920875   1.591   3.375   0.961  0.4701  0.2749  0.8644
   44MOL   C15020876   1.544   3.329   0.842 -0.8835  0.0397 -0.5940
   44MOL   C15120877   1.520   3.420   0.736  0.0074 -0.4993 -0.1817
   44MOL   S15220878   1.648   3.569   1.153 -0.0634  0.5295 -0.1655
   44MOL   O15320879   1.794   3.553   1.165  0.0585 -0.4233  0.6664
   44MOL   O15420880   1.557   3.502   1.249  0.1128 -0.2828 -0.4750
   44MOL   C15520881   1.609   3.746   1.150 -0.0406 -0.7499  0.3126
   44MOL   C15620882   1.717   3.836   1.132 -0.0746  0.1566  0.4174
   44MOL   C15720883   1.691   3.968   1.116  0.2941 -0.1759 -1.0214
   44MOL   C15820884   1.558   4.016   1.125 -0.3319 -0.0440 -0.5455
   44MOL   C15920885   1.448   3.926   1.144  0.0809 -0.6631 -0.1359
   44MOL   C16020886   1.475   3.788   1.151 -0.2500  0.5109  0.3121
   44MOL   O16120887   1.538   4.147   1.118  0.7333  0.1948 -0.5741
   44MOL   H16220888   1.526   3.626   0.671  3.3596  0.9759  0.7882
   44MOL   H16320889   1.603   3.710   0.889 -0.1741 -0.1988  1.1996
   44MOL   H16420890   1.612   3.302   1.038  3.7703  0.1756 -0.0479
   44MOL   H16520891   1.530   3.223   0.827  1.3510 -0.5567  1.2014
   44MOL   H16620892   1.818   3.798   1.130  0.9348  2.7890 -0.2171
   44MOL   H16720893   1.774   4.037   1.106 -0.1602  0.4354 -0.6331
   44MOL   H16820894   1.346   3.960   1.161  1.2459  2.4273  1.1581
   44MOL   H16920895   1.405   3.708   1.170 -0.1417  0.4104  0.2948
   44MOL   C17020896   1.323   4.250   1.108 -0.6532 -0.3504  0.3803
   44MOL   C17120897   1.218   4.308   1.035  0.3914 -0.2660  0.4708
   44MOL   C17220898   1.233   4.334   0.893  0.3968 -0.8807  0.1526
   44MOL   C17320899   1.349   4.283   0.827 -0.3121  0.6830  0.1245
   44MOL   C17420900   1.447   4.219   0.909  0.5206  0.6017 -0.1144
   44MOL   C17520901   1.437   4.205   1.049 -0.5183 -0.2811  0.4205
   44MOL   S17620902   1.105   4.427   0.810  0.1659 -0.0296 -0.1850
   44MOL   O17720903   1.165   4.552   0.767  0.1513 -0.2324 -0.2085
   44MOL   O17820904   0.985   4.417   0.894 -0.2453  0.2491  0.1694
   44MOL   C17920905   1.069   4.336   0.663  0.2890 -0.0868  0.0209
   44MOL   C18020906   1.053   4.200   0.673  0.1874  0.5833 -0.3461
   44MOL   C18120907   1.007   4.117   0.565 -0.8007 -0.2408  0.6717
   44MOL   C18220908   0.971   4.181   0.444  0.0655 -0.5382  0.3734
   44MOL   C18320909   0.987   4.326   0.434  0.7619 -1.1315  0.6651
   44MOL   C18420910   1.041   4.402   0.538  0.7135  0.2648  0.3906
   44MOL   O18520911   0.908   4.120   0.333 -0.3898 -0.0512 -0.2546
   44MOL   H18620912   1.326   4.227   1.214  2.5094  0.1745  0.4534
   44MOL   H18720913   1.137   4.340   1.099  0.1150 -0.7413  0.3583
   44MOL   H18820914   1.357   4.297   0.720 -0.1258 -0.9959 -0.1009
   44MOL   H18920915   1.525   4.176   0.847  1.1786  2.3394 -0.5217
   44MOL   H19020916   1.069   4.148   0.766  1.3229 -1.1939 -1.5115
   44MOL   H19120917   0.998   4.010   0.566 -2.2262 -0.1236  3.1789
   44MOL   H19220918   0.961   4.369   0.338  0.9891 -0.4271  0.9164
   44MOL   H19320919   1.055   4.509   0.536 -0.5003  0.4095 -0.7065
   44MOL   C19420920   0.787   3.914   0.354 -0.1214  0.2703 -0.6819
   44MOL   C19520921   0.665   3.846   0.372  0.1113 -0.3040  0.4296
   44MOL   C19620922   0.549   3.923   0.378  0.2746  0.3968 -0.6917
   44MOL   C19720923   0.550   4.063   0.385  0.9116 -0.1128  0.0747
   44MOL   C19820924   0.669   4.129   0.374  0.5130  0.6460 -0.0511
   44MOL   C19920925   0.792   4.057   0.363 -0.3038 -0.6225 -0.5749
   44MOL   S20020926   0.393   3.834   0.406  0.1181 -0.2172 -0.3559
   44MOL   O20120927   0.302   3.913   0.323  0.2878  0.1941  0.2544
   44MOL   O20220928   0.356   3.810   0.551  0.0454  0.3923 -0.5207
   44MOL   C20320929   0.400   3.679   0.325 -0.0655 -0.0954 -0.3636
   44MOL   C20420930   0.385   3.558   0.396 -0.1380 -0.3451  0.3070
   44MOL   C20520931   0.389   3.438   0.323  0.0692  0.6020  0.2175
   44MOL   C20620932   0.415   3.437   0.185  0.3888  0.0807 -0.4065
   44MOL   C20720933   0.436   3.556   0.114 -0.3148  0.4020 -0.2077
   44MOL   C20820934   0.423   3.679   0.188 -0.2884  0.7626 -0.1992
   44MOL   O20920935   0.433   3.326   0.111 -0.0833 -0.7891  0.2634
   44MOL   H21020936   0.882   3.865   0.337  0.6876  1.4135  0.4674
   44MOL   H21120937   0.656   3.739   0.380 -0.3171 -0.3417 -0.4849
   44MOL   H21220938   0.459   4.119   0.398  2.8034  3.2766 -0.8265
   44MOL   H21320939   0.671   4.236   0.360  1.7501  0.7463  0.7935
   44MOL   H21420940   0.366   3.558   0.503  2.6799 -2.2592  0.8622
   44MOL   H21520941   0.386   3.341   0.371 -1.8404  1.0464  1.0431
   44MOL   H21620942   0.440   3.573   0.008  0.8847 -2.9606 -0.7544
   44MOL   H21720943   0.450   3.771   0.138  2.0905 -0.8469 -1.9773
   44MOL   C21820944   0.615   3.279   8.376 -0.2707 -0.8188 -0.3826
   44MOL   C21920945   0.730   3.207   8.346  0.5009 -1.1006  0.1183
   44MOL   C22020946   0.806   3.153   0.023 -1.2646 -0.1883 -0.5489
   44MOL   C22120947   0.760   3.161   0.160 -0.0278 -0.6167 -0.4302
   44MOL   C22220948   0.638   3.229   0.191  0.0064  0.3064  0.2242
   44MOL   C22320949   0.564   3.284   0.086 -0.5485 -0.3819 -0.1144
   44MOL   S22420950   0.955   3.055   8.403  0.1680  0.1919 -0.1040
   44MOL   O22520951   1.044   3.061   0.098 -0.5412 -0.0078  0.6937
   44MOL   O22620952   1.006   3.110   8.275  0.3680  0.2906  0.6377
   44MOL   C22720953   0.898   2.898   8.377 -0.2726 -0.3927 -0.1859
   44MOL   C22820954   0.946   2.822   8.269 -0.2608  0.2425 -0.1910
   44MOL   C22920955   0.901   2.689   8.262 -0.1292  1.0611  0.3760
   44MOL   C23020956   0.815   2.634   8.356 -0.4325 -0.3354  0.0696
   44MOL   C23120957   0.772   2.704   0.045  0.0365 -0.0723 -0.2360
   44MOL   C23220958   0.816   2.837   0.051 -0.2971 -0.5308  0.4492
   44MOL   O23320959   0.765   2.506   8.344  0.0355 -0.2821  0.4171
   44MOL   H23420960   0.556   3.310   8.291 -1.9837  0.2662  1.1699
   44MOL   H23520961   0.752   3.188   8.242 -1.6781  0.8787 -0.7432
   44MOL   H23620962   0.828   3.122   0.234 -0.3958 -0.6336 -0.1049
   44MOL   H23720963   0.605   3.229   0.294  1.5931  2.6303  0.7683
   44MOL   H23820964   1.012   2.871   8.198 -0.7002 -0.3066 -0.9769
   44MOL   H23920965   0.935   2.629   8.179 -0.0390  0.4215  0.8775
   44MOL   H24020966   0.709   2.671   0.126  0.2192 -0.5339 -0.2824
   44MOL   H24120967   0.787   2.878   0.147 -1.0984  0.7131 -0.3153
   44MOL   C24220968   0.909   2.328   8.274  0.0419  0.3491 -0.3581
   44MOL   C24320969   1.000   2.226   8.303 -0.2557  0.4237 -0.1083
   44MOL   C24420970   1.044   2.206   0.009  0.4348  0.7533 -0.0344
   44MOL   C24520971   0.975   2.274   0.114  1.0185 -0.5491 -0.5564
   44MOL   C24620972   0.889   2.382   0.089 -0.0450 -0.0352  0.2908
   44MOL   C24720973   0.852   2.409   8.377 -0.5141  1.1249  0.3250
   44MOL   S24820974   1.161   2.074   0.048 -0.3685 -0.3832  0.4088
   44MOL   O24920975   1.211   2.008   8.353  0.0293  0.1496  0.0020
   44MOL   O25020976   1.102   1.991   0.153  0.0810  0.4134  0.1398
   44MOL   C25120977   1.298   2.151   0.126  0.0089  0.4846  0.0548
   44MOL   C25220978   1.400   2.065   0.170 -0.2332 -0.2704  0.0195
   44MOL   C25320979   1.515   2.121   0.227 -0.5758 -0.2011  0.0660
   44MOL   C25420980   1.528   2.259   0.246  0.2394  0.5063 -0.0518
   44MOL   C25520981   1.427   2.344   0.199  0.9015 -0.6332 -0.5456
   44MOL   C25620982   1.314   2.289   0.136 -0.1591  0.2277  0.5618
   44MOL   O25720983   1.638   2.318   0.303 -0.6261  0.1576  0.3461
   44MOL   H25820984   0.884   2.341   8.170  3.2062  0.3666 -1.1480
   44MOL   H25920985   1.045   2.191   8.211 -1.5307 -0.8015 -0.2797
   44MOL   H26020986   0.992   2.237   0.214 -4.2123  0.6933  0.9054
   44MOL   H26120987   0.830   2.425   0.168 -0.6090 -0.6152  0.1894
   44MOL   H26220988   1.387   1.959   0.158 -1.6238 -0.4904  2.9381
   44MOL   H26320989   1.595   2.052   0.247 -1.0493 -1.1199 -1.1602
   44MOL   H26420990   1.436   2.451   0.211 -3.9836 -0.1607 -0.2930
   44MOL   H26520991   1.231   2.349   0.100 -0.2248 -0.6150 -0.7443
   44MOL   C26620992   1.786   2.500   0.269  0.7281 -0.1912  0.0819
   44MOL   C26720993   1.883   2.562   0.188 -0.6895 -0.1141  0.3260
   44MOL   C26820994   1.906   2.515   0.059  0.1458  0.6203  0.4736
   44MOL   C26920995   1.830   2.416   0.004  0.0298 -0.3291 -0.6507
   44MOL   C27020996   1.730   2.358   0.081  0.0752  0.4574 -0.4249
   44MOL   C27120997   1.715   2.394   0.215 -0.0087  0.6500  0.2688
   44MOL   S27220998   2.035   2.592   8.387 -0.5060  0.1728 -0.1257
   44MOL   O27320999   2.067   2.723   0.020  0.1003  0.0419 -0.1339
   44MOL   O27421000   1.991   2.582   8.244 -0.2230 -0.1249 -0.3127
   44MOL   C27521001   2.189   2.494   8.394 -0.0728  0.2163 -0.2108
   44MOL   C27621002   2.180   2.359   8.364 -0.3252 -0.2104 -0.8949
   44MOL   C27721003   2.293   2.271   8.342  0.3376  0.3096 -1.1563
   44MOL   C27821004   2.421   2.323   8.364  0.3074 -0.5421  0.4632
   44MOL   C27921005   2.434   2.459   8.402  0.6217 -0.2663  0.6730
   44MOL   C28021006   2.316   2.541   8.418  0.2605  0.6944 -0.2287
   44MOL   O28121007   2.531   2.242   8.356  0.1075  0.3373  0.0803
   44MOL   H28221008   1.783   2.522   0.375 -1.1465  1.4890 -0.2943
   44MOL   H28321009   1.941   2.641   0.232  2.1693 -1.6191 -0.6119
   44MOL   H28421010   1.846   2.400   8.324 -0.6706 -0.6214 -0.7130
   44MOL   H28521011   1.682   2.265   0.053 -0.3720  0.6903 -0.4479
   44MOL   H28621012   2.083   2.315   8.348  1.0122 -2.8976 -1.8983
   44MOL   H28721013   2.283   2.166   8.317 -1.2708  0.5792 -1.7112
   44MOL   H28821014   2.526   2.509   0.003 -0.6582  1.3979  2.0718
   44MOL   H28921015   2.332   2.643   0.023 -1.6904  1.2921 -1.1606
   44MOL   C29021016   2.747   2.262   8.264 -0.0860  0.0357 -0.0815
   44MOL   C29121017   2.837   2.269   8.157 -0.1827  0.0986  0.1105
   44MOL   C29221018   2.781   2.282   8.028  0.0747 -0.3556  0.1690
   44MOL   C29321019   2.637   2.281   8.007  0.4676  0.5448 -0.1462
   44MOL   C29421020   2.550   2.277   8.120  0.2730 -0.0697 -0.5937
   44MOL   C29521021   2.608   2.270   8.247  0.7276  0.0843  0.1958
   44MOL   S29621022   2.899   2.307   7.886  0.0182 -0.3890  0.1055
   44MOL   O29721023   2.974   2.433   7.912 -0.3704 -0.2336  0.2555
   44MOL   O29821024   2.831   2.293   7.760 -0.2872  0.0762  0.1311
   44MOL   C29921025   3.025   2.178   7.894  0.3218  0.3833 -0.0261
   44MOL   C30021026   2.997   2.065   7.968 -0.0308 -0.1804 -0.3433
   44MOL   C30121027   3.102   1.981   7.994  0.3456  0.1281 -0.7139
   44MOL   C30221028   3.230   1.997   7.931 -0.1373  0.1984  0.5071
   44MOL   C30321029   3.252   2.107   7.847  0.5894  0.4270  0.4133
   44MOL   C30421030   3.147   2.202   7.824  0.3206  0.1272  0.7891
   44MOL   O30521031   3.337   1.918   7.960  0.4976 -0.6314  0.0270
   44MOL   H30621032   2.783   2.253   8.365 -0.6961 -0.0230  0.1333
   44MOL   H30721033   2.944   2.252   8.167 -0.3088 -1.4344 -1.0942
   44MOL   H30821034   2.612   2.285   7.902  2.4929  0.0192 -0.6771
   44MOL   H30921035   2.445   2.280   8.097 -0.0680  1.7810  1.1138
   44MOL   H31021036   2.904   2.064   8.023 -1.3248  0.8241 -2.4385
   44MOL   H31121037   3.096   1.894   8.058  1.6189  0.3232 -0.3268
   44MOL   H31221038   3.351   2.136   7.817  0.5749 -1.1329 -1.1800
   44MOL   H31321039   3.162   2.282   7.754  0.3086  0.8992  1.6635
   44MOL   C31421040   3.348   1.778   8.149 -0.4554 -0.6326  0.3037
   44MOL   C31521041   3.346   1.649   8.211  0.3959 -0.0560  0.5875
   44MOL   C31621042   3.305   1.538   8.136 -0.1579  0.0526 -0.3121
   44MOL   C31721043   3.284   1.553   7.994  0.2665  0.1582  0.0141
   44MOL   C31821044   3.298   1.682   7.935  0.3117  1.1008 -0.2197
   44MOL   C31921045   3.319   1.797   8.014  0.1157  0.5430  1.1058
   44MOL   S32021046   3.277   1.372   8.209 -0.4700 -0.0505  0.0807
   44MOL   O32121047   3.202   1.295   8.108 -0.6469  0.3694 -0.1901
   44MOL   O32221048   3.212   1.388   8.337  0.5112  0.1512  0.2193
   44MOL   C32321049   3.438   1.295   8.236  0.2173 -0.5140  0.7699
   44MOL   C32421050   3.492   1.229   8.129 -0.0675  0.6114 -1.0118
   44MOL   C32521051   3.614   1.162   8.146  0.2855 -0.0776 -0.1205
   44MOL   C32621052   3.690   1.180   8.262  0.2149 -0.1704  0.3177
   44MOL   C32721053   3.637   1.266   8.364  0.0510  0.3840 -0.4324
   44MOL   C32821054   3.509   1.318   8.350 -0.4914 -0.0740  0.1306
   44MOL   O32921055   3.816   1.126   8.265  0.2811 -0.1617 -0.0742
   44MOL   H33021056   3.384   1.861   8.209  1.3831 -2.3992  1.7066
   44MOL   H33121057   3.361   1.636   8.317 -1.5852  1.8239  1.1449
   44MOL   H33221058   3.261   1.473   7.925 -2.4466 -0.4353  1.5793
   44MOL   H33321059   3.276   1.688   7.829 -1.2838 -0.3175  0.0058
   44MOL   H33421060   3.425   1.216   8.044  0.9352 -0.1923 -1.6891
   44MOL   H33521061   3.644   1.114   8.054 -1.5110  0.3884 -0.9748
   44MOL   H33621062   3.698   1.289   0.025  1.2526  0.0559 -1.1823
   44MOL   H33721063   3.463   1.374   0.005 -1.7385  0.1007 -0.6934
   44MOL   C33821064   3.923   1.308   8.128 -0.9743 -0.0784  0.2427
   44MOL   C33921065   4.013   1.341   8.026 -0.7039  0.1043  0.7524
   44MOL   C34021066   4.079   1.245   7.949 -0.0455  0.2991 -0.1998
   44MOL   C34121067   4.065   1.110   7.985 -0.1928  0.3943 -0.6173
   44MOL   C34221068   3.977   1.074   8.087  0.0513 -0.3150 -0.1944
   44MOL   C34321069   3.901   1.171   8.161  0.2165 -0.3947  0.4547
   44MOL   S34421070   4.179   1.281   7.808 -0.0704  0.6054 -0.2764
   44MOL   O34521071   4.313   1.231   7.852 -0.5440 -0.2409  0.8355
   44MOL   O34621072   4.155   1.423   7.773 -0.1874 -0.1549  0.4170
   44MOL   C34721073   4.114   1.187   7.674 -0.6038  0.8569  0.2072
   44MOL   C34821074   4.210   1.142   7.587  0.3922  0.2606 -0.1970
   44MOL   C34921075   4.173   1.064   7.478  0.2369  0.2574  0.4963
   44MOL   C35021076   4.036   1.018   7.464  0.1155  0.5111 -0.0224
   44MOL   C35121077   3.936   1.067   7.551 -0.2181  0.2166 -0.3530
   44MOL   C35221078   3.978   1.148   7.664 -0.0363 -0.4595  0.1609
   44MOL   O35321079   3.992   0.950   7.358 -0.1802  0.4323  0.3081
   44MOL   H35421080   3.874   1.389   8.181  0.8893  0.2774  1.4869
   44MOL   H35521081   4.015   1.443   7.990  2.0731  0.4646  1.7917
   44MOL   H35621082   4.108   1.024   7.934  1.0410  1.1791 -0.9273
   44MOL   H35721083   3.971   0.969   8.111  0.7920 -0.7475 -1.8467
   44MOL   H35821084   4.315   1.162   7.602  0.6097  0.0003 -1.2839
   44MOL   H35921085   4.256   1.036   7.416 -0.1958  0.7836 -0.3416
   44MOL   H36021086   3.832   1.041   7.545  0.8453 -4.9496  1.2160
   44MOL   H36121087   3.910   1.181   7.741 -0.1693 -4.4906  1.9030
   44MOL   C36221088   4.135   0.770   7.296  0.2150 -0.1863  0.7420
   44MOL   C36321089   4.159   0.628   7.290  0.6048 -0.3532 -0.1834
   44MOL   C36421090   4.075   0.539   7.357 -1.2132 -0.5838 -0.1104
   44MOL   C36521091   3.957   0.586   7.413  0.0266 -0.3955  0.2332
   44MOL   C36621092   3.925   0.724   7.406  1.0247 -0.2092  0.4152
   44MOL   C36721093   4.018   0.816   7.359 -0.6260 -0.3822 -0.5210
   44MOL   S36821094   4.139   0.379   7.403  0.0451  0.0336 -0.2959
   44MOL   O36921095   4.022   0.284   7.416  0.2519  0.1577 -0.2677
   44MOL   O37021096   4.232   0.392   7.517 -0.0768 -0.4973  0.0327
   44MOL   C37121097   4.230   0.318   7.261  0.0457 -0.0940 -0.5524
   44MOL   C37221098   4.167   0.222   7.180  0.1010 -0.6955 -0.8265
   44MOL   C37321099   4.246   0.159   7.077  0.7303  0.3923 -0.0988
   44MOL   C37421100   4.382   0.184   7.063  0.3863 -0.2475 -0.7653
   44MOL   C37521101   4.449   0.277   7.145  0.3876 -0.1477 -0.1113
   44MOL   C37621102   4.373   0.335   7.254  0.5767  1.0055 -0.0373
   44MOL   O37721103   4.449   0.098   6.982 -0.3514  0.9412  0.9104
   44MOL   H37821104   4.200   0.846   7.256 -1.2875  0.2367 -0.9722
   44MOL   H37921105   4.243   0.590   7.235  1.5029  1.7707 -0.3362
   44MOL   H38021106   3.892   0.515   7.462 -1.7614  1.0630  0.0387
   44MOL   H38121107   3.833   0.756   7.452  0.9118 -0.3678  0.3045
   44MOL   H38221108   4.067   0.189   7.207  0.0735 -0.2460 -0.3679
   44MOL   H38321109   4.193   0.087   7.017 -0.9319 -0.7029  2.5984
   44MOL   H38421110   4.557   0.281   7.142  0.5530 -2.0724  1.7194
   44MOL   H38521111   4.424   0.390   7.332  1.2211  2.2015 -1.2680
   44MOL   C38621112   4.534   0.241   6.808  0.5080 -0.3608  0.0090
   44MOL   C38721113   4.522   0.293   6.677 -0.0981 -0.0121 -0.1592
   44MOL   C38821114   4.440   0.229   6.585  0.1016 -1.0823 -0.4665
   44MOL   C38921115   4.360   0.124   6.626  0.1324  0.0654 -0.3887
   44MOL   C39021116   4.365   0.079   6.761  0.0635  0.0481  0.6953
   44MOL   C39121117   4.454   0.138   6.850  0.0917  0.8159  0.4731
   44MOL   S39221118   4.434   0.291   6.421 -0.1116  0.0472 -0.2100
   44MOL   O39321119   4.332   0.399   6.401 -0.3683  0.7322  0.6892
   44MOL   O39421120   4.409   0.171   6.338 -0.2656  0.4954 -0.1387
   44MOL   C39521121   4.606   0.350   6.400  0.2930  0.4369 -0.7554
   44MOL   C39621122   4.630   0.487   6.376 -0.1863  0.2150 -0.2902
   44MOL   C39721123   4.763   0.542   6.359 -0.1350  0.0502  0.6377
   44MOL   C39821124   4.868   0.446   6.373  0.7286 -1.1442 -0.2557
   44MOL   C39921125   4.846   0.310   6.394  0.2250 -0.5561  0.7912
   44MOL   C40021126   4.717   0.264   6.417  0.2484  0.7624  0.3921
   44MOL   O40121127   4.998   0.493   6.367 -0.1600  0.6970  0.0458
   44MOL   H40221128   4.600   0.288   6.880 -1.0551  1.0374  0.5455
   44MOL   H40321129   4.584   0.378   6.652  0.0180  0.4085  1.5095
   44MOL   H40421130   4.297   0.074   6.554  0.4827  0.0845 -0.7071
   44MOL   H40521131   4.301   8.424   6.794  1.2916 -0.0442  2.9736
   44MOL   H40621132   4.542   0.548   6.369  0.4828  1.4563  1.8361
   44MOL   H40721133   4.787   0.647   6.359 -2.1423  0.5603 -1.4109
   44MOL   H40821134   4.922   0.233   6.390  1.4427  0.6779 -0.8576
   44MOL   H40921135   4.711   0.159   6.440  0.8764  0.2786 -1.5317
   44MOL   C41021136   5.126   0.678   6.435 -0.5888 -0.3312  0.1820
   44MOL   C41121137   5.209   0.735   6.536  0.2733 -0.0459 -0.8908
   44MOL   C41221138   5.197   0.691   6.670  0.4095  0.4187  0.0493
   44MOL   C41321139   5.092   0.604   6.701  1.5726 -0.4092  0.1803
   44MOL   C41421140   5.017   0.545   6.601 -0.1682 -0.0686 -0.2318
   44MOL   C41521141   5.045   0.571   6.468 -0.4909 -0.3390  0.6210
   44MOL   S41621142   5.286   0.769   6.805  0.1582  0.4189 -0.0683
   44MOL   O41721143   5.411   0.825   6.752 -0.2410 -0.1334 -0.0773
   44MOL   O41821144   5.288   0.669   6.907 -0.0345 -0.1797 -0.6729
   44MOL   C41921145   5.194   0.903   6.879 -0.2760 -0.3192  0.2982
   44MOL   C42021146   5.273   1.016   6.922 -0.1452 -0.0464  0.1121
   44MOL   C42121147   5.204   1.121   6.975  0.1138 -0.6204  0.0508
   44MOL   C42221148   5.063   1.129   6.967 -0.9698 -0.2704 -0.8416
   44MOL   C42321149   4.984   1.020   6.932  0.2722  0.3713  0.8299
   44MOL   C42421150   5.052   0.896   6.890 -0.6609 -0.3134 -0.0374
   44MOL   O42521151   5.008   1.249   7.003 -0.1245 -0.0268 -0.4841
   44MOL   H42621152   5.129   0.713   6.333 -1.1412 -0.1851  0.2154
   44MOL   H42721153   5.284   0.812   6.521  1.9084 -1.3488  0.4422
   44MOL   H42821154   5.087   0.567   6.803 -0.0703  0.8349  0.5802
   44MOL   H42921155   4.966   0.453   6.627 -0.7728  0.6227  1.0487
   44MOL   H43021156   5.380   1.020   6.912 -0.2943  2.3944 -0.7399
   44MOL   H43121157   5.254   1.206   7.020 -0.6173 -0.4294  0.5125
   44MOL   H43221158   4.877   1.020   6.918  0.3342  0.2444  0.3289
   44MOL   H43321159   5.013   0.798   6.867  0.7608 -0.7373 -0.7364
   44MOL   C43421160   4.787   1.282   7.108  0.2878  0.2423 -0.9644
   44MOL   C43521161   4.710   1.274   7.230 -0.1649 -0.6727  0.5052
   44MOL   C43621162   4.768   1.235   7.355  0.9282  0.2551  1.0066
   44MOL   C43721163   4.903   1.208   7.358  0.2229 -0.4761 -0.2439
   44MOL   C43821164   4.986   1.221   7.243 -0.6928 -0.2118  0.8820
   44MOL   C43921165   4.930   1.251   7.117  0.1705 -0.2042 -0.0103
   44MOL   S44021166   4.668   1.209   7.499 -0.1868  0.0699 -0.3046
   44MOL   O44121167   4.725   1.092   7.574 -0.3171  0.2660  0.6155
   44MOL   O44221168   4.530   1.194   7.456  0.5764  0.5488  0.6212
   44MOL   C44321169   4.674   1.355   7.608  0.4215 -0.2416 -0.0573
   44MOL   C44421170   4.585   1.352   7.720 -0.0426  0.0458 -0.0008
   44MOL   C44521171   4.557   1.464   7.798 -0.5254 -0.9838 -0.6360
   44MOL   C44621172   4.619   1.581   7.760  0.2418  0.1142 -0.3026
   44MOL   C44721173   4.708   1.586   7.654  0.0149  0.1021  0.8545
   44MOL   C44821174   4.745   1.470   7.577 -0.2016 -0.5775 -0.1684
   44MOL   O44921175   4.590   1.694   7.826 -0.1962  0.1651  0.1356
   44MOL   H45021176   4.733   1.318   7.021 -0.1295  2.8550  0.3207
   44MOL   H45121177   4.605   1.299   7.237 -0.2180 -0.7020 -0.1208
   44MOL   H45221178   4.942   1.190   7.458 -0.1608 -0.4679 -0.0928
   44MOL   H45321179   5.093   1.217   7.255 -0.4799  0.9468 -0.4690
   44MOL   H45421180   4.527   1.264   7.746  0.9879 -0.7474 -0.3705
   44MOL   H45521181   4.481   1.459   7.875  0.8567  0.4704  0.8477
   44MOL   H45621182   4.746   1.685   7.635 -1.0081  0.6555  1.6175
   44MOL   H45721183   4.804   1.481   7.487 -0.6110  2.1463 -0.1669
   44MOL   C45821184   4.539   1.879   7.692 -0.3156  0.7283  0.7270
   44MOL   C45921185   4.445   1.980   7.651  0.3236  0.3093  0.5950
   44MOL   C46021186   4.309   1.964   7.686  0.2107  0.2210 -0.3513
   44MOL   C46121187   4.264   1.837   7.745  0.3660 -0.5829 -0.0211
   44MOL   C46221188   4.362   1.749   7.796  0.1305  0.1628 -0.5899
   44MOL   C46321189   4.499   1.772   7.774  0.2931 -0.3132  0.1164
   44MOL   S46421190   4.184   2.086   7.650  0.0765 -0.4455  0.1759
   44MOL   O46521191   4.254   2.206   7.607 -0.0831  0.2618 -0.2160
   44MOL   O46621192   4.087   2.085   7.760 -0.0673 -0.2480 -0.3740
   44MOL   C46721193   4.091   2.028   7.513 -0.2042  0.0474 -0.3933
   44MOL   C46821194   4.140   1.923   7.429  0.1439  0.2099  0.5543
   44MOL   C46921195   4.068   1.888   7.312  0.0468 -0.2301 -0.8781
   44MOL   C47021196   3.945   1.955   7.282 -0.1455 -0.7346  0.5353
   44MOL   C47121197   3.903   2.064   7.359  0.4061 -0.1208 -0.2601
   44MOL   C47221198   3.973   2.095   7.481 -0.6716 -0.1194 -0.2280
   44MOL   O47321199   3.865   1.920   7.179  0.2519 -0.1742  0.0686
   44MOL   H47421200   4.645   1.894   7.676  0.1696 -2.8973  0.0886
   44MOL   H47521201   4.466   2.064   7.588 -0.3560 -1.0288 -1.4534
   44MOL   H47621202   4.158   1.829   7.758  0.4262 -2.1329 -0.4876
   44MOL   H47721203   4.322   1.664   7.851  0.1007 -1.0684 -2.4584
   44MOL   H47821204   4.231   1.867   7.444 -1.6126 -3.2205 -1.0023
   44MOL   H47921205   4.100   1.806   7.250  1.5992 -0.1356 -0.2343
   44MOL   H48021206   3.813   2.120   7.337  1.7583  2.3228  0.3514
   44MOL   H48121207   3.932   2.184   7.527  0.3501  0.2368 -0.0114
   44MOL   H48221208   3.902   1.850   7.128 -1.2406 -0.7327 -0.2816
   45MOL     C121209   4.117   4.684   5.319 -0.1932  0.1482 -0.0883
   45MOL     C221210   4.252   4.647   5.342  0.4680 -0.4729 -0.3744
   45MOL     C321211   4.290   4.583   5.461  0.7821  0.3038 -0.2966
   45MOL     C421212   4.187   4.538   5.546 -0.3982 -0.4154  0.1387
   45MOL     C521213   4.049   4.564   5.520  0.0896  0.6657 -0.6471
   45MOL     C621214   4.013   4.629   5.398 -0.4881 -0.2313  0.4799
   45MOL     S721215   4.465   4.533   5.487  0.2426  0.1390 -0.2706
   45MOL     O821216   4.523   4.486   5.362  0.1408 -0.1793 -0.3335
   45MOL     O921217   4.461   4.442   5.602 -0.1355 -0.3015 -0.2156
   45MOL    C1021218   4.545   4.690   5.534  0.3061 -0.1900 -0.5378
   45MOL    C1121219   4.598   4.712   5.665 -0.2052  0.0825 -0.3713
   45MOL    C1221220   4.652   4.838   5.701  0.4332  0.1969  0.9489
   45MOL    C1321221   4.666   4.932   5.594 -0.8157 -0.2602 -0.1582
   45MOL    C1421222   4.624   4.902   5.464  0.0288 -0.2144  0.0501
   45MOL    C1521223   4.567   4.781   5.430 -0.4370  0.0416  0.5197
   45MOL    O1621224   4.717   5.056   5.629 -0.0871 -0.0631  0.1844
   45MOL    H1721225   4.094   4.731   5.224 -0.2978  1.4139  0.5659
   45MOL    H1821226   4.325   4.670   5.265  0.5567  1.7183  0.3410
   45MOL    H1921227   4.215   4.482   5.634 -1.0468 -0.3529  0.3874
   45MOL    H2021228   3.978   4.526   5.591 -0.3382  1.3550 -0.7076
   45MOL    H2121229   4.566   4.634   5.732  0.0379  0.3426  0.0563
   45MOL    H2221230   4.686   4.863   5.801  0.0834  0.7329  0.9321
   45MOL    H2321231   4.641   4.968   5.380 -0.5333 -1.2081 -0.8646
   45MOL    H2421232   4.532   4.766   5.329  0.4149  0.0576  0.2126
   45MOL    H2521233   3.910   4.634   5.365  0.4330 -1.9805 -2.9681
   45MOL    C2621234   4.778   5.097   5.847  0.4133  0.4287 -0.0551
   45MOL    C2721235   4.755   5.160   5.968 -0.0661 -0.1900  0.1370
   45MOL    C2821236   4.634   5.224   6.003 -0.5762 -1.2758  0.0967
   45MOL    C2921237   4.537   5.244   5.900 -0.1956 -0.6493  0.9694
   45MOL    C3021238   4.562   5.184   5.775  0.1713 -0.3323  0.0532
   45MOL    C3121239   4.679   5.110   5.750 -0.5541 -0.1342 -0.8487
   45MOL    S3221240   4.625   5.310   6.159 -0.4546 -0.0345  0.1232
   45MOL    O3321241   4.693   5.236   6.261  0.2295 -0.3010 -0.0599
   45MOL    O3421242   4.481   5.341   6.174 -0.1180 -0.0208 -0.2089
   45MOL    C3521243   4.704   5.465   6.127  0.2899 -0.9808  0.2978
   45MOL    C3621244   4.844   5.475   6.120 -0.2883 -0.4116 -0.6805
   45MOL    C3721245   4.905   5.600   6.099  0.3419  0.2002  0.0566
   45MOL    C3821246   4.824   5.717   6.087  0.2955  0.1986 -0.4539
   45MOL    C3921247   4.687   5.701   6.096 -0.0262  0.2820 -0.6313
   45MOL    C4021248   4.622   5.578   6.115  0.3511  0.5010  0.4746
   45MOL    O4121249   4.876   5.838   6.074 -0.5811 -0.5768  0.1462
   45MOL    H4221250   4.866   5.035   5.838  0.8734  0.9745  0.5730
   45MOL    H4321251   4.822   5.149   6.052  1.4531 -1.5829 -1.2216
   45MOL    H4421252   4.457   5.317   5.904  1.5098  1.4079 -1.3552
   45MOL    H4521253   4.486   5.210   5.703 -0.0592  0.4166  0.5662
   45MOL    H4621254   4.904   5.391   6.152  0.1812  0.7513  1.5914
   45MOL    H4721255   5.012   5.611   6.087  0.8776 -1.5800  2.7097
   45MOL    H4821256   4.631   5.793   6.104  0.4731  0.6896 -1.6089
   45MOL    H4921257   4.514   5.573   6.120  0.3962 -0.0395  0.9358
   45MOL    C5021258   4.877   5.873   6.320 -0.0375 -0.2965  0.1439
   45MOL    C5121259   4.901   5.958   6.432  0.1822  0.3521  0.4540
   45MOL    C5221260   4.923   6.099   6.409  0.4522 -0.0587 -0.3144
   45MOL    C5321261   4.914   6.148   6.279  0.0759  0.3667 -0.3200
   45MOL    C5421262   4.902   6.066   6.168  0.1180 -0.4789  0.3930
   45MOL    C5521263   4.879   5.925   6.185  0.1260 -0.5307 -0.1954
   45MOL    S5621264   4.933   6.211   6.557  0.4079  0.0203 -0.0580
   45MOL    O5721265   4.959   6.125   6.678  0.2719  0.3392 -0.5976
   45MOL    O5821266   4.814   6.294   6.546  0.6830 -0.0376  0.3503
   45MOL    C5921267   5.072   6.316   6.531 -0.4746  0.3684 -0.5289
   45MOL    C6021268   5.187   6.262   6.471 -0.1147  0.1806  0.5438
   45MOL    C6121269   5.305   6.341   6.455 -0.0669 -0.3480 -0.8915
   45MOL    C6221270   5.298   6.481   6.503  0.4898  0.4092  0.1851
   45MOL    C6321271   5.175   6.528   6.553 -0.0876 -0.2128  0.0782
   45MOL    C6421272   5.060   6.452   6.567 -0.7042 -0.1536 -0.7756
   45MOL    O6521273   5.408   6.558   6.482 -0.2935  0.2974 -0.3418
   45MOL    H6621274   4.860   5.770   6.350 -0.9879  0.0430  0.7851
   45MOL    H6721275   4.872   5.923   6.530 -1.3160 -1.4187 -0.6122
   45MOL    H6821276   4.911   6.254   6.258  1.4914  1.1080  2.9363
   45MOL    H6921277   4.879   6.112   6.073  1.6698  2.0902  1.2192
   45MOL    H7021278   5.204   6.160   6.440  2.8565  1.0053 -0.6556
   45MOL    H7121279   5.401   6.304   6.421  0.9200  0.2396  1.1406
   45MOL    H7221280   5.171   6.630   6.588  2.4607 -0.1140  0.1802
   45MOL    H7321281   4.975   6.482   6.627 -0.6425 -2.5870  0.5922
   45MOL    C7421282   5.397   6.620   6.250 -0.0399  0.1790 -0.2150
   45MOL    C7521283   5.379   6.714   6.156 -0.5391 -0.7965 -0.6297
   45MOL    C7621284   5.340   6.843   6.191  0.0537 -0.1345  0.2318
   45MOL    C7721285   5.332   6.882   6.327 -0.2604  0.1682 -0.6963
   45MOL    C7821286   5.363   6.785   6.422 -0.6552  0.6083 -0.4697
   45MOL    C7921287   5.384   6.652   6.386 -0.5210  0.0436 -1.0546
   45MOL    S8021288   5.310   6.964   6.072 -0.2009  0.0844  0.2394
   45MOL    O8121289   5.249   7.082   6.133  0.0872  0.1622 -0.1305
   45MOL    O8221290   5.235   6.892   5.968 -0.1821  0.2476 -0.3914
   45MOL    C8321291   5.474   7.014   6.022 -0.0987  0.5085  0.5299
   45MOL    C8421292   5.567   7.063   6.117 -0.2890  0.2116  0.5887
   45MOL    C8521293   5.702   7.103   6.082  0.5491 -0.2640  0.6502
   45MOL    C8621294   5.748   7.076   5.950  0.4446 -0.1377 -0.0927
   45MOL    C8721295   5.654   7.029   5.852 -1.0397 -0.3048  0.5668
   45MOL    C8821296   5.521   6.995   5.889  0.4307  0.4990  0.9731
   45MOL    O8921297   5.883   7.107   5.913  0.3838 -0.3657  0.0038
   45MOL    H9021298   5.414   6.516   6.225  0.4814  0.3447 -0.5673
   45MOL    H9121299   5.390   6.683   6.053  0.6635  1.8321 -1.3485
   45MOL    H9221300   5.310   6.981   6.364  1.6297  0.8239 -1.2914
   45MOL    H9321301   5.364   6.814   6.526 -1.0998 -0.3217 -0.2000
   45MOL    H9421302   5.555   7.058   6.224 -0.5920  0.2453  0.5559
   45MOL    H9521303   5.754   7.156   6.160 -0.7956  2.7866 -0.4178
   45MOL    H9621304   5.692   7.018   5.752 -1.0699  1.4547  0.3553
   45MOL    H9721305   5.462   6.937   5.819  1.5077  0.8073 -0.2179
   45MOL    C9821306   6.021   7.300   5.942 -0.4856  0.5157  0.8602
   45MOL    C9921307   6.072   7.422   5.899  0.3513 -0.5632 -0.0452
   45MOL   C10021308   6.027   7.479   5.777 -0.7891  0.5708  0.2290
   45MOL   C10121309   5.924   7.417   5.706 -0.0917 -0.3694 -0.7076
   45MOL   C10221310   5.865   7.298   5.750  0.3165  0.3955 -0.1909
   45MOL   C10321311   5.916   7.235   5.871 -0.0884  0.4302 -0.1188
   45MOL   S10421312   6.119   7.620   5.714  0.4369  0.3463  0.4029
   45MOL   O10521313   6.222   7.671   5.812  0.0825 -0.1784 -0.5269
   45MOL   O10621314   6.014   7.702   5.657 -0.6634  0.3519 -0.7384
   45MOL   C10721315   6.207   7.548   5.572  0.8971  0.0330 -0.2256
   45MOL   C10821316   6.264   7.417   5.581  0.1762 -0.4835 -0.2586
   45MOL   C10921317   6.335   7.357   5.477  0.0003  0.7250  0.9006
   45MOL   C11021318   6.352   7.434   5.356  0.1781  0.0230 -0.4947
   45MOL   C11121319   6.301   7.566   5.346  0.3873 -0.1261 -0.1105
   45MOL   C11221320   6.225   7.625   5.453 -0.0703 -0.0026  0.1683
   45MOL   O11321321   6.423   7.384   5.249 -0.0264  0.2494 -0.0805
   45MOL   H11421322   6.048   7.260   6.038 -0.7936  0.1377  0.7923
   45MOL   H11521323   6.151   7.472   5.953 -1.9866  3.2675 -0.0282
   45MOL   H11621324   5.894   7.463   5.613 -0.8278 -1.6435 -1.1104
   45MOL   H11721325   5.805   7.238   5.684 -0.0658 -1.3948  1.7052
   45MOL   H11821326   6.242   7.357   5.668 -3.7932 -0.0359 -0.8580
   45MOL   H11921327   6.375   7.257   5.478 -1.7038 -0.0924 -3.1443
   45MOL   H12021328   6.320   7.626   5.258  0.1131 -3.5882 -2.6292
   45MOL   H12121329   6.186   7.725   5.455  0.6755  0.2821  0.6722
   45MOL   C12221330   6.305   7.182   5.193 -0.1770  0.8255 -0.4341
   45MOL   C12321331   6.222   7.111   5.102  0.8025 -0.1195  0.0274
   45MOL   C12421332   6.198   7.158   4.975  0.2148  0.1300  0.4821
   45MOL   C12521333   6.243   7.285   4.934 -0.1156 -0.6156 -0.2632
   45MOL   C12621334   6.320   7.359   5.030  0.6972  0.4452  0.6746
   45MOL   C12721335   6.350   7.311   5.161  0.1639 -0.6441 -0.7211
   45MOL   S12821336   6.116   7.041   4.857  0.1514  0.0843  0.3192
   45MOL   O12921337   6.037   6.946   4.937  0.2434  0.5381 -0.0388
   45MOL   O13021338   6.209   6.992   4.753 -0.1664  0.1675 -0.2613
   45MOL   C13121339   5.985   7.119   4.766  0.2703 -0.0888  0.0246
   45MOL   C13221340   5.861   7.149   4.826 -0.2944 -0.6603  0.5256
   45MOL   C13321341   5.751   7.211   4.753 -0.0267  0.6957 -1.0419
   45MOL   C13421342   5.767   7.229   4.615  0.9493  0.1353  0.6541
   45MOL   C13521343   5.899   7.218   4.559  0.2278 -0.7428 -0.2532
   45MOL   C13621344   6.003   7.168   4.634 -0.1454 -0.3334  0.6903
   45MOL   O13721345   5.658   7.272   4.547  0.4796  0.7443 -0.1691
   45MOL   H13821346   6.317   7.143   5.293 -0.2290  1.0960 -0.3214
   45MOL   H13921347   6.201   7.007   5.125  0.1318 -0.2235 -1.0649
   45MOL   H14021348   6.235   7.318   4.831  1.2801 -0.3481 -0.2921
   45MOL   H14121349   6.369   7.448   4.994  0.9298  0.2311  0.4647
   45MOL   H14221350   5.847   7.121   4.930 -0.0916 -0.9659  0.4719
   45MOL   H14321351   5.663   7.233   4.811 -0.0121  1.8344 -1.4416
   45MOL   H14421352   5.924   7.251   4.459  2.0295 -0.2184  0.3433
   45MOL   H14521353   6.100   7.159   4.589 -0.5949  0.4154 -0.4210
   45MOL   C14621354   5.652   7.408   4.352  0.0783 -0.5048 -0.0223
   45MOL   C14721355   5.662   7.534   4.294  0.3828 -0.0786  0.0856
   45MOL   C14821356   5.699   7.649   4.370 -0.2932 -0.2017  0.1248
   45MOL   C14921357   5.728   7.635   4.511 -0.2917  0.4638 -0.0819
   45MOL   C15021358   5.702   7.512   4.575  0.3067  0.1874 -0.3469
   45MOL   C15121359   5.666   7.400   4.492  0.1122 -0.0975 -0.1837
   45MOL   S15221360   5.725   7.808   4.282 -0.0157 -0.0129  0.4526
   45MOL   O15321361   5.761   7.785   4.139 -0.3993  0.1192  0.0948
   45MOL   O15421362   5.818   7.891   4.364 -0.3187 -0.0484 -0.1720
   45MOL   C15521363   5.560   7.886   4.289  0.0100  0.0205 -0.7212
   45MOL   C15621364   5.454   7.824   4.223 -0.5744 -1.1184 -0.4736
   45MOL   C15721365   5.323   7.880   4.235 -0.4994  0.0490  0.3195
   45MOL   C15821366   5.295   7.998   4.311  0.5720 -0.1712 -0.3083
   45MOL   C15921367   5.401   8.050   4.394 -0.9236  0.0377 -0.1208
   45MOL   C16021368   5.535   7.996   4.377 -0.4978  0.3199  0.4058
   45MOL   O16121369   5.166   8.046   4.336 -0.4847  0.6307  0.0942
   45MOL   H16221370   5.626   7.326   4.286 -0.3662  0.3959 -0.9796
   45MOL   H16321371   5.666   7.539   4.186  2.3572 -0.6550  0.1110
   45MOL   H16421372   5.773   7.710   4.574  0.5853 -0.4904  0.4469
   45MOL   H16521373   5.735   7.502   4.678  3.6338 -0.9817 -1.4534
   45MOL   H16621374   5.469   7.733   4.167  0.2718 -1.7045  0.6864
   45MOL   H16721375   5.244   7.836   4.175  0.9728  1.1073 -2.4803
   45MOL   H16821376   5.379   8.125   4.468  0.2320 -1.3307  1.6347
   45MOL   H16921377   5.614   8.043   4.434  1.6518  0.1921 -2.3937
   45MOL   C17021378   5.076   7.851   4.427 -0.3082  0.0892  0.6240
   45MOL   C17121379   4.965   7.763   4.443  0.6605 -0.0016  0.2271
   45MOL   C17221380   4.846   7.787   4.370 -0.3834 -0.0366  0.4250
   45MOL   C17321381   4.835   7.906   4.290  0.2472  0.4407 -0.1003
   45MOL   C17421382   4.946   7.990   4.272  0.6911 -0.4644 -0.8685
   45MOL   C17521383   5.065   7.957   4.342 -0.3958 -0.1219 -0.3627
   45MOL   S17621384   4.708   7.666   4.363  0.6563  0.2214  0.2129
   45MOL   O17721385   4.587   7.747   4.385 -0.3224 -0.0594 -0.4141
   45MOL   O17821386   4.731   7.548   4.448 -0.1804  0.6284 -0.5668
   45MOL   C17921387   4.708   7.610   4.191  0.7460  0.0516 -0.1061
   45MOL   C18021388   4.682   7.703   4.085  1.1068  0.4254  0.2855
   45MOL   C18121389   4.701   7.670   3.949  0.3969  0.2081  0.1941
   45MOL   C18221390   4.758   7.541   3.918 -0.2121 -0.0943  1.0348
   45MOL   C18321391   4.785   7.450   4.022  0.2043  0.4731  0.2031
   45MOL   C18421392   4.765   7.488   4.155  0.1067  0.0601 -0.5077
   45MOL   O18521393   4.791   7.498   3.796 -0.2835  0.6879  0.4091
   45MOL   H18621394   5.175   7.826   4.459  0.1158  1.6483  0.5826
   45MOL   H18721395   4.982   7.669   4.495  1.5446 -0.4942 -0.9236
   45MOL   H18821396   4.748   7.925   4.228 -0.1241  0.3120  0.3816
   45MOL   H18921397   4.934   8.079   4.212 -0.0047 -0.5808 -0.9121
   45MOL   H19021398   4.641   7.802   4.096  0.8675  0.3966 -0.3050
   45MOL   H19121399   4.674   7.745   3.876  0.7970  1.4717  1.3047
   45MOL   H19221400   4.826   7.351   4.010 -0.9021 -0.2700  2.2841
   45MOL   H19321401   4.795   7.419   4.233 -2.0441 -1.1967 -0.7615
   45MOL   C19421402   4.806   7.647   3.605  0.2635  0.1687  0.3704
   45MOL   C19521403   4.765   7.686   3.473  0.4776 -0.4196 -0.5194
   45MOL   C19621404   4.649   7.627   3.422 -0.1365  0.1694  0.6890
   45MOL   C19721405   4.575   7.540   3.502  0.4487  0.1435 -0.0172
   45MOL   C19821406   4.612   7.504   3.634 -0.3695 -0.7623 -0.7370
   45MOL   C19921407   4.739   7.549   3.683 -0.3300 -0.0008  0.7137
   45MOL   S20021408   4.584   7.655   3.256  0.1131 -0.1980 -0.0030
   45MOL   O20121409   4.561   7.524   3.192 -0.4284 -0.0376  0.1327
   45MOL   O20221410   4.675   7.756   3.194  0.0190 -0.3006 -0.0495
   45MOL   C20321411   4.419   7.733   3.285  0.1453  0.9951  0.0221
   45MOL   C20421412   4.403   7.871   3.272 -0.3252 -0.3840 -0.2592
   45MOL   C20521413   4.277   7.928   3.296  0.7003 -1.0218  0.2090
   45MOL   C20621414   4.167   7.850   3.325  0.1052  0.2939 -0.8342
   45MOL   C20721415   4.180   7.708   3.322 -0.6058 -0.4381  0.1188
   45MOL   C20821416   4.308   7.652   3.304 -0.1832  0.7760 -0.0447
   45MOL   O20921417   4.046   7.905   3.353  0.3744  0.3171  0.1351
   45MOL   H21021418   4.894   7.690   3.649 -0.0274  1.4221 -0.2495
   45MOL   H21121419   4.821   7.754   3.410 -1.4413  0.4912 -1.2865
   45MOL   H21221420   4.481   7.501   3.467 -0.2745  1.1272  0.7932
   45MOL   H21321421   4.556   7.428   3.687 -0.1937  0.0968  0.6916
   45MOL   H21421422   4.491   7.929   3.249  0.0010 -0.9954 -0.5806
   45MOL   H21521423   4.266   8.035   3.290 -1.7631 -1.1417  1.9754
   45MOL   H21621424   4.098   7.640   3.340  0.2484 -1.5930 -0.3048
   45MOL   H21721425   4.316   7.544   3.312 -0.4112  0.8834  1.9379
   45MOL   C21821426   3.872   7.808   3.488  0.1092  1.1164  0.4662
   45MOL   C21921427   3.826   7.771   3.617  0.1319 -0.5590 -0.3920
   45MOL   C22021428   3.889   7.827   3.725  0.4404  0.1536 -0.3102
   45MOL   C22121429   4.007   7.901   3.715  0.4256 -0.3617 -0.1966
   45MOL   C22221430   4.058   7.934   3.589 -0.1824 -0.2722  0.3420
   45MOL   C22321431   3.992   7.881   3.477 -0.3525 -0.1158  0.0878
   45MOL   S22421432   3.793   7.809   3.889 -0.2745 -0.0296  0.7080
   45MOL   O22521433   3.655   7.761   3.858 -0.2060 -0.4759 -0.2567
   45MOL   O22621434   3.813   7.935   3.964 -0.4904 -0.8742  0.6964
   45MOL   C22721435   3.880   7.681   3.971 -0.0258  1.1543  0.2595
   45MOL   C22821436   3.930   7.698   4.100 -0.3813  0.7368 -0.5608
   45MOL   C22921437   3.967   7.583   4.169  1.0868  0.5312  0.0436
   45MOL   C23021438   3.966   7.450   4.112 -0.1561 -0.0383  0.3828
   45MOL   C23121439   3.922   7.444   3.984  0.6957 -0.4151  0.7059
   45MOL   C23221440   3.874   7.556   3.909 -0.2757  0.7140 -0.1731
   45MOL   O23321441   4.015   7.332   4.172 -0.3187  0.1811  0.6474
   45MOL   H23421442   3.821   7.781   3.396  1.2787  0.0171  0.1300
   45MOL   H23521443   3.733   7.717   3.629  0.7500 -1.5886 -0.1367
   45MOL   H23621444   4.057   7.946   3.800  0.8608  2.8897 -2.0643
   45MOL   H23721445   4.148   7.994   3.592  0.0744 -0.6763  0.7714
   45MOL   H23821446   3.919   7.794   4.148 -0.4792  0.3672  0.1552
   45MOL   H23921447   3.994   7.599   4.272  2.9202 -1.3656 -0.0817
   45MOL   H24021448   3.916   7.347   3.937 -0.7513 -1.2400  2.5476
   45MOL   H24121449   3.833   7.544   3.810 -2.9755  0.7156  0.9052
   45MOL   C24221450   3.857   7.232   4.329  0.0407  0.0494 -0.5078
   45MOL   C24321451   3.824   7.182   4.455  0.3903 -0.8371 -0.4900
   45MOL   C24421452   3.918   7.197   4.556 -0.2608 -0.2043  0.0594
   45MOL   C24521453   4.047   7.254   4.537 -0.0843  0.3644 -0.0052
   45MOL   C24621454   4.073   7.316   4.410 -0.0670 -0.0446  0.8013
   45MOL   C24721455   3.984   7.297   4.300 -0.6166  0.4454 -0.0838
   45MOL   S24821456   3.867   7.134   4.711  0.1701  0.2896  0.3095
   45MOL   O24921457   3.985   7.064   4.759 -0.1378 -0.0963  0.1071
   45MOL   O25021458   3.737   7.066   4.702 -0.8537 -0.7943  0.1464
   45MOL   C25121459   3.850   7.280   4.813 -0.1601  0.2516  0.7083
   45MOL   C25221460   3.956   7.323   4.903 -0.3456  0.3281 -0.0485
   45MOL   C25321461   3.938   7.448   4.963  0.3240 -0.2864  0.2714
   45MOL   C25421462   3.825   7.530   4.931 -0.8165  1.0114 -0.1661
   45MOL   C25521463   3.725   7.480   4.848 -0.4530 -0.3007  0.5725
   45MOL   C25621464   3.733   7.352   4.794 -0.1025  0.5367  0.0206
   45MOL   O25721465   3.807   7.651   4.989  0.1594 -0.2126 -0.0747
   45MOL   H25821466   3.782   7.232   4.250 -1.7618 -0.7530  1.1607
   45MOL   H25921467   3.728   7.136   4.470  0.0919  0.1756  0.7727
   45MOL   H26021468   4.123   7.250   4.614 -1.2952 -0.0800  1.2022
   45MOL   H26121469   4.168   7.363   4.389 -0.3033 -0.5258 -1.5327
   45MOL   H26221470   4.043   7.260   4.921 -1.6105 -1.0919  1.2142
   45MOL   H26321471   4.013   7.489   5.028 -0.4289  1.3487  0.1199
   45MOL   H26421472   3.640   7.545   4.831 -1.4446 -1.1555  2.1096
   45MOL   H26521473   3.657   7.303   4.734  0.4309  0.5937 -0.7068
   45MOL   C26621474   3.854   7.875   5.046 -0.4490  0.0750  0.7113
   45MOL   C26721475   3.937   7.985   5.049 -0.0761  0.0136  0.4296
   45MOL   C26821476   4.055   7.981   4.974  0.0474 -0.2435 -0.8793
   45MOL   C26921477   4.093   7.862   4.911 -0.3155 -0.1442  0.0023
   45MOL   C27021478   4.020   7.741   4.919  0.0309  0.3756 -0.5585
   45MOL   C27121479   3.892   7.756   4.985 -0.0249  0.1313 -0.5957
   45MOL   S27221480   4.156   8.133   4.953 -0.0530  0.1193 -0.0349
   45MOL   O27321481   4.273   8.105   4.867 -0.1763 -0.2753  0.1977
   45MOL   O27421482   4.177   8.180   5.090  0.1504  0.1656  0.0687
   45MOL   C27521483   4.057   8.260   4.871 -0.3523 -0.4016  0.6687
   45MOL   C27621484   4.061   8.391   4.913 -0.0049 -0.0555 -0.1418
   45MOL   C27721485   3.978   0.061   4.849  0.1431 -0.6834 -0.2429
   45MOL   C27821486   3.880   0.019   4.750  0.3710 -0.4115 -0.4628
   45MOL   C27921487   3.888   8.317   4.699  1.1979 -0.8810 -0.7885
   45MOL   C28021488   3.974   8.220   4.762  0.3402 -0.2091 -0.3722
   45MOL   O28121489   3.784   0.101   4.710  0.1217 -0.3979 -0.3459
   45MOL   H28221490   3.758   7.872   5.097  0.6820 -0.5786  2.8461
   45MOL   H28321491   3.904   8.069   5.108  1.9082  2.4836 -1.9154
   45MOL   H28421492   4.185   7.869   4.854 -0.3035  3.8907  0.3882
   45MOL   H28521493   4.051   7.653   4.865 -0.5550  0.6305 -1.3122
   45MOL   H28621494   4.131   0.003   4.986 -0.9204  0.6626  0.3684
   45MOL   H28721495   3.985   0.163   4.883  3.2892 -0.5432 -1.1458
   45MOL   H28821496   3.820   8.279   4.624  0.2111  1.5860 -1.1888
   45MOL   H28921497   3.965   8.114   4.739  1.1185 -0.3998  0.1809
   45MOL   C29021498   3.903   0.220   4.561 -1.1408  0.2228  0.0775
   45MOL   C29121499   3.939   0.273   4.438  0.3176 -0.2506  0.4110
   45MOL   C29221500   3.856   0.238   4.334 -0.4563  0.3648  0.3158
   45MOL   C29321501   3.737   0.166   4.353 -0.1766  0.9241 -0.3791
   45MOL   C29421502   3.709   0.112   4.477  0.7032  0.6542 -0.0403
   45MOL   C29521503   3.797   0.137   4.584 -0.0560 -0.9903 -0.0499
   45MOL   S29621504   3.893   0.295   4.165  0.2129 -0.5159  0.0726
   45MOL   O29721505   3.847   0.432   4.155 -0.2087 -0.3488  0.3514
   45MOL   O29821506   3.842   0.196   4.067  0.0345 -0.5075  0.0229
   45MOL   C29921507   4.071   0.287   4.148 -0.0023 -0.9001 -0.5453
   45MOL   C30021508   4.140   0.380   4.072  0.4336 -0.0777  0.2149
   45MOL   C30121509   4.284   0.366   4.058  0.1272 -0.1843  0.2584
   45MOL   C30221510   4.354   0.264   4.117 -0.3699 -0.5150 -0.4119
   45MOL   C30321511   4.288   0.169   4.201 -0.3646 -0.1748 -0.2498
   45MOL   C30421512   4.144   0.181   4.208  0.3042 -0.0753 -0.4039
   45MOL   O30521513   4.493   0.259   4.100  0.1328 -0.5921 -0.3990
   45MOL   H30621514   3.968   0.253   4.640 -2.6786 -0.8244  1.8163
   45MOL   H30721515   4.019   0.345   4.436  0.7928 -0.7721  0.7016
   45MOL   H30821516   3.655   0.154   4.283  0.0848 -1.0934 -0.3527
   45MOL   H30921517   3.615   0.061   4.491  0.3695  1.3929  0.4339
   45MOL   H31021518   4.086   0.459   4.021  1.3129 -0.4672 -1.3671
   45MOL   H31121519   4.336   0.433   3.991 -2.1625  1.3683 -0.0136
   45MOL   H31221520   4.342   0.092   4.254  0.3725 -0.6351 -1.6598
   45MOL   H31321521   4.091   0.105   4.264 -0.7579  0.8545 -0.1413
   45MOL   C31421522   4.574   0.387   4.293  0.6590 -0.6770  0.1132
   45MOL   C31521523   4.670   0.476   4.346  0.1969 -0.0359 -0.4099
   45MOL   C31621524   4.744   0.560   4.260  0.4112  0.3273  0.5606
   45MOL   C31721525   4.737   0.544   4.119 -0.1210  0.1305 -0.4453
   45MOL   C31821526   4.654   0.440   4.070 -0.4449 -0.3226 -0.3271
   45MOL   C31921527   4.569   0.360   4.157 -1.1196 -0.5601 -0.0850
   45MOL   S32021528   4.862   0.678   4.328  0.4417 -0.3451  0.2612
   45MOL   O32121529   4.967   0.693   4.231 -0.2911  0.0449  0.3993
   45MOL   O32221530   4.888   0.640   4.468  0.3494  0.0484  0.4571
   45MOL   C32321531   4.780   0.839   4.337  0.1864  0.1631  0.3984
   45MOL   C32421532   4.719   0.898   4.227  0.3413 -0.2486  0.0640
   45MOL   C32521533   4.656   1.024   4.239 -0.0533 -0.1212  0.5054
   45MOL   C32621534   4.666   1.096   4.354  0.3216 -0.4244  0.8030
   45MOL   C32721535   4.735   1.048   4.468  0.4207 -0.5758 -0.3745
   45MOL   C32821536   4.797   0.918   4.459  0.1119 -0.5478 -0.2798
   45MOL   O32921537   4.601   1.213   4.359 -0.4620 -0.0095 -0.1166
   45MOL   H33021538   4.516   0.336   4.369 -2.8037  0.0562 -1.9113
   45MOL   H33121539   4.674   0.494   4.452 -0.6258  3.3879 -0.9017
   45MOL   H33221540   4.799   0.603   4.053  1.3088  0.6416  1.3137
   45MOL   H33321541   4.658   0.409   3.967 -0.2115 -0.4051 -0.2918
   45MOL   H33421542   4.708   0.836   4.139 -0.6524  0.3296 -0.2346
   45MOL   H33521543   4.599   1.059   4.154 -3.0498 -2.2932  1.5226
   45MOL   H33621544   4.741   1.097   4.564 -1.3448 -3.3948  1.2579
   45MOL   H33721545   4.849   0.872   4.541 -0.9736 -0.2394  0.5921
   45MOL   C33821546   4.521   1.336   4.548 -0.3173 -0.3186 -0.0990
   45MOL   C33921547   4.422   1.368   4.647 -0.5356 -0.0934  0.4355
   45MOL   C34021548   4.301   1.298   4.652  0.5920  1.5176 -0.3414
   45MOL   C34121549   4.279   1.196   4.555 -0.5023 -0.3347  0.8861
   45MOL   C34221550   4.374   1.168   4.453  0.4635 -0.9190 -0.6544
   45MOL   C34321551   4.500   1.235   4.454  0.0142  0.5769  0.2913
   45MOL   S34421552   4.176   1.323   4.773 -0.4299  0.0851 -0.3621
   45MOL   O34521553   4.153   1.196   4.841  0.4583  0.2014  0.4441
   45MOL   O34621554   4.067   1.394   4.702  0.0659 -0.2361  0.6014
   45MOL   C34721555   4.257   1.433   4.886 -1.4529  0.0107 -0.7575
   45MOL   C34821556   4.347   1.376   4.980 -0.0271 -0.0985  0.8658
   45MOL   C34921557   4.427   1.464   5.059  0.3786 -0.0270  0.1783
   45MOL   C35021558   4.407   1.606   5.048  0.9753  0.0788 -0.4715
   45MOL   C35121559   4.318   1.657   4.953 -0.1856 -0.1935 -0.5689
   45MOL   C35221560   4.243   1.573   4.871 -0.1665  0.5503 -0.6654
   45MOL   O35321561   4.486   1.689   5.127 -0.5266 -0.4289 -0.1671
   45MOL   H35421562   4.619   1.381   4.538 -1.1694  1.4941 -0.4185
   45MOL   H35521563   4.458   1.447   4.711  1.7783  0.8276 -1.8673
   45MOL   H35621564   4.185   1.143   4.558 -0.3014 -1.1722 -4.4293
   45MOL   H35721565   4.351   1.096   4.375 -0.5943 -0.6677 -0.5731
   45MOL   H35821566   4.345   1.268   4.987 -0.2081 -0.0269  1.9524
   45MOL   H35921567   4.509   1.440   5.125  0.3278  1.3446  0.7626
   45MOL   H36021568   4.311   1.764   4.940  1.0759 -0.0573 -0.2253
   45MOL   H36121569   4.169   1.615   4.806 -1.2693  0.0196  0.2241
   45MOL   C36221570   4.711   1.667   5.189 -0.2721 -0.0001  1.4720
   45MOL   C36321571   4.845   1.673   5.164  0.5598  0.3996 -0.6080
   45MOL   C36421572   4.894   1.717   5.040 -0.0370 -0.3065  0.2792
   45MOL   C36521573   4.805   1.751   4.938 -0.2890  0.0632  0.0571
   45MOL   C36621574   4.671   1.735   4.957  0.1306  0.9048 -0.2320
   45MOL   C36721575   4.621   1.694   5.089  0.1785 -0.1955  0.2874
   45MOL   S36821576   5.073   1.746   5.023  0.2436 -0.1908 -0.9460
   45MOL   O36921577   5.139   1.627   5.079  0.5691 -0.3069  0.2935
   45MOL   O37021578   5.097   1.877   5.090  0.1731  0.3241 -0.0753
   45MOL   C37121579   5.098   1.772   4.859  0.4753 -0.4321 -0.5333
   45MOL   C37221580   5.087   1.659   4.771 -0.6791  0.2446 -0.1848
   45MOL   C37321581   5.097   1.688   4.634  0.0964 -0.0195 -0.7532
   45MOL   C37421582   5.117   1.825   4.595  0.0599  0.2254 -0.4153
   45MOL   C37521583   5.150   1.930   4.689 -0.2100 -0.6852  0.0392
   45MOL   C37621584   5.129   1.908   4.822 -0.3380  0.0695  0.1538
   45MOL   O37721585   5.100   1.859   4.466 -0.4134  0.2870  0.4558
   45MOL   H37821586   4.683   1.633   5.288  2.2310  0.5942  2.4247
   45MOL   H37921587   4.907   1.660   5.251 -0.9684  3.3990  1.0064
   45MOL   H38021588   4.838   1.780   4.839  1.1431  1.8047  1.0161
   45MOL   H38121589   4.604   1.765   4.878  0.1395 -0.0169 -0.5931
   45MOL   H38221590   5.064   1.556   4.794  0.9311 -0.1546 -0.2620
   45MOL   H38321591   5.086   1.605   4.565  2.7838 -1.5022  0.4908
   45MOL   H38421592   5.161   2.032   4.656 -0.6575 -0.1813  1.3932
   45MOL   H38521593   5.139   1.991   4.890  0.9251  0.2179 -0.1941
   45MOL   C38621594   4.905   1.790   4.354  0.1904  0.3472 -0.5706
   45MOL   C38721595   4.772   1.815   4.315 -0.3045 -0.7627  0.0167
   45MOL   C38821596   4.702   1.933   4.359 -0.0220  0.5001  0.3376
   45MOL   C38921597   4.766   2.022   4.447  0.5314 -0.1053  0.6234
   45MOL   C39021598   4.896   1.994   4.491 -0.1894 -0.0568  0.2866
   45MOL   C39121599   4.967   1.880   4.438 -0.7641 -0.8215  0.1380
   45MOL   S39221600   4.541   1.975   4.304 -0.0049  0.3628 -0.0293
   45MOL   O39321601   4.489   1.849   4.254  0.3096  0.1482  0.9869
   45MOL   O39421602   4.545   2.086   4.214 -0.0428  0.1133  0.7346
   45MOL   C39521603   4.438   2.020   4.451 -0.5868 -0.4098 -0.3768
   45MOL   C39621604   4.432   1.927   4.565  0.5616 -0.2469  0.4583
   45MOL   C39721605   4.354   1.961   4.675 -0.8597  0.4905  0.0080
   45MOL   C39821606   4.275   2.081   4.680 -0.4123  0.5282  0.0351
   45MOL   C39921607   4.285   2.164   4.570  0.5702  0.2899  0.1916
   45MOL   C40021608   4.359   2.136   4.455  0.4372  0.0502  0.8157
   45MOL   O40121609   4.182   2.114   4.774 -0.0735  0.3293 -0.7481
   45MOL   H40221610   4.965   1.712   4.309 -2.4864 -1.1587 -1.6194
   45MOL   H40321611   4.728   1.740   4.251 -1.3429 -1.0101  0.9996
   45MOL   H40421612   4.711   2.109   4.481 -0.4072 -1.4825  2.7599
   45MOL   H40521613   4.952   2.058   4.558  0.4645  0.1913 -0.4896
   45MOL   H40621614   4.487   1.834   4.563  1.6941  0.3950  1.2089
   45MOL   H40721615   4.339   1.891   4.756 -1.1250  1.0965  0.4859
   45MOL   H40821616   4.223   2.252   4.568 -0.1731 -0.2458 -0.6177
   45MOL   H40921617   4.348   2.209   4.376  2.4201 -1.3560 -0.8287
   45MOL   C41021618   3.961   2.022   4.713  0.6835 -0.4315  0.0316
   45MOL   C41121619   3.858   1.928   4.743  0.9613  0.4266  0.7952
   45MOL   C41221620   3.871   1.835   4.850  0.8024 -0.5118  0.4719
   45MOL   C41321621   3.982   1.842   4.931 -0.7628  0.3048  0.8495
   45MOL   C41421622   4.086   1.932   4.904 -0.2331  0.1337 -0.0002
   45MOL   C41521623   4.076   2.027   4.798 -0.3058  0.3922 -0.7490
   45MOL   S41621624   3.739   1.722   4.877  0.3116  0.1560  0.2463
   45MOL   O41721625   3.713   1.652   4.752 -0.5660  0.0285  0.5995
   45MOL   O41821626   3.622   1.795   4.933  0.4780  0.2826 -0.4425
   45MOL   C41921627   3.794   1.600   4.997 -0.2379 -0.5303  0.0120
   45MOL   C42021628   3.845   1.476   4.949  0.2132  0.3462 -1.3533
   45MOL   C42121629   3.896   1.381   5.046 -0.2720  0.3158 -0.4269
   45MOL   C42221630   3.883   1.408   5.185  0.1724 -0.6674 -0.5091
   45MOL   C42321631   3.813   1.526   5.232 -0.0898  0.5228 -0.4861
   45MOL   C42421632   3.773   1.621   5.138 -0.0180  0.9516  0.0170
   45MOL   O42521633   3.941   1.328   5.272  0.1038 -0.6921  0.4825
   45MOL   H42621634   3.949   2.094   4.634 -0.0596  2.2222  2.4974
   45MOL   H42721635   3.767   1.920   4.685  0.9527  1.6208  0.6449
   45MOL   H42821636   3.981   1.770   5.012  0.1441 -0.1624  0.4509
   45MOL   H42921637   4.168   1.937   4.974 -3.0657 -1.6868  3.6515
   45MOL   H43021638   3.856   1.450   4.845  1.7713 -4.8845 -0.0204
   45MOL   H43121639   3.935   1.285   5.015 -1.7136 -0.3035 -0.3924
   45MOL   H43221640   3.809   1.540   5.339  1.9015  1.1258 -0.4813
   45MOL   H43321641   3.729   1.715   5.167 -1.4621  0.9682 -2.1040
   45MOL   C43421642   4.106   1.285   5.448  0.0698  0.1917 -1.0359
   45MOL   C43521643   4.223   1.310   5.522 -0.0916 -0.1645 -0.2337
   45MOL   C43621644   4.295   1.425   5.482  0.5114  0.7845  0.1067
   45MOL   C43721645   4.255   1.506   5.372 -0.0737  0.4725 -0.2189
   45MOL   C43821646   4.139   1.470   5.295 -0.4327  0.3742 -0.8452
   45MOL   C43921647   4.059   1.360   5.338  0.0306 -0.1393  0.4194
   45MOL   S44021648   4.443   1.475   5.567 -0.1268 -0.3686 -0.3291
   45MOL   O44121649   4.530   1.541   5.473 -0.2566  0.4073 -0.2605
   45MOL   O44221650   4.494   1.354   5.637 -0.5247 -0.1455  0.2978
   45MOL   C44321651   4.388   1.588   5.688 -0.4028  1.0478 -0.6140
   45MOL   C44421652   4.267   1.563   5.754 -0.4122  0.6878  0.0160
   45MOL   C44521653   4.220   1.651   5.857  0.0184  0.3212  0.0554
   45MOL   C44621654   4.295   1.756   5.893 -0.1704  0.0824  0.5300
   45MOL   C44721655   4.420   1.778   5.831  0.2990 -0.2396 -0.2615
   45MOL   C44821656   4.464   1.693   5.724  0.6469  0.2059 -0.0417
   45MOL   O44921657   4.258   1.833   5.999 -0.3672  0.5803 -0.7980
   45MOL   H45021658   4.044   1.202   5.479  0.6954  0.2440  0.4177
   45MOL   H45121659   4.252   1.256   5.610  1.6461  0.8065 -0.1973
   45MOL   H45221660   4.315   1.589   5.338 -3.5317  2.3001 -2.0386
   45MOL   H45321661   4.114   1.521   5.204 -0.3316 -1.3775 -1.8911
   45MOL   H45421662   4.215   1.470   5.736  3.1838 -1.2501 -0.8546
   45MOL   H45521663   4.121   1.637   5.899 -0.4296 -2.9624 -1.9325
   45MOL   H45621664   4.487   1.855   5.865  0.0903  0.2258 -0.8932
   45MOL   H45721665   4.557   1.715   5.674  0.0931 -1.5741 -1.9321
   45MOL   C45821666   4.034   1.913   6.056 -0.1587 -0.4512 -0.7692
   45MOL   C45921667   3.920   1.989   6.014 -0.5992  0.0224 -0.9886
   45MOL   C46021668   3.925   2.072   5.901  0.4761  0.2537 -0.7877
   45MOL   C46121669   4.042   2.093   5.838 -0.2521 -0.0220  0.5478
   45MOL   C46221670   4.149   2.012   5.869 -0.5139 -0.2997 -0.7424
   45MOL   C46321671   4.145   1.912   5.973  0.0414  0.0663  0.4587
   45MOL   S46421672   3.779   2.173   5.863 -0.0184 -0.1074 -0.3509
   45MOL   O46521673   3.819   2.303   5.809 -0.7465  0.2709  0.7556
   45MOL   O46621674   3.684   2.178   5.974  0.1358 -0.8372  0.6055
   45MOL   C46721675   3.681   2.091   5.732 -0.3365  0.5403  0.6527
   45MOL   C46821676   3.723   1.968   5.672 -0.7639  0.2369 -0.4407
   45MOL   C46921677   3.647   1.918   5.566 -0.6144 -0.3809 -0.0029
   45MOL   C47021678   3.526   1.983   5.534 -0.0787 -0.0639  0.1289
   45MOL   C47121679   3.476   2.094   5.600 -0.9449 -0.1187 -0.1267
   45MOL   C47221680   3.559   2.155   5.698 -0.0952 -0.8308  0.9485
   45MOL   O47321681   3.437   1.933   5.443 -0.2436  0.1122 -0.0037
   45MOL   H47421682   4.042   1.845   6.140 -1.5521  3.3710  2.5843
   45MOL   H47521683   3.833   1.982   6.077 -1.1537 -2.4524 -1.9743
   45MOL   H47621684   4.045   2.171   5.764 -0.5808 -1.7755 -1.3376
   45MOL   H47721685   4.243   2.026   5.817 -0.1728 -1.7611 -0.5388
   45MOL   H47821686   3.819   1.931   5.707 -1.7295 -3.2701 -1.2835
   45MOL   H47921687   3.666   1.827   5.510  1.3690 -0.1855  0.3062
   45MOL   H48021688   3.385   2.140   5.565 -1.3412  0.9708  2.2267
   45MOL   H48121689   3.533   2.244   5.752  1.1697  0.7574 -0.9623
   45MOL   H48221690   3.356   1.980   5.433 -0.0009  0.2969 -1.1452
   46MOL     C121691   8.181   8.154   5.576  0.1416  0.2876 -0.3116
   46MOL     C221692   8.090   8.203   5.480  0.0004  0.5014 -0.3748
   46MOL     C321693   7.965   8.254   5.529 -0.2894  0.0375  0.3250
   46MOL     C421694   7.937   8.256   5.661 -0.3927  0.4129 -0.2346
   46MOL     C521695   8.023   8.193   5.753  0.1669 -0.1162 -0.0977
   46MOL     C621696   8.142   8.139   5.710  0.4599  0.1166 -0.1525
   46MOL     S721697   7.856   8.324   5.406 -0.0097 -0.0277 -0.1495
   46MOL     O821698   7.909   8.305   5.267 -0.2196 -0.2873 -0.2435
   46MOL     O921699   7.843   0.038   5.454 -0.0148  0.0753 -0.4943
   46MOL    C1021700   7.697   8.243   5.416  0.1888 -0.4925 -0.2164
   46MOL    C1121701   7.589   8.315   5.357  0.0161  0.3510  0.1030
   46MOL    C1221702   7.462   8.258   5.346  0.0115  0.4019  0.6951
   46MOL    C1321703   7.445   8.123   5.396 -0.2642  0.3696 -0.2712
   46MOL    C1421704   7.546   8.058   5.466  0.1302  0.7038 -0.3274
   46MOL    C1521705   7.673   8.114   5.471 -0.3703  0.1429  0.5460
   46MOL    O1621706   7.318   8.069   5.384 -0.4302  0.3331  0.2990
   46MOL    H1721707   8.276   8.128   5.533  0.4652  0.7185  0.1451
   46MOL    H1821708   8.120   8.204   5.376 -0.2146  0.8287 -0.4342
   46MOL    H1921709   7.848   8.312   5.686  0.5766  1.1806  1.6443
   46MOL    H2021710   7.999   8.193   5.858  2.3354  0.3060  0.4283
   46MOL    H2121711   7.609   8.417   5.328  0.9722  1.0364  3.0983
   46MOL    H2221712   7.392   8.319   5.292  0.4468 -0.7717 -1.2189
   46MOL    H2321713   7.540   7.961   5.513 -0.6577  0.7217 -0.3915
   46MOL    H2421714   7.745   8.054   5.524 -0.9912 -1.7622 -0.6913
   46MOL    H2521715   8.212   8.102   5.784 -0.1805  2.9398  1.9368
   46MOL    C2621716   7.390   7.894   5.238  0.5132 -0.4310  0.0479
   46MOL    C2721717   7.403   7.754   5.210  0.4685  0.4339  0.3408
   46MOL    C2821718   7.338   7.661   5.295 -0.7911 -0.1330 -0.1559
   46MOL    C2921719   7.255   7.709   5.402  0.0280 -1.2691 -0.0916
   46MOL    C3021720   7.248   7.848   5.429 -0.2761 -0.0626 -0.4476
   46MOL    C3121721   7.310   7.940   5.347  0.3153  0.4708 -0.7833
   46MOL    S3221722   7.375   7.488   5.288  0.2102  0.1238 -0.2335
   46MOL    O3321723   7.348   7.434   5.424 -0.4513 -0.4384  0.0522
   46MOL    O3421724   7.506   7.470   5.220  0.1349  0.2611  0.1203
   46MOL    C3521725   7.255   7.410   5.176  0.3877  1.0421  1.0230
   46MOL    C3621726   7.239   7.473   5.048  0.0824 -0.0888  0.1666
   46MOL    C3721727   7.138   7.434   4.958  0.1325 -0.2797 -0.4153
   46MOL    C3821728   7.048   7.335   5.005  0.1941 -0.2394  0.1250
   46MOL    C3921729   7.064   7.265   5.129 -0.0219  1.1301 -0.3691
   46MOL    C4021730   7.170   7.298   5.211  0.5060 -0.2319  0.4858
   46MOL    O4121731   6.949   7.297   4.915 -0.2669 -0.5126  0.2854
   46MOL    H4221732   7.456   7.963   5.188 -0.8131  0.2976 -0.7393
   46MOL    H4321733   7.472   7.718   5.135 -1.3427  0.5173 -1.4127
   46MOL    H4421734   7.202   7.636   5.462  0.5494 -1.0097  0.6882
   46MOL    H4521735   7.193   7.882   5.515 -1.4804 -0.3924 -1.0634
   46MOL    H4621736   7.310   7.550   5.023 -0.9038  0.1806 -1.9141
   46MOL    H4721737   7.126   7.476   4.859  0.1777 -0.3542 -0.4517
   46MOL    H4821738   7.005   7.187   5.175  2.0442 -0.6803 -0.7259
   46MOL    H4921739   7.179   7.245   5.304 -3.7750 -1.0867  0.5127
   46MOL    C5021740   7.086   7.118   4.822  0.3823  0.2367  0.7055
   46MOL    C5121741   7.141   7.056   4.713  0.2591  0.5059 -0.1680
   46MOL    C5221742   7.099   7.096   4.582  0.6291  1.1835 -0.4281
   46MOL    C5321743   7.004   7.202   4.565  0.0389 -0.4383  0.0387
   46MOL    C5421744   6.952   7.270   4.676 -0.0394  0.3432  0.4156
   46MOL    C5521745   6.990   7.223   4.806 -0.3553 -0.1075  0.4861
   46MOL    S5621746   7.171   7.013   4.443 -0.2952 -0.5843  0.0254
   46MOL    O5721747   7.303   7.062   4.418  0.0646 -0.0567 -0.2023
   46MOL    O5821748   7.076   7.014   4.336 -0.0566 -0.1524 -0.7495
   46MOL    C5921749   7.200   6.845   4.506 -0.6304 -0.1454 -0.0899
   46MOL    C6021750   7.098   6.749   4.502  0.3020 -0.7892  0.2406
   46MOL    C6121751   7.114   6.615   4.539 -0.2640 -0.2036  0.1919
   46MOL    C6221752   7.241   6.571   4.572  0.0136  0.6441 -0.0791
   46MOL    C6321753   7.344   6.669   4.590  0.4995  0.2369  0.3537
   46MOL    C6421754   7.318   6.802   4.556 -0.5444  0.2000 -0.3219
   46MOL    O6521755   7.271   6.436   4.602  0.3990 -0.3176  0.0698
   46MOL    H6621756   7.130   7.091   4.917  0.2278 -1.1167  0.4131
   46MOL    H6721757   7.219   6.983   4.730  1.9293  2.7989  2.3226
   46MOL    H6821758   6.977   7.224   4.463  0.2046 -0.6107 -0.0413
   46MOL    H6921759   6.872   7.340   4.659  0.6610  0.6038 -2.0442
   46MOL    H7021760   7.000   6.779   4.467  1.3502  0.5009 -1.6809
   46MOL    H7121761   7.036   6.541   4.528 -0.9793  0.8623 -2.1538
   46MOL    H7221762   7.442   6.641   4.623  0.7248  1.7598  1.0199
   46MOL    H7321763   7.396   6.872   4.585  0.5298 -1.2140  0.2649
   46MOL    C7421764   7.424   6.344   4.447  0.0267 -0.0178 -0.4017
   46MOL    C7521765   7.453   6.273   4.333  0.0289  0.1114  0.4187
   46MOL    C7621766   7.346   6.214   4.263 -0.0278 -0.1891 -0.3283
   46MOL    C7721767   7.214   6.218   4.307 -0.2088 -0.3214 -0.7779
   46MOL    C7821768   7.185   6.289   4.423  0.2440  0.1140 -0.1746
   46MOL    C7921769   7.290   6.355   4.493 -0.0234  1.0637 -0.8133
   46MOL    S8021770   7.371   6.130   4.109 -0.6076 -0.3101 -0.1212
   46MOL    O8121771   7.248   6.146   4.032 -0.4320 -0.6747 -0.2533
   46MOL    O8221772   7.430   5.998   4.131 -0.6479  0.8808 -0.5705
   46MOL    C8321773   7.493   6.232   4.029 -0.3143  1.1132 -0.2746
   46MOL    C8421774   7.617   6.168   3.997 -0.4585  0.1548 -0.2726
   46MOL    C8521775   7.722   6.250   3.951  0.0227  0.1560  0.3303
   46MOL    C8621776   7.706   6.385   3.921  0.0603  0.1528  1.0350
   46MOL    C8721777   7.585   6.447   3.955 -0.0813  0.2208  0.7794
   46MOL    C8821778   7.477   6.368   4.003 -0.3199 -0.3837 -0.7737
   46MOL    O8921779   7.820   6.449   3.877  0.0506  0.4171  0.2062
   46MOL    H9021780   7.505   6.402   4.489 -0.0940  0.9316 -1.4567
   46MOL    H9121781   7.555   6.279   4.297 -0.1187 -0.8927 -0.1970
   46MOL    H9221782   7.140   6.160   4.253  0.6628 -0.7069 -1.5776
   46MOL    H9321783   7.089   6.306   4.469  0.2715 -0.0655 -0.0527
   46MOL    H9421784   7.644   6.066   4.017  1.0760  0.3123 -1.5052
   46MOL    H9521785   7.810   6.201   3.912  0.2598  1.2332 -0.5107
   46MOL    H9621786   7.562   6.551   3.933 -5.2745 -0.6290  1.3759
   46MOL    H9721787   7.385   6.412   4.036 -0.3582 -1.9670  1.3060
   46MOL    C9821788   7.879   6.584   3.683 -0.2482  0.4181 -0.3164
   46MOL    C9921789   7.920   6.601   3.550 -0.0049  0.0330  0.0604
   46MOL   C10021790   7.917   6.486   3.468 -0.2611  0.1486  0.0278
   46MOL   C10121791   7.878   6.359   3.521 -0.1304 -0.8401 -0.1070
   46MOL   C10221792   7.854   6.345   3.663  0.1220  0.1903 -0.0455
   46MOL   C10321793   7.841   6.463   3.741 -0.0117  0.7568 -0.4842
   46MOL   S10421794   7.943   6.495   3.292 -0.3718 -0.0351  0.2351
   46MOL   O10521795   7.928   6.638   3.246 -0.5319  0.3958  0.2273
   46MOL   O10621796   7.857   6.392   3.235  0.0516  0.3900 -0.8090
   46MOL   C10721797   8.114   6.437   3.267 -0.4348 -0.0956  0.0611
   46MOL   C10821798   8.161   6.307   3.306  0.1111  0.6968  0.0949
   46MOL   C10921799   8.290   6.264   3.270 -0.0668  0.7490  0.8414
   46MOL   C11021800   8.366   6.346   3.185  0.3150  0.2961  0.2391
   46MOL   C11121801   8.320   6.475   3.148 -0.2387 -0.5025 -0.4979
   46MOL   C11221802   8.192   6.520   3.185 -0.5911 -0.2663  0.8636
   46MOL   O11321803   0.059   6.299   3.138 -0.4050  0.1690  0.4895
   46MOL   H11421804   7.864   6.676   3.737  1.7931 -0.5238  1.9176
   46MOL   H11521805   7.942   6.696   3.506 -2.2030 -0.5890 -2.5107
   46MOL   H11621806   7.878   6.270   3.460 -0.8451 -0.1020 -1.1887
   46MOL   H11721807   7.822   6.253   3.709  1.7194  0.4439  1.6351
   46MOL   H11821808   8.098   6.241   3.364  0.7966 -0.1291 -0.0961
   46MOL   H11921809   8.329   6.167   3.296  0.9655  0.8731 -0.2548
   46MOL   H12021810   8.377   6.536   3.079  1.0739 -0.3646  0.6788
   46MOL   H12121811   8.158   6.618   3.155 -0.0412 -0.8432 -1.7854
   46MOL   C12221812   8.401   6.141   2.983  0.3664  0.5370  0.5406
   46MOL   C12321813   8.412   6.069   2.860 -0.4726 -0.1751  0.6818
   46MOL   C12421814   0.077   6.104   2.765 -0.2133 -0.3780  0.1962
   46MOL   C12521815   0.161   6.213   2.791 -0.6143 -0.4560 -0.8255
   46MOL   C12621816   0.154   6.285   2.915 -0.7610 -0.5227  0.1743
   46MOL   C12721817   0.064   6.241   3.012 -0.0863 -0.6317 -0.7423
   46MOL   S12821818   0.069   6.019   2.606  0.0065 -0.2338  0.1479
   46MOL   O12921819   0.082   6.125   2.501 -0.7781  0.3603  0.2771
   46MOL   O13021820   8.387   5.921   2.602  0.3639  0.6459  0.4487
   46MOL   C13121821   0.226   5.937   2.586  0.2503 -0.2612 -0.3819
   46MOL   C13221822   0.237   5.855   2.475 -0.1759  0.1867 -0.4469
   46MOL   C13321823   0.358   5.786   2.447  0.6423 -0.0999  0.4137
   46MOL   C13421824   0.471   5.828   2.526 -0.0578  0.3586 -0.2047
   46MOL   C13521825   0.455   5.910   2.640 -0.6020 -0.5596  0.5958
   46MOL   C13621826   0.333   5.955   2.677  0.8797  0.2952  0.2433
   46MOL   O13721827   0.597   5.804   2.485 -1.0610  0.8296 -0.4653
   46MOL   H13821828   8.334   6.108   3.060 -1.5834 -0.1727 -1.3937
   46MOL   H13921829   8.339   5.992   2.841  1.3011 -2.2399  2.0491
   46MOL   H14021830   0.236   6.241   2.718 -0.4445  0.8291 -0.1764
   46MOL   H14121831   0.229   6.354   2.951 -2.2068  1.8852 -1.3267
   46MOL   H14221832   0.153   5.839   2.410  0.6543 -4.3405 -0.6091
   46MOL   H14321833   0.371   5.724   2.360  0.8508 -0.1614  0.4903
   46MOL   H14421834   0.541   5.951   2.691  0.7720  0.3861 -2.3811
   46MOL   H14521835   0.325   6.004   2.773 -4.8839  2.0226 -0.9085
   46MOL   C14621836   0.814   5.888   2.485 -0.0577  0.3342 -0.1842
   46MOL   C14721837   0.907   5.987   2.452 -0.4478 -0.2847  0.1553
   46MOL   C14821838   0.865   6.107   2.391 -0.4612 -0.6423 -0.0562
   46MOL   C14921839   0.726   6.126   2.365  0.1413  0.8280  0.2200
   46MOL   C15021840   0.639   6.019   2.386 -0.4094  1.0923  0.2027
   46MOL   C15121841   0.678   5.903   2.452  0.6953 -0.3875 -0.2404
   46MOL   S15221842   0.986   6.238   2.367  0.1684  0.2942 -0.0719
   46MOL   O15321843   1.084   6.231   2.474 -0.3355 -0.1606  0.3361
   46MOL   O15421844   0.916   6.367   2.349  0.2230  0.1792  0.1616
   46MOL   C15521845   1.063   6.203   2.212 -0.0552 -0.7497 -0.6475
   46MOL   C15621846   1.174   6.280   2.179  0.0625  0.4632 -0.5535
   46MOL   C15721847   1.235   6.260   2.053 -0.4672  0.0830  0.5719
   46MOL   C15821848   1.185   6.163   1.960 -0.5712  0.2160  0.6131
   46MOL   C15921849   1.061   6.094   1.987  0.7687  0.4276  0.2715
   46MOL   C16021850   1.007   6.118   2.117  0.2915  0.5763  0.0874
   46MOL   O16121851   1.252   6.141   1.842 -0.0761  0.1153  0.1948
   46MOL   H16221852   0.850   5.802   2.540 -2.8389 -0.5288  0.3387
   46MOL   H16321853   1.011   5.972   2.476 -0.0671  0.2817 -1.1281
   46MOL   H16421854   0.687   6.216   2.321 -0.0666  0.6007 -0.0674
   46MOL   H16521855   0.538   6.016   2.347  0.2038  0.1571 -1.3607
   46MOL   H16621856   1.220   6.346   2.251  0.8846 -0.0125 -0.6383
   46MOL   H16721857   1.324   6.319   2.037 -0.8206  0.4903  0.0893
   46MOL   H16821858   1.016   6.019   1.924 -0.6710  0.2556  1.4692
   46MOL   H16921859   0.926   6.053   2.148  0.6124  0.4762  0.7269
   46MOL   C17021860   1.488   6.099   1.831  0.3005  0.2320  0.3090
   46MOL   C17121861   1.599   6.009   1.831 -0.2489  0.0934  0.4513
   46MOL   C17221862   1.572   5.868   1.830  0.3591 -0.8813 -0.2627
   46MOL   C17321863   1.442   5.819   1.854  0.2759 -0.0699 -0.3494
   46MOL   C17421864   1.332   5.906   1.861 -1.1235 -0.5254 -0.2891
   46MOL   C17521865   1.354   6.045   1.841 -0.3727  0.2011 -0.3495
   46MOL   S17621866   1.710   5.749   1.810  0.4334  0.4565 -0.2818
   46MOL   O17721867   1.801   5.775   1.924  0.2804  0.4731 -0.0203
   46MOL   O17821868   1.759   5.762   1.671 -0.1145 -0.0208  0.0554
   46MOL   C17921869   1.649   5.581   1.827  0.0255 -0.3169  0.7292
   46MOL   C18021870   1.667   5.489   1.721  0.0628  0.1113  0.4729
   46MOL   C18121871   1.621   5.358   1.735  0.3215 -0.1312  0.9917
   46MOL   C18221872   1.566   5.316   1.857  0.5405 -0.6713  0.2287
   46MOL   C18321873   1.562   5.401   1.970 -0.7322 -0.5597  0.1990
   46MOL   C18421874   1.597   5.539   1.951 -0.0256  0.4006 -0.3999
   46MOL   O18521875   1.544   5.186   1.874  0.3742 -0.0979 -0.5099
   46MOL   H18621876   1.503   6.205   1.823 -0.7488  0.7924  4.4519
   46MOL   H18721877   1.701   6.042   1.818 -0.0079 -1.1888 -1.2426
   46MOL   H18821878   1.426   5.712   1.860  1.1080 -0.2266 -0.8146
   46MOL   H18921879   1.234   5.872   1.889 -0.2464 -1.5857  1.5686
   46MOL   H19021880   1.712   5.522   1.629  2.2552  0.5017  1.6418
   46MOL   H19121881   1.633   5.283   1.659  0.4177 -3.4894  4.1624
   46MOL   H19221882   1.524   5.365   2.064 -1.4970  1.5649  0.7492
   46MOL   H19321883   1.582   5.606   2.035  1.8738 -1.5642  1.5910
   46MOL   C19421884   1.356   5.138   1.725 -0.0341  0.4182 -0.4631
   46MOL   C19521885   1.216   5.118   1.714 -0.3795 -0.3138 -0.5063
   46MOL   C19621886   1.134   5.135   1.824 -0.0829  0.2060 -0.4690
   46MOL   C19721887   1.189   5.139   1.957  0.2006  0.0651  0.8636
   46MOL   C19821888   1.329   5.145   1.974 -0.1808 -0.7033  0.7256
   46MOL   C19921889   1.412   5.152   1.855  0.7330  0.1409 -0.8400
   46MOL   S20021890   0.955   5.152   1.815 -0.2454  0.1035 -0.4147
   46MOL   O20121891   0.936   5.244   1.706  0.1583 -0.1154  0.2657
   46MOL   O20221892   0.909   5.193   1.950 -0.2047 -0.2985 -0.4506
   46MOL   C20321893   0.880   4.996   1.781 -0.6444 -0.0103  0.7077
   46MOL   C20421894   0.847   4.958   1.650 -0.2224 -0.0888  0.3846
   46MOL   C20521895   0.780   4.840   1.622 -0.6248 -0.3677 -0.6203
   46MOL   C20621896   0.743   4.755   1.726  0.3435 -0.1299  0.6708
   46MOL   C20721897   0.788   4.786   1.857 -0.0811  0.1998  0.8325
   46MOL   C20821898   0.861   4.906   1.887  0.2403 -0.7298  0.6552
   46MOL   O20921899   0.663   4.649   1.693 -0.1743 -0.7360 -0.2363
   46MOL   H21021900   1.418   5.119   1.639 -2.5799 -1.3500 -1.9738
   46MOL   H21121901   1.172   5.112   1.615  1.3850 -4.1424 -1.1327
   46MOL   H21221902   1.126   5.154   2.043  1.1903  0.3868  1.5453
   46MOL   H21321903   1.375   5.127   2.070 -1.5757 -0.3342  1.4808
   46MOL   H21421904   0.867   5.023   1.566  2.2555  0.9862  1.7186
   46MOL   H21521905   0.742   4.808   1.526 -1.7177  0.1780 -0.3706
   46MOL   H21621906   0.781   4.715   1.938 -1.2509 -1.4820 -0.6979
   46MOL   H21721907   0.884   4.925   1.990 -0.7569  0.0886  0.7297
   46MOL   C21821908   0.487   4.661   1.858  0.5767 -0.0654  0.3391
   46MOL   C21921909   0.400   4.594   1.955 -0.0900  0.1322 -0.4218
   46MOL   C22021910   0.420   4.454   1.982 -0.1677 -0.2221 -0.1609
   46MOL   C22121911   0.521   4.385   1.908  0.8178 -0.6368  0.1178
   46MOL   C22221912   0.595   4.451   1.812 -0.4621 -0.0631 -0.7034
   46MOL   C22321913   0.580   4.589   1.785  0.3862  0.0014  0.5575
   46MOL   S22421914   0.327   4.382   2.115  0.2045 -0.1597  0.0615
   46MOL   O22521915   0.191   4.444   2.107 -0.3477  0.0587 -0.9154
   46MOL   O22621916   0.401   4.421   2.240 -0.2758  0.1557  0.5196
   46MOL   C22721917   0.309   4.206   2.085 -0.0764 -0.1426  0.2285
   46MOL   C22821918   0.205   4.163   1.992  0.3258 -0.3637  0.2650
   46MOL   C22921919   0.196   4.028   1.954 -1.1419  0.3197  0.6167
   46MOL   C23021920   0.291   3.937   2.002  0.0066  0.1499  0.5135
   46MOL   C23121921   0.393   3.980   2.094 -0.3310 -0.2273  0.1180
   46MOL   C23221922   0.411   4.117   2.131 -0.3960 -0.3447  0.0554
   46MOL   O23321923   0.279   3.813   1.944 -0.5847 -0.0283 -0.7294
   46MOL   H23421924   0.462   4.765   1.844  0.5552 -0.1813 -0.4822
   46MOL   H23521925   0.326   4.646   2.015 -0.8251 -1.1129 -0.2312
   46MOL   H23621926   0.524   4.277   1.918  1.5266 -0.6269  0.0438
   46MOL   H23721927   0.671   4.389   1.767 -0.8874 -0.0328 -1.4690
   46MOL   H23821928   0.128   4.231   1.957  1.5659  1.2292  0.6132
   46MOL   H23921929   0.116   3.988   1.893  1.3753 -2.1254 -1.2605
   46MOL   H24021930   0.463   3.901   2.120  0.1727 -0.0261 -0.6093
   46MOL   H24121931   0.490   4.143   2.199 -1.7984 -0.5826  1.8222
   46MOL   C24221932   0.488   3.684   1.981  0.0774 -0.3485 -0.5226
   46MOL   C24321933   0.547   3.577   2.046 -0.4850 -0.6201  0.1166
   46MOL   C24421934   0.474   3.490   2.130 -0.7387  0.0118  0.0347
   46MOL   C24521935   0.335   3.508   2.134 -0.1849 -0.2286  0.3885
   46MOL   C24621936   0.278   3.618   2.070 -0.0274 -0.2576 -0.1612
   46MOL   C24721937   0.349   3.709   1.996 -0.4736  0.1408 -0.8161
   46MOL   S24821938   0.545   3.353   2.223  0.2321  0.3472 -0.0829
   46MOL   O24921939   0.632   3.277   2.133 -0.1196  0.2152  0.3948
   46MOL   O25021940   0.430   3.280   2.287  0.2349  0.3026  0.0024
   46MOL   C25121941   0.644   3.430   2.353  0.4190 -0.1525  0.1846
   46MOL   C25221942   0.599   3.553   2.412  0.7715 -0.4682 -0.1794
   46MOL   C25321943   0.669   3.594   2.527  0.8122  0.5042 -0.1185
   46MOL   C25421944   0.792   3.539   2.567  0.4566  0.5957  0.0185
   46MOL   C25521945   0.832   3.421   2.505  0.3237  0.2674 -0.6317
   46MOL   C25621946   0.764   3.368   2.398 -0.2636 -0.9366 -0.5056
   46MOL   O25721947   0.864   3.597   2.667 -0.1797 -0.1985 -0.2363
   46MOL   H25821948   0.547   3.750   1.919 -0.5092  1.0621  0.4017
   46MOL   H25921949   0.654   3.565   2.038 -0.3925  1.1461 -1.6043
   46MOL   H26021950   0.277   3.441   2.197  0.9444 -2.4105 -0.8356
   46MOL   H26121951   0.170   3.612   2.066 -0.1591  0.3035  1.9387
   46MOL   H26221952   0.505   3.596   2.383  0.1549 -1.9052 -0.3674
   46MOL   H26321953   0.623   3.677   2.578 -0.6729 -0.1034 -0.4483
   46MOL   H26421954   0.923   3.380   2.545 -0.0054  2.2681  2.3292
   46MOL   H26521955   0.788   3.270   2.360 -1.2717 -1.3535 -0.0832
   46MOL   C26621956   1.058   3.665   2.534 -0.5894  0.2203  0.4835
   46MOL   C26721957   1.150   3.767   2.494 -0.5446  0.3811 -0.4215
   46MOL   C26821958   1.141   3.893   2.548 -0.6128  0.5606  0.2778
   46MOL   C26921959   1.031   3.930   2.620 -0.1062 -0.2989 -0.0631
   46MOL   C27021960   0.934   3.829   2.661  0.6800 -0.1201 -0.1728
   46MOL   C27121961   0.950   3.693   2.625 -0.6942  0.2762 -0.2701
   46MOL   S27221962   1.267   4.017   2.504 -0.5820  0.2632 -0.5408
   46MOL   O27321963   1.193   4.144   2.511  0.1400  0.2521  0.4868
   46MOL   O27421964   1.330   3.971   2.376 -0.3724  0.3779  0.3561
   46MOL   C27521965   1.393   4.022   2.630  0.2689  0.1663 -0.2161
   46MOL   C27621966   1.520   4.071   2.600 -0.0649  0.1169  0.0044
   46MOL   C27721967   1.612   4.103   2.703 -0.2725 -0.1130  0.4065
   46MOL   C27821968   1.583   4.073   2.833 -0.2752  0.9672 -0.0994
   46MOL   C27921969   1.461   4.011   2.864 -0.3450  0.8364  0.7117
   46MOL   C28021970   1.367   3.981   2.763 -0.4988  0.2716  0.1480
   46MOL   O28121971   1.676   4.087   2.935  0.2648 -0.5445 -0.5144
   46MOL   H28221972   1.065   3.567   2.489 -0.7770  0.9658 -1.1852
   46MOL   H28321973   1.217   3.749   2.411 -0.9866 -3.6844 -0.0163
   46MOL   H28421974   1.003   4.028   2.656 -3.7686 -1.4255  0.4129
   46MOL   H28521975   0.857   3.859   2.731  1.5815 -1.4976  1.4503
   46MOL   H28621976   1.550   4.089   2.498  0.4572  1.4985  0.3818
   46MOL   H28721977   1.710   4.143   2.682  0.3190 -0.7328  1.8637
   46MOL   H28821978   1.453   3.981   2.967  1.3141 -1.5168  0.1977
   46MOL   H28921979   1.278   3.926   2.790  0.2464 -1.0490 -0.0576
   46MOL   C29021980   1.908   4.022   2.919  0.7371  0.3941  0.6026
   46MOL   C29121981   2.010   3.928   2.930 -0.0343  0.5256  0.3218
   46MOL   C29221982   1.981   3.796   2.963 -0.2090  0.1832 -1.0485
   46MOL   C29321983   1.851   3.755   2.992  0.3476  0.3914  0.7714
   46MOL   C29421984   1.751   3.854   2.984 -0.2075 -0.1501  0.1682
   46MOL   C29521985   1.776   3.987   2.944  0.0621 -0.1433 -0.2805
   46MOL   S29621986   2.111   3.673   2.977  0.0813  0.3193  0.5985
   46MOL   O29721987   2.090   3.586   2.861 -0.4394  0.4855 -0.7751
   46MOL   O29821988   2.119   3.609   3.105 -0.2868  0.4307  0.2603
   46MOL   C29921989   2.268   3.765   2.958  0.7303  0.5821  0.4535
   46MOL   C30021990   2.349   3.745   2.844 -0.0576  0.1224 -0.0386
   46MOL   C30121991   2.471   3.813   2.833 -0.5763 -0.5802 -0.1550
   46MOL   C30221992   2.525   3.885   2.948 -0.2866 -0.0487 -0.3468
   46MOL   C30321993   2.442   3.914   3.057 -0.2348  0.7816  0.8216
   46MOL   C30421994   2.311   3.851   3.065  0.5654 -0.7394  0.1163
   46MOL   O30521995   2.648   3.952   2.939 -0.1892 -0.4414  0.5165
   46MOL   H30621996   1.923   4.124   2.886  0.1595 -0.1836 -1.5349
   46MOL   H30721997   2.112   3.956   2.908 -0.5219  0.8809 -1.5345
   46MOL   H30821998   1.825   3.659   3.032  3.2225 -1.4247 -1.5388
   46MOL   H30921999   1.648   3.822   2.993 -0.9999  1.6136 -2.0099
   46MOL   H31022000   2.301   3.681   2.772 -0.1127 -0.4486  0.5002
   46MOL   H31122001   2.532   3.808   2.744 -1.4824  0.2714 -0.8339
   46MOL   H31222002   2.483   3.980   3.132 -2.1692 -0.1243  2.7536
   46MOL   H31322003   2.240   3.871   3.144  1.9935 -0.8289  1.4526
   46MOL   C31422004   2.776   3.865   3.121 -0.2204 -0.0000  0.3012
   46MOL   C31522005   2.896   3.807   3.171  0.0239  0.3661  0.6905
   46MOL   C31622006   2.993   3.766   3.079  0.5493  0.0697  0.3241
   46MOL   C31722007   2.982   3.804   2.945 -0.2986 -0.4800 -0.4357
   46MOL   C31822008   2.866   3.868   2.899  0.6858  0.0950  0.0063
   46MOL   C31922009   2.762   3.896   2.988  0.9392 -0.0219  0.0338
   46MOL   S32022010   3.133   3.685   3.143 -0.2731 -0.0049 -0.1481
   46MOL   O32122011   3.117   3.681   3.289 -0.1187  0.0985  0.1522
   46MOL   O32222012   3.247   3.763   3.095 -0.3932 -0.1608 -0.0655
   46MOL   C32322013   3.147   3.516   3.081  0.4996  0.2019 -0.3703
   46MOL   C32422014   3.056   3.417   3.129 -0.4845  0.0960  0.2056
   46MOL   C32522015   3.086   3.283   3.111 -0.0806  0.6339 -0.7007
   46MOL   C32622016   3.201   3.236   3.044  0.4582 -0.2952 -0.3193
   46MOL   C32722017   3.290   3.338   2.997  0.7171  0.2614  0.3169
   46MOL   C32822018   3.262   3.476   3.016 -0.5700 -0.2225  0.2259
   46MOL   O32922019   3.223   3.101   3.040  0.3901 -0.1193  0.1552
   46MOL   H33022020   2.700   3.895   3.191 -0.5745 -1.2347  0.4566
   46MOL   H33122021   2.901   3.780   3.276  0.9836  0.7618  0.7541
   46MOL   H33222022   3.074   3.798   2.888  0.2724  0.4473  0.3734
   46MOL   H33322023   2.856   3.892   2.794 -0.3197  2.5383  0.6215
   46MOL   H33422024   2.968   3.452   3.182 -0.0618  0.4358  0.6871
   46MOL   H33522025   3.024   3.210   3.160  1.2751  0.8177  1.3521
   46MOL   H33622026   3.378   3.307   2.944 -0.4465 -1.5771 -0.6360
   46MOL   H33722027   3.323   3.557   2.978 -0.6901  0.0570  0.6262
   46MOL   C33822028   3.149   3.017   2.823 -0.9992  0.6101 -0.6864
   46MOL   C33922029   3.185   2.958   2.699 -0.0451 -0.2171 -0.1819
   46MOL   C34022030   3.316   2.908   2.677 -0.4251 -0.4279 -0.6829
   46MOL   C34122031   3.416   2.921   2.779  0.0794  0.1219  0.3797
   46MOL   C34222032   3.373   2.979   2.904  0.3578  0.6174  0.1346
   46MOL   C34322033   3.246   3.034   2.922  0.5588  0.3493  0.0507
   46MOL   S34422034   3.363   2.860   2.511 -0.0067  0.0059 -0.1510
   46MOL   O34522035   3.257   2.776   2.447  0.2466 -0.2373  0.0552
   46MOL   O34622036   3.502   2.815   2.518  0.2525 -0.3220  0.3837
   46MOL   C34722037   3.355   3.009   2.414  0.4330  0.3556  0.3624
   46MOL   C34822038   3.379   3.130   2.475 -0.2603  0.1494  0.4075
   46MOL   C34922039   3.390   3.249   2.397  0.7312 -0.1804  0.2498
   46MOL   C35022040   3.385   3.241   2.257  0.3638 -0.1558  0.4352
   46MOL   C35122041   3.354   3.118   2.196  0.5699 -0.4657 -0.0426
   46MOL   C35222042   3.331   3.005   2.276 -0.1904  0.2170 -0.4222
   46MOL   O35322043   3.405   3.348   2.173  0.0333 -0.4453  0.0122
   46MOL   H35422044   3.049   3.051   2.846 -0.2919  1.0742  1.8888
   46MOL   H35522045   3.114   2.945   2.619 -0.0013 -2.2195  0.0641
   46MOL   H35622046   3.516   2.888   2.756  1.4452  2.6825  2.3474
   46MOL   H35722047   3.449   2.977   2.980  1.1804 -1.6501 -0.7125
   46MOL   H35822048   3.388   3.134   2.582  0.6880  0.1208  0.3350
   46MOL   H35922049   3.426   3.339   2.445 -0.5457 -0.1223  1.1290
   46MOL   H36022050   3.356   3.097   2.090  0.3792  0.0199 -0.1424
   46MOL   H36122051   3.309   2.910   2.229 -0.7291 -0.4663  1.1711
   46MOL   C36222052   3.526   3.551   2.235  0.0852  0.4109  0.0508
   46MOL   C36322053   3.643   3.624   2.248 -0.0572 -0.1686 -0.9290
   46MOL   C36422054   3.768   3.559   2.235  0.5900 -0.1009  0.1197
   46MOL   C36522055   3.772   3.416   2.215  0.0662 -0.3608 -0.4401
   46MOL   C36622056   3.651   3.345   2.184  0.3894 -0.6245  0.0037
   46MOL   C36722057   3.526   3.415   2.195  0.0535  0.3175 -0.1693
   46MOL   S36822058   3.917   3.658   2.233 -0.1621  0.1397 -0.4379
   46MOL   O36922059   3.889   3.800   2.252  0.1724  0.6825  0.2984
   46MOL   O37022060   3.996   3.622   2.116 -0.1407  0.2006 -0.0515
   46MOL   C37122061   4.012   3.605   2.376 -0.9212  0.2653  0.4734
   46MOL   C37222062   3.953   3.535   2.476  0.2991 -0.2130 -0.3877
   46MOL   C37322063   4.023   3.498   2.595 -0.6608 -0.6679 -0.1230
   46MOL   C37422064   4.163   3.525   2.608 -0.0739 -0.3053  0.2591
   46MOL   C37522065   4.224   3.604   2.507  0.3613 -0.0461  0.1105
   46MOL   C37622066   4.151   3.636   2.389 -0.7887 -0.1021 -0.1411
   46MOL   O37722067   4.234   3.483   2.718  0.2666 -0.0551 -1.0638
   46MOL   H37822068   3.434   3.606   2.224  0.1645  0.4992 -0.1650
   46MOL   H37922069   3.641   3.730   2.268 -1.3188 -0.1332 -1.1731
   46MOL   H38022070   3.866   3.365   2.208 -0.0127 -0.4032 -1.2002
   46MOL   H38122071   3.656   3.243   2.149  1.9968 -0.2329 -0.9623
   46MOL   H38222072   3.849   3.505   2.477  0.5251 -1.0235 -0.8646
   46MOL   H38322073   3.978   3.429   2.665  0.8160 -1.2551  0.2644
   46MOL   H38422074   4.329   3.627   2.514  0.4156 -0.2257 -0.1319
   46MOL   H38522075   4.204   3.696   2.317 -0.6874  0.2647  0.2335
   46MOL   C38622076   4.198   3.292   2.861 -0.1039  1.0359 -0.4925
   46MOL   C38722077   4.149   3.232   2.978 -0.4229 -0.2798  0.6754
   46MOL   C38822078   4.076   3.318   3.063  0.1296 -0.6080 -0.1499
   46MOL   C38922079   4.057   3.455   3.035 -0.0428  0.0022 -0.1774
   46MOL   C39022080   4.103   3.507   2.916  0.3487  0.2986 -0.1361
   46MOL   C39122081   4.172   3.421   2.825  0.7035  0.0067  0.0627
   46MOL   S39222082   4.004   3.245   3.208  0.2467 -0.1387 -0.3259
   46MOL   O39322083   4.112   3.208   3.303 -0.2796 -0.1972  0.5007
   46MOL   O39422084   3.913   3.137   3.160  0.2664 -0.1730  0.6062
   46MOL   C39522085   3.897   3.365   3.279  0.3734  0.7718 -0.3201
   46MOL   C39622086   3.954   3.467   3.355 -0.0562  0.3179  0.2355
   46MOL   C39722087   3.871   3.568   3.403 -0.3311  0.5816 -0.4523
   46MOL   C39822088   3.735   3.578   3.364  0.6936  0.2465  0.4613
   46MOL   C39922089   3.680   3.477   3.284  0.5922  0.2370 -0.2327
   46MOL   C40022090   3.755   3.362   3.253 -0.0368  0.0446  0.5919
   46MOL   O40122091   3.652   3.684   3.396 -0.4224  0.3869 -0.1862
   46MOL   H40222092   4.249   3.230   2.790 -0.8648  0.9166 -0.9324
   46MOL   H40322093   4.158   3.125   2.989 -0.6336 -0.4152 -0.4144
   46MOL   H40422094   4.002   3.527   3.094 -0.1586 -0.1086 -0.1508
   46MOL   H40522095   4.081   3.611   2.896 -1.8027  0.1499  1.3562
   46MOL   H40622096   4.058   3.453   3.383 -0.0499 -1.8397 -0.7584
   46MOL   H40722097   3.912   3.649   3.461 -0.6237  1.3704 -1.3116
   46MOL   H40822098   3.576   3.482   3.257  0.6952  0.9733 -0.4997
   46MOL   H40922099   3.713   3.277   3.201  1.1450 -1.6110  2.3163
   46MOL   C41022100   3.536   3.555   3.574 -0.2764 -0.1578 -0.3646
   46MOL   C41122101   3.424   3.538   3.658  0.2427 -0.7724 -0.5206
   46MOL   C41222102   3.316   3.629   3.644  0.5455 -0.3192 -0.1010
   46MOL   C41322103   3.313   3.734   3.545  0.0287  0.7243  0.4780
   46MOL   C41422104   3.432   3.753   3.468  0.6794  0.2048 -0.3408
   46MOL   C41522105   3.538   3.663   3.474 -0.0099  0.0126 -0.4718
   46MOL   S41622106   3.171   3.604   3.742 -0.0627 -0.5856 -0.4174
   46MOL   O41722107   3.213   3.591   3.884  0.8384 -0.0938  0.0799
   46MOL   O41822108   3.101   3.488   3.689 -0.4864 -0.4353  0.1347
   46MOL   C41922109   3.066   3.754   3.723  0.3757 -0.3991  0.2678
   46MOL   C42022110   3.077   3.872   3.793  0.3368 -0.1799 -0.1049
   46MOL   C42122111   3.009   3.986   3.753  0.1869  0.2754  0.5767
   46MOL   C42222112   2.918   3.983   3.654  0.5515 -0.4921 -0.2785
   46MOL   C42322113   2.896   3.862   3.581  0.4817  0.1186 -0.6081
   46MOL   C42422114   2.978   3.753   3.610  0.2957  0.1630 -0.3277
   46MOL   O42522115   2.837   4.092   3.633 -0.6898 -0.4862 -0.2948
   46MOL   H42622116   3.625   3.495   3.582 -0.5183 -0.6221 -1.1498
   46MOL   H42722117   3.419   3.472   3.743 -1.9574  0.5733  0.4485
   46MOL   H42822118   3.226   3.794   3.524 -0.0013  0.0467 -1.5091
   46MOL   H42922119   3.445   3.832   3.395  2.1723  2.7530  2.5718
   46MOL   H43022120   3.146   3.872   3.876  0.1239  0.1586  0.0787
   46MOL   H43122121   3.022   4.080   3.804 -1.4252  0.0138  1.4982
   46MOL   H43222122   2.824   3.858   3.501 -0.7908 -1.3938  0.5846
   46MOL   H43322123   2.963   3.660   3.557 -3.3059  1.0405 -0.9426
   46MOL   C43422124   2.840   4.331   3.684 -0.0895 -0.2709  0.2369
   46MOL   C43522125   2.900   4.460   3.665  0.3103 -0.1670  0.1521
   46MOL   C43622126   3.008   4.475   3.579 -0.1449 -0.0755 -0.0149
   46MOL   C43722127   3.066   4.364   3.515 -0.4929 -1.0301 -0.4753
   46MOL   C43822128   3.016   4.233   3.535 -0.1195  0.7899  0.2857
   46MOL   C43922129   2.901   4.216   3.618 -0.1309  0.2185  0.1733
   46MOL   S44022130   3.082   4.641   3.557 -0.1361 -0.0936 -0.0616
   46MOL   O44122131   3.213   4.627   3.490  0.1414  0.1783  0.9587
   46MOL   O44222132   3.073   4.711   3.689 -0.4191  0.1490  0.4755
   46MOL   C44322133   2.976   4.725   3.439  0.2664  0.6222 -0.5352
   46MOL   C44422134   3.027   4.769   3.319 -0.6362  0.0056 -0.4763
   46MOL   C44522135   2.949   4.847   3.236  0.2687 -0.4226  0.2847
   46MOL   C44622136   2.817   4.884   3.276  0.0994  0.2626 -0.1253
   46MOL   C44722137   2.771   4.838   3.397 -0.6671 -0.3301  0.1201
   46MOL   C44822138   2.841   4.752   3.477  0.5985  0.7463 -0.0138
   46MOL   O44922139   2.742   4.967   3.203 -0.5256 -0.5684  0.2606
   46MOL   H45022140   2.754   4.334   3.749  0.3043  1.6668  0.6975
   46MOL   H45122141   2.862   4.544   3.720 -0.8080 -1.0730  0.7808
   46MOL   H45222142   3.151   4.384   3.451 -0.7242 -2.5647 -1.2820
   46MOL   H45322143   3.062   4.153   3.479  0.0574  0.7511  0.4853
   46MOL   H45422144   3.131   4.752   3.294  0.0430 -0.2504  2.4181
   46MOL   H45522145   2.985   4.884   3.141 -2.2688  0.7694 -0.2592
   46MOL   H45622146   2.672   4.870   3.425 -0.2097  2.9573 -1.8083
   46MOL   H45722147   2.798   4.716   3.569 -0.4164  2.5817  0.2512
   46MOL   C45822148   2.724   4.958   2.965 -0.2517 -0.2073  0.1898
   46MOL   C45922149   2.680   4.909   2.843  1.1108 -0.0402 -0.0217
   46MOL   C46022150   2.586   4.806   2.851  0.0035  0.3521 -0.1890
   46MOL   C46122151   2.537   4.762   2.978  0.1742 -0.6982 -0.1223
   46MOL   C46222152   2.596   4.805   3.097 -0.0601  0.8726 -0.2853
   46MOL   C46322153   2.688   4.910   3.093  0.5333  0.5041 -0.0700
   46MOL   S46422154   2.512   4.748   2.695  0.0147 -0.0212  0.2615
   46MOL   O46522155   2.396   4.659   2.709 -0.4572 -0.2532 -0.2982
   46MOL   O46622156   2.627   4.708   2.613  0.4168 -0.1433  0.5582
   46MOL   C46722157   2.441   4.893   2.617 -0.0821  0.1420  0.3006
   46MOL   C46822158   2.410   4.868   2.481 -0.1031  0.2224 -0.3877
   46MOL   C46922159   2.344   4.965   2.397  0.2840  0.3200 -0.2629
   46MOL   C47022160   2.318   5.090   2.454  0.7044 -0.1874  0.0712
   46MOL   C47122161   2.344   5.117   2.591  0.0659 -0.0925 -0.3615
   46MOL   C47222162   2.403   5.015   2.676 -0.1854  0.0452 -0.2337
   46MOL   O47322163   2.244   5.185   2.384  0.6009  0.1634  0.3888
   46MOL   H47422164   2.799   5.036   2.965  1.7742 -2.0907 -1.7341
   46MOL   H47522165   2.719   4.953   2.753 -0.6540  1.7117  0.0269
   46MOL   H47622166   2.466   4.681   2.980 -0.4117 -0.3175 -3.1411
   46MOL   H47722167   2.576   4.764   3.195 -1.8661  1.5274 -0.3600
   46MOL   H47822168   2.430   4.769   2.443  1.0910 -0.3178  1.6007
   46MOL   H47922169   2.306   4.943   2.298 -0.4651 -1.7122  0.4471
   46MOL   H48022170   2.306   5.207   2.636  1.8350  0.9201 -0.8453
   46MOL   H48122171   2.426   5.030   2.781  2.6302 -0.0097 -0.8138
   46MOL   H48222172   2.220   5.158   2.297 -0.0663  0.1928  0.5623
   47MOL     C122173   4.217   3.528   6.414  0.6319 -0.3037 -0.4462
   47MOL     C222174   4.162   3.469   6.302  0.3632  0.6824  0.2950
   47MOL     C322175   4.241   3.433   6.190 -0.4215 -0.2202  0.0409
   47MOL     C422176   4.381   3.443   6.203 -0.5105 -0.0106  0.0596
   47MOL     C522177   4.436   3.510   6.316  0.4648 -0.4626  0.5281
   47MOL     C622178   4.354   3.547   6.426  0.0563  0.1179  0.6344
   47MOL     S722179   4.172   3.342   6.049  0.0367 -0.0924  0.4163
   47MOL     O822180   4.100   3.235   6.108  0.0202  0.3815 -0.0539
   47MOL     O922181   4.274   3.311   5.952  0.2621  0.2138 -0.3238
   47MOL    C1022182   4.055   3.458   5.976 -0.2997  0.0539 -0.1020
   47MOL    C1122183   3.926   3.453   6.023  0.2518  0.4327 -0.4214
   47MOL    C1222184   3.831   3.535   5.960 -0.4523 -0.5116  0.3652
   47MOL    C1322185   3.873   3.640   5.872 -0.0384  0.2853 -0.2890
   47MOL    C1422186   4.001   3.635   5.824  0.0847 -0.4240  0.4105
   47MOL    C1522187   4.099   3.546   5.878 -0.1285  0.4334 -0.0909
   47MOL    O1622188   3.788   3.730   5.814 -0.0156  0.0468 -0.0800
   47MOL    H1722189   4.161   3.569   6.497  0.8628 -3.1491  1.1929
   47MOL    H1822190   4.058   3.440   6.300  0.0834  1.7864 -1.2726
   47MOL    H1922191   4.434   3.410   6.115 -2.6662  0.4055 -1.4304
   47MOL    H2022192   4.544   3.511   6.317  0.4751  0.8369 -1.0896
   47MOL    H2122193   3.895   3.385   6.101  1.4701 -1.7602 -1.8139
   47MOL    H2222194   3.730   3.521   5.994 -0.6700  1.5784  0.6435
   47MOL    H2322195   4.040   3.699   5.747 -0.4992 -0.5398  0.0188
   47MOL    H2422196   4.202   3.541   5.846 -0.1745  3.0233 -0.7381
   47MOL    H2522197   4.407   3.594   6.507  0.6575 -2.5267  1.8324
   47MOL    C2622198   3.634   3.622   5.666 -0.1699 -0.2502  0.1609
   47MOL    C2722199   3.498   3.593   5.636  0.4672 -0.1898 -0.7196
   47MOL    C2822200   3.397   3.640   5.722 -0.0321 -0.7626 -0.3377
   47MOL    C2922201   3.423   3.706   5.839 -0.6777  0.4515 -0.4142
   47MOL    C3022202   3.554   3.745   5.873  0.8860  0.2683 -0.6249
   47MOL    C3122203   3.658   3.697   5.786 -0.4940 -0.3457  0.7601
   47MOL    S3222204   3.224   3.611   5.661 -0.2091  0.3049 -0.0651
   47MOL    O3322205   3.170   3.507   5.750  0.2582  0.5235 -0.0783
   47MOL    O3422206   3.230   3.575   5.518  0.3392  0.0183  0.1818
   47MOL    C3522207   3.152   3.777   5.694 -0.0962 -0.3883  0.7071
   47MOL    C3622208   3.049   3.791   5.790 -0.0611 -0.2676  0.1836
   47MOL    C3722209   3.010   3.913   5.844  0.6101 -0.3183 -0.1308
   47MOL    C3822210   3.076   4.028   5.799  0.0107 -0.1813  0.1516
   47MOL    C3922211   3.170   4.017   5.692  0.5617  0.0951 -0.2660
   47MOL    C4022212   3.214   3.893   5.641  0.1849 -0.1468  0.5625
   47MOL    O4122213   3.044   4.149   5.858  0.0262  0.2390 -0.2767
   47MOL    H4222214   3.717   3.593   5.603  0.4537  0.9983  0.3836
   47MOL    H4322215   3.470   3.538   5.547 -2.8950 -0.6641  0.5434
   47MOL    H4422216   3.336   3.727   5.900 -2.6013 -2.1982 -2.1611
   47MOL    H4522217   3.577   3.796   5.965  0.2620 -0.9840  0.2316
   47MOL    H4622218   3.002   3.699   5.823 -0.5145  0.7053  2.3460
   47MOL    H4722219   2.928   3.919   5.914 -0.6983  2.3790 -1.8257
   47MOL    H4822220   3.211   4.106   5.647  1.0011  0.5683  1.0280
   47MOL    H4922221   3.285   3.875   5.562  1.7775  1.1936  1.6555
   47MOL    C5022222   3.103   4.370   5.787 -0.2193 -0.8768  0.5297
   47MOL    C5122223   3.205   4.462   5.765 -0.2194  0.4303 -0.2963
   47MOL    C5222224   3.339   4.430   5.797  0.3335 -0.4871 -0.5778
   47MOL    C5322225   3.375   4.312   5.861  0.4458 -0.3118  0.3547
   47MOL    C5422226   3.274   4.220   5.890 -0.3284  0.4654 -0.5166
   47MOL    C5522227   3.138   4.248   5.842  0.6281 -0.1812  0.0142
   47MOL    S5622228   3.465   4.557   5.776 -0.0345  0.0046 -0.6495
   47MOL    O5722229   3.587   4.517   5.855 -0.1991  0.3102  0.2324
   47MOL    O5822230   3.417   4.691   5.804  0.0242  0.1881  0.9041
   47MOL    C5922231   3.518   4.560   5.605  0.6444 -0.8943  0.4578
   47MOL    C6022232   3.477   4.461   5.519 -0.0489 -0.6813 -0.1635
   47MOL    C6122233   3.483   4.477   5.378 -0.2882  0.4268  0.4269
   47MOL    C6222234   3.533   4.594   5.321 -0.3639  0.2358 -0.4506
   47MOL    C6322235   3.585   4.695   5.408  0.5513  0.8460  0.7080
   47MOL    C6422236   3.582   4.680   5.549  0.8387  0.0733  0.1331
   47MOL    O6522237   3.538   4.604   5.188 -0.0129 -0.7433  0.2215
   47MOL    H6622238   3.003   4.396   5.758  0.8174  1.2953 -1.2770
   47MOL    H6722239   3.173   4.557   5.726 -1.3976  0.7123  1.3060
   47MOL    H6822240   3.479   4.299   5.886  0.9792  0.2072 -1.4674
   47MOL    H6922241   3.292   4.129   5.944  1.0086  0.7611 -0.4515
   47MOL    H7022242   3.425   4.378   5.564 -2.1857  1.3740  1.3326
   47MOL    H7122243   3.442   4.393   5.324  3.2335  1.4069 -4.1501
   47MOL    H7222244   3.612   4.791   5.365 -2.6297  2.2923  1.7937
   47MOL    H7322245   3.608   4.767   5.608 -2.4857  1.8191 -0.8857
   47MOL    C7422246   3.744   4.645   5.076  0.1758  0.2456  0.2201
   47MOL    C7522247   3.850   4.604   4.996 -0.0195 -0.3110  0.5305
   47MOL    C7622248   3.874   4.474   4.979  0.1664 -0.0028 -0.0366
   47MOL    C7722249   3.772   4.378   5.022 -0.1952  0.6826  0.2269
   47MOL    C7822250   3.659   4.417   5.092  0.0330 -0.1073  0.7945
   47MOL    C7922251   3.646   4.554   5.121 -0.8831 -0.1076  0.2005
   47MOL    S8022252   4.014   4.427   4.884 -0.2467  0.0497 -0.4076
   47MOL    O8122253   4.057   4.544   4.805 -0.1510 -0.0282 -0.0992
   47MOL    O8222254   3.974   4.303   4.807  0.0796 -0.1032  0.3045
   47MOL    C8322255   4.143   4.379   4.996  0.8186  0.3769  0.4804
   47MOL    C8422256   4.136   4.382   5.135  0.2547 -0.4130 -0.1771
   47MOL    C8522257   4.247   4.340   5.214  0.7343 -0.1684  0.4726
   47MOL    C8622258   4.363   4.287   5.155 -0.4213 -0.5406 -0.3845
   47MOL    C8722259   4.381   4.293   5.016  0.4000  0.8148 -0.1791
   47MOL    C8822260   4.268   4.337   4.938  0.3302 -0.1321 -0.3236
   47MOL    O8922261   4.465   4.256   5.235  0.6852  0.1380  0.6196
   47MOL    H9022262   3.724   4.747   5.106 -0.0584  0.0655  0.6956
   47MOL    H9122263   3.911   4.687   4.963  0.0907  0.8173  3.4073
   47MOL    H9222264   3.778   4.271   5.007 -2.6403  0.5716 -0.1128
   47MOL    H9322265   3.596   4.332   5.116  1.6707 -1.1673  1.3612
   47MOL    H9422266   4.048   4.421   5.183  1.7385  1.9959  0.6691
   47MOL    H9522267   4.240   4.346   5.321  1.9216 -2.2223  0.6804
   47MOL    H9622268   4.471   4.264   4.964  0.8996  1.8161  0.0955
   47MOL    H9722269   4.276   4.341   4.830  1.7156 -1.3940 -0.2769
   47MOL    C9822270   4.583   4.048   5.182  0.5940  0.2801  0.6816
   47MOL    C9922271   4.605   3.911   5.207 -0.3641  0.2153  0.0044
   47MOL   C10022272   4.529   3.847   5.306 -0.1288  0.1641 -0.5774
   47MOL   C10122273   4.441   3.918   5.393 -0.0249  0.3628 -0.9629
   47MOL   C10222274   4.427   4.061   5.367  0.5443  0.5358  1.2549
   47MOL   C10322275   4.492   4.122   5.258 -0.6351  0.2308  0.1804
   47MOL   S10422276   4.541   3.664   5.314  0.0321  0.0305 -0.1572
   47MOL   O10522277   4.455   3.617   5.427  0.1032 -0.2579  0.0059
   47MOL   O10622278   4.682   3.622   5.310  0.0962  0.1525 -0.6345
   47MOL   C10722279   4.465   3.596   5.168  0.4126 -0.0277  0.7123
   47MOL   C10822280   4.335   3.648   5.132 -0.5009 -0.6634  0.3658
   47MOL   C10922281   4.276   3.614   5.008 -0.4109  0.7443  0.3852
   47MOL   C11022282   4.345   3.529   4.922  0.3934  0.1184 -0.2538
   47MOL   C11122283   4.466   3.467   4.971 -0.5475  0.0356  0.1389
   47MOL   C11222284   4.529   3.501   5.091 -0.5089  0.2646 -0.2457
   47MOL   O11322285   4.295   3.507   4.794 -0.2829 -0.2527  0.0078
   47MOL   H11422286   4.626   4.100   5.097 -1.3198  0.2893 -0.3031
   47MOL   H11522287   4.663   3.848   5.141 -1.0521 -0.4414  0.0162
   47MOL   H11622288   4.390   3.865   5.472 -0.1836  0.1508 -1.2048
   47MOL   H11722289   4.354   4.119   5.420 -1.2209  0.2016 -0.7763
   47MOL   H11822290   4.289   3.724   5.193 -0.3190 -0.2691  0.0176
   47MOL   H11922291   4.182   3.660   4.982 -0.6340 -0.2190 -0.5413
   47MOL   H12022292   4.513   3.392   4.909  0.8069  1.2363 -0.3028
   47MOL   H12122293   4.620   3.460   5.131 -1.4725  0.5196  2.3251
   47MOL   C12222294   4.077   3.535   4.701 -0.1169  0.3168 -0.4708
   47MOL   C12322295   3.945   3.494   4.683 -0.7081  0.2535  1.2045
   47MOL   C12422296   3.894   3.381   4.760  0.5461  0.7690 -0.3446
   47MOL   C12522297   3.985   3.307   4.837 -0.7156 -0.0444  0.0430
   47MOL   C12622298   4.117   3.348   4.849 -0.0519 -0.1394 -0.3395
   47MOL   C12722299   4.164   3.468   4.786 -0.2023  0.2175 -0.5338
   47MOL   S12822300   3.726   3.328   4.740 -0.0249  0.3733 -0.0122
   47MOL   O12922301   3.728   3.183   4.753 -0.9648 -1.1176  0.0469
   47MOL   O13022302   3.666   3.390   4.617  0.1432 -0.5080 -0.4458
   47MOL   C13122303   3.643   3.391   4.883 -0.3548  0.0445  0.3056
   47MOL   C13222304   3.697   3.380   5.008  0.1667 -0.1543 -1.1033
   47MOL   C13322305   3.624   3.426   5.123  0.3974 -0.1249  0.2817
   47MOL   C13422306   3.495   3.485   5.104 -0.2484 -0.5502 -0.1510
   47MOL   C13522307   3.433   3.493   4.978  0.0680  0.7239  0.2534
   47MOL   C13622308   3.511   3.448   4.868  0.1809 -0.1225  0.2471
   47MOL   O13722309   3.425   3.537   5.214  0.3900  0.9978 -0.1301
   47MOL   H13822310   4.111   3.622   4.647  0.7506 -0.0311 -0.4970
   47MOL   H13922311   3.878   3.549   4.619 -1.5152 -0.4647  1.4294
   47MOL   H14022312   3.949   3.222   4.893 -1.7331 -0.0313 -0.5787
   47MOL   H14122313   4.186   3.290   4.909  0.1848 -0.0786 -0.5503
   47MOL   H14222314   3.795   3.338   5.029 -0.0929 -0.4383 -0.4512
   47MOL   H14322315   3.665   3.422   5.223  0.4453 -1.4840  0.2148
   47MOL   H14422316   3.340   3.544   4.961  0.2341  1.1169  0.5024
   47MOL   H14522317   3.464   3.455   4.771  0.2636 -0.4591  0.1842
   47MOL   C14622318   3.363   3.771   5.231  0.2694  0.0837  0.1840
   47MOL   C14722319   3.385   3.900   5.278  0.0654  0.2106 -0.8146
   47MOL   C14822320   3.499   3.920   5.359  0.1061  0.0908  0.0421
   47MOL   C14922321   3.592   3.820   5.376  0.1506 -0.3008  0.2057
   47MOL   C15022322   3.574   3.690   5.324 -0.3112  0.2880  0.1885
   47MOL   C15122323   3.455   3.662   5.254  0.1139 -0.1475 -0.3822
   47MOL   S15222324   3.522   4.088   5.407 -0.3712 -0.1757  0.5863
   47MOL   O15322325   3.411   4.130   5.493 -0.0132 -0.1505 -0.4069
   47MOL   O15422326   3.549   4.159   5.279  0.4678 -0.7612 -0.2517
   47MOL   C15522327   3.675   4.105   5.514 -0.1863 -0.2621 -0.3227
   47MOL   C15622328   3.787   4.162   5.468  0.1804 -0.5853  0.7020
   47MOL   C15722329   3.905   4.174   5.544 -0.2262  0.4230 -0.1188
   47MOL   C15822330   3.909   4.122   5.671 -0.1726  0.1313 -0.1844
   47MOL   C15922331   3.787   4.076   5.727 -0.4672 -0.2021 -0.4303
   47MOL   C16022332   3.669   4.064   5.652 -0.2455 -0.0017 -0.2557
   47MOL   O16122333   4.023   4.116   5.751 -0.5019 -0.3742  0.4550
   47MOL   H16222334   3.274   3.747   5.175  1.1886 -0.1202 -1.2309
   47MOL   H16322335   3.310   3.977   5.263 -0.5538 -0.9203 -3.7915
   47MOL   H16422336   3.678   3.839   5.439  1.8811 -1.1297 -1.8657
   47MOL   H16522337   3.645   3.612   5.346 -0.5304 -0.0886 -0.4215
   47MOL   H16622338   3.792   4.204   5.369  1.3265  1.0562  1.4374
   47MOL   H16722339   3.992   4.217   5.497  0.6313  0.9857  1.9279
   47MOL   H16822340   3.781   4.054   5.833 -1.8729 -1.7178 -0.8017
   47MOL   H16922341   3.576   4.028   5.693 -0.5853  2.2799  1.0300
   47MOL   C17022342   3.989   4.338   5.835  0.6918  0.0925 -0.5862
   47MOL   C17122343   4.036   4.441   5.922 -0.1319 -0.0471 -0.1771
   47MOL   C17222344   4.171   4.446   5.960 -0.1380 -0.6914  0.1704
   47MOL   C17322345   4.263   4.363   5.899  0.3540  0.1906  0.0957
   47MOL   C17422346   4.217   4.259   5.818 -0.0579  0.2555  0.5582
   47MOL   C17522347   4.078   4.237   5.795  0.1172 -0.2550 -0.7539
   47MOL   S17622348   4.212   4.587   6.067 -0.0376 -0.0938 -0.1500
   47MOL   O17722349   4.118   4.695   6.033 -0.1589 -0.3349  0.3723
   47MOL   O17822350   4.354   4.627   6.048 -0.3530 -0.1133 -0.5918
   47MOL   C17922351   4.195   4.535   6.240 -0.1699 -0.5559 -0.6638
   47MOL   C18022352   4.126   4.418   6.268  0.1496 -0.0476 -0.0206
   47MOL   C18122353   4.114   4.384   6.401 -0.3352 -0.6730 -0.4542
   47MOL   C18222354   4.181   4.449   6.506 -0.0075 -0.0934 -0.1110
   47MOL   C18322355   4.263   4.565   6.476  0.2500 -0.8699 -0.2350
   47MOL   C18422356   4.264   4.613   6.342 -0.3926 -0.0953 -0.0654
   47MOL   O18522357   4.175   4.410   6.639  0.2903  1.0102  0.0346
   47MOL   H18622358   3.884   4.340   5.810  0.5161  2.7926  0.2663
   47MOL   H18722359   3.964   4.516   5.952 -0.0596  0.7514 -1.9279
   47MOL   H18822360   4.367   4.369   5.928  0.6509 -0.3643 -0.8416
   47MOL   H18922361   4.297   4.194   5.787  1.1533  0.8602  2.3064
   47MOL   H19022362   4.093   4.357   6.185  1.0704  0.0394 -0.4559
   47MOL   H19122363   4.064   4.295   6.435 -0.3220 -1.4010 -2.2744
   47MOL   H19222364   4.325   4.609   6.553 -0.0344 -0.7347 -0.0830
   47MOL   H19322365   4.332   4.694   6.319  3.2270 -2.7730  0.7774
   47MOL   C19422366   4.128   4.507   6.849 -0.2352  0.2396  0.1738
   47MOL   C19522367   4.042   4.562   6.941 -0.0354  0.3575  0.4685
   47MOL   C19622368   3.911   4.595   6.904  0.3243 -0.3057  0.4596
   47MOL   C19722369   3.869   4.558   6.773 -0.0773  0.1517 -0.2381
   47MOL   C19822370   3.959   4.510   6.676 -0.5858 -0.0246 -0.0076
   47MOL   C19922371   4.091   4.481   6.717 -0.0780  0.0240  0.5124
   47MOL   S20022372   3.780   4.618   7.023 -0.0138 -0.4488 -0.1727
   47MOL   O20122373   3.762   4.487   7.076  0.6060  0.4319  0.3330
   47MOL   O20222374   3.666   4.693   6.963 -0.3687  0.1002  0.2286
   47MOL   C20322375   3.852   4.726   7.151 -0.4578  0.0632 -0.7858
   47MOL   C20422376   3.859   4.684   7.287 -0.2314 -0.1592 -0.3477
   47MOL   C20522377   3.930   4.762   7.382  0.8496  0.3758 -0.6967
   47MOL   C20622378   3.994   4.880   7.332 -0.5919  0.3720 -0.4322
   47MOL   C20722379   3.982   4.927   7.197 -0.3789 -0.3451 -0.5205
   47MOL   C20822380   3.909   4.846   7.106 -0.1752 -0.5846 -0.0419
   47MOL   O20922381   4.075   4.948   7.420 -0.5193 -0.0404 -0.0569
   47MOL   H21022382   4.228   4.474   6.872 -1.0392 -2.0923  0.3777
   47MOL   H21122383   4.084   4.579   7.039 -0.2653 -2.1797  1.0259
   47MOL   H21222384   3.766   4.571   6.745  0.1116  0.6828 -0.7079
   47MOL   H21322385   3.926   4.493   6.574 -1.0901  0.6294  0.0501
   47MOL   H21422386   3.822   4.587   7.316  0.9537 -1.2014 -2.2021
   47MOL   H21522387   3.948   4.719   7.480 -1.6007  0.4539 -0.1711
   47MOL   H21622388   4.025   5.019   7.159 -1.9315  0.4355 -0.3918
   47MOL   H21722389   3.892   4.870   7.002  0.2273 -2.1314 -0.4695
   47MOL   C21822390   4.062   5.185   7.430 -0.3067 -0.2212 -0.0188
   47MOL   C21922391   4.015   5.304   7.490  0.2047  1.0614  0.4373
   47MOL   C22022392   3.922   5.291   7.595 -0.1460 -0.1669  0.4355
   47MOL   C22122393   3.883   5.166   7.645 -0.8606 -0.7004 -0.1411
   47MOL   C22222394   3.937   5.053   7.584  0.3211 -0.0863 -0.1371
   47MOL   C22322395   4.025   5.061   7.478 -0.1584 -0.6773  0.2639
   47MOL   S22422396   3.821   5.424   7.649 -0.2381  0.0078  0.1036
   47MOL   O22522397   3.690   5.381   7.697  0.0010 -0.0919  0.0334
   47MOL   O22622398   3.831   5.523   7.547  0.1851 -0.1287  0.0811
   47MOL   C22722399   3.919   5.483   7.786 -0.3842 -0.4860 -0.3847
   47MOL   C22822400   3.916   5.422   7.910  0.3021 -0.2945 -0.6502
   47MOL   C22922401   4.014   5.458   8.005 -0.5329 -0.0885  0.1029
   47MOL   C23022402   4.118   5.547   7.976  1.1952 -0.1684  0.3551
   47MOL   C23122403   4.115   5.608   7.850  0.4318  0.3983 -0.2694
   47MOL   C23222404   4.018   5.578   7.757  0.0476 -0.4706  0.0414
   47MOL   O23322405   4.222   5.588   8.060 -0.0843  0.5920 -0.3077
   47MOL   H23422406   4.137   5.183   7.351  0.0185 -0.4002  0.2912
   47MOL   H23522407   4.052   5.398   7.453  2.8075  0.5936  1.7224
   47MOL   H23622408   3.811   5.162   7.726 -1.9610 -1.7511 -1.1423
   47MOL   H23722409   3.896   4.960   7.621  1.5759 -0.0991  1.2797
   47MOL   H23822410   3.843   5.343   7.920  0.1815 -0.2338 -1.0298
   47MOL   H23922411   4.012   5.412   8.102 -0.2606  2.1401  1.1951
   47MOL   H24022412   4.181   5.687   7.816  0.4801 -0.4391 -2.1878
   47MOL   H24122413   4.031   5.623   7.659  0.1493  1.0083  0.7219
   47MOL   C24222414   4.264   5.423   8.240  0.4154 -0.2223 -0.0288
   47MOL   C24322415   4.265   5.395   8.375  0.2101  0.5134  0.3558
   47MOL   C24422416   4.218   5.485   0.042 -0.2901  0.4606 -0.0710
   47MOL   C24522417   4.146   5.604   0.005 -0.4366  0.9148  0.2628
   47MOL   C24622418   4.165   5.638   8.293  0.2450  0.0910  0.0634
   47MOL   C24722419   4.220   5.553   8.197  0.5453  0.3818  0.8364
   47MOL   S24822420   4.219   5.436   0.220  0.0636  0.3780  0.6252
   47MOL   O24922421   4.246   5.566   0.292  0.5543 -0.2043 -0.3335
   47MOL   O25022422   4.306   5.321   0.249 -0.4393  0.2164 -1.0502
   47MOL   C25122423   4.048   5.398   0.257 -0.3796  0.1148 -0.1244
   47MOL   C25222424   4.000   5.271   0.210  0.0367 -0.6524  0.3414
   47MOL   C25322425   3.874   5.233   0.249  0.8877  0.2753 -0.2968
   47MOL   C25422426   3.797   5.318   0.331  0.1251  0.0471  0.3236
   47MOL   C25522427   3.844   5.443   0.374  0.2055  0.4022  0.3593
   47MOL   C25622428   3.973   5.478   0.345 -0.2064  0.2022  0.2254
   47MOL   O25722429   3.673   5.277   0.364  0.3440  0.4934  0.3127
   47MOL   H25822430   4.291   5.344   8.171 -2.2761  0.6105 -2.0728
   47MOL   H25922431   4.300   5.302   8.417 -0.3266  2.0853  4.4814
   47MOL   H26022432   4.104   5.670   0.079 -1.7331  1.3345 -0.8318
   47MOL   H26122433   4.143   5.738   8.259  0.8624  0.2021 -0.0126
   47MOL   H26222434   4.072   5.210   0.157 -1.0140 -1.6778  0.0834
   47MOL   H26322435   3.828   5.141   0.215  0.2550  0.8875 -1.1057
   47MOL   H26422436   3.783   5.507   0.436 -1.3072 -1.3385  0.6892
   47MOL   H26522437   4.016   5.569   0.386 -1.0750  0.2521  1.0322
   47MOL   C26622438   3.530   5.098   0.432 -0.1579  0.3755 -0.1470
   47MOL   C26722439   3.510   4.979   0.504  0.0363  0.8041  1.4340
   47MOL   C26822440   3.618   4.899   0.554  0.1572 -0.2131  0.1624
   47MOL   C26922441   3.743   4.961   0.556 -0.2471  0.2147  0.0215
   47MOL   C27022442   3.765   5.085   0.497  0.1296  1.1280 -0.0058
   47MOL   C27122443   3.657   5.152   0.427 -0.4523 -0.3384 -0.4204
   47MOL   S27222444   3.592   4.739   0.629 -0.1745 -0.0981 -0.2553
   47MOL   O27322445   3.718   4.675   0.669  0.0090  0.5117  0.2018
   47MOL   O27422446   3.502   4.666   0.540 -0.2582 -0.4928  0.4550
   47MOL   C27522447   3.507   4.770   0.782 -0.3414  0.0693  0.2333
   47MOL   C27622448   3.388   4.707   0.820 -1.1085 -0.7586 -0.0862
   47MOL   C27722449   3.336   4.720   0.948 -0.1904  0.3088 -0.0362
   47MOL   C27822450   3.411   4.798   1.044  0.6015  0.0921 -0.4553
   47MOL   C27922451   3.530   4.861   1.010 -0.8795  0.6505 -0.6781
   47MOL   C28022452   3.576   4.843   0.879  0.0996 -0.0433  0.0196
   47MOL   O28122453   3.358   4.810   1.171  0.1887  0.0681 -0.0867
   47MOL   H28222454   3.445   5.150   0.391 -1.0420 -0.8265  0.1289
   47MOL   H28322455   3.413   4.933   0.499  0.5735 -0.1119 -1.2021
   47MOL   H28422456   3.826   4.918   0.611 -0.0923  0.2389 -0.1907
   47MOL   H28522457   3.863   5.129   0.498  0.5259  0.3314 -1.8653
   47MOL   H28622458   3.334   4.644   0.751 -1.2666 -1.0179  0.2756
   47MOL   H28722459   3.248   4.662   0.972 -0.1808  0.2956 -0.0332
   47MOL   H28822460   3.584   4.915   1.087 -0.0201  1.9331 -2.1371
   47MOL   H28922461   3.672   4.884   0.849 -0.8486  0.0872 -2.9181
   47MOL   C29022462   3.405   4.597   1.266 -0.2748  0.1743  0.2454
   47MOL   C29122463   3.478   4.516   1.360  0.5695 -0.5200 -0.4006
   47MOL   C29222464   3.555   4.585   1.459 -0.4767 -0.0719 -0.0281
   47MOL   C29322465   3.565   4.725   1.464 -0.6675 -0.0509  0.2063
   47MOL   C29422466   3.492   4.797   1.370 -0.2028 -0.4647  0.3366
   47MOL   C29522467   3.412   4.738   1.273  0.4846 -0.4642  0.3537
   47MOL   S29622468   3.672   4.492   1.557 -0.0705 -0.2144  0.2261
   47MOL   O29722469   3.804   4.551   1.525  0.6285 -0.3975 -0.2792
   47MOL   O29822470   3.649   4.347   1.531  0.1346  0.3764 -0.1514
   47MOL   C29922471   3.640   4.531   1.720  0.3245 -0.0767 -0.3428
   47MOL   C30022472   3.552   4.450   1.791 -0.4989  0.1378  0.1942
   47MOL   C30122473   3.515   4.479   1.927 -0.8899 -0.0077  0.2680
   47MOL   C30222474   3.585   4.584   1.990 -0.0361 -0.0459 -0.5143
   47MOL   C30322475   3.680   4.659   1.918  0.3674 -0.8149  0.8447
   47MOL   C30422476   3.705   4.641   1.779 -0.2247  0.0429 -0.3915
   47MOL   O30522477   3.567   4.610   2.123 -0.7937 -0.1577  0.3662
   47MOL   H30622478   3.345   4.543   1.194  0.9355  2.8971 -2.9731
   47MOL   H30722479   3.485   4.409   1.346 -3.3977 -1.2474  2.3585
   47MOL   H30822480   3.635   4.765   1.536 -1.4751  2.0352 -0.1303
   47MOL   H30922481   3.496   4.905   1.380 -1.2351 -0.3200 -0.6462
   47MOL   H31022482   3.510   4.358   1.753 -0.6234  0.1849  0.2161
   47MOL   H31122483   3.445   4.419   1.982  1.1821 -1.7082  1.0983
   47MOL   H31222484   3.735   4.743   1.957 -0.9095  0.8292 -0.8257
   47MOL   H31322485   3.780   4.699   1.727 -0.4963  0.1830 -0.6291
   47MOL   C31422486   3.736   4.704   2.254 -0.6814 -0.3919  0.9530
   47MOL   C31522487   3.838   4.686   2.347 -0.3434 -0.5360 -0.2637
   47MOL   C31622488   3.882   4.558   2.379  0.3132 -1.4951  0.5225
   47MOL   C31722489   3.824   4.446   2.316 -0.0168  0.2624  0.6849
   47MOL   C31822490   3.718   4.462   2.226 -0.0093  0.5827  0.4928
   47MOL   C31922491   3.672   4.593   2.203  0.5070 -0.3503  0.1255
   47MOL   S32022492   4.014   4.540   2.483  0.3925  0.1426 -0.3630
   47MOL   O32122493   4.038   4.397   2.508 -0.2386 -0.0638 -0.4907
   47MOL   O32222494   3.985   4.629   2.599  0.1194  0.3560  0.2001
   47MOL   C32322495   4.167   4.601   2.411  0.2954 -0.1130  0.4904
   47MOL   C32422496   4.266   4.684   2.476  0.1198  0.5042  0.3973
   47MOL   C32522497   4.387   4.716   2.412  0.4369  0.2295 -0.6019
   47MOL   C32622498   4.413   4.669   2.283  0.5360 -0.6623 -0.0848
   47MOL   C32722499   4.317   4.585   2.221  0.8240 -0.4661  0.7608
   47MOL   C32822500   4.196   4.550   2.286 -0.7913 -0.1345  1.0639
   47MOL   O32922501   4.536   4.704   2.229 -0.4559 -0.1409  0.1059
   47MOL   H33022502   3.692   4.797   2.222  0.0738  0.0924  1.3046
   47MOL   H33122503   3.895   4.774   2.375  0.7402 -1.1392 -0.5789
   47MOL   H33222504   3.867   4.349   2.337  1.5666  0.4799 -1.3950
   47MOL   H33322505   3.682   4.372   2.178  1.6224  0.1474  0.0495
   47MOL   H33422506   4.244   4.731   2.571  2.3711 -2.9406  2.7628
   47MOL   H33522507   4.461   4.779   2.460 -2.1747  1.3422  2.1338
   47MOL   H33622508   4.340   4.557   2.120 -3.1790 -1.7320  0.1160
   47MOL   H33722509   4.130   4.479   2.237  2.1654 -1.8442 -0.6269
   47MOL   C33822510   4.458   4.852   2.047  0.5298 -0.2927 -0.2462
   47MOL   C33922511   4.479   4.908   1.920 -0.4061 -0.3596  0.3249
   47MOL   C34022512   4.589   4.861   1.840  0.3451 -0.2278  0.6164
   47MOL   C34122513   4.672   4.759   1.893 -0.4576  0.0118 -0.2070
   47MOL   C34222514   4.648   4.702   2.018 -0.4963 -0.4329 -0.4295
   47MOL   C34322515   4.540   4.745   2.096 -0.2961 -0.1268  0.5044
   47MOL   S34422516   4.635   4.929   1.675 -0.3512  0.0084 -0.5319
   47MOL   O34522517   4.736   5.039   1.701  0.6980  0.1632  0.4722
   47MOL   O34622518   4.513   4.961   1.597 -0.2154  0.3574 -0.3202
   47MOL   C34722519   4.726   4.796   1.595  0.1536 -0.0425 -0.1773
   47MOL   C34822520   4.645   4.706   1.525  0.4592 -0.3242  0.1223
   47MOL   C34922521   4.702   4.585   1.474 -0.8724  0.0102  0.0045
   47MOL   C35022522   4.834   4.549   1.516 -0.8174 -0.4906 -0.4011
   47MOL   C35122523   4.911   4.652   1.581  0.0218  0.6400  0.4008
   47MOL   C35222524   4.861   4.771   1.622  0.2407  0.3100  0.3277
   47MOL   O35322525   4.881   4.424   1.477 -0.3343  0.0819 -0.6970
   47MOL   H35422526   4.385   4.892   2.115  1.8536 -0.6070  1.3947
   47MOL   H35522527   4.428   4.996   1.883 -1.2907 -0.6835  0.7632
   47MOL   H35622528   4.754   4.713   1.841 -0.0000  1.7701 -1.0968
   47MOL   H35722529   4.710   4.622   2.053  2.1904  0.2797 -3.3459
   47MOL   H35822530   4.544   4.730   1.498  1.3707  3.0220 -0.5464
   47MOL   H35922531   4.638   4.527   1.410 -0.6951  0.3237 -0.4615
   47MOL   H36022532   5.017   4.637   1.589  0.0864  1.5927  1.4626
   47MOL   H36122533   4.929   4.848   1.655  1.2843  0.3121 -1.7598
   47MOL   C36222534   5.011   4.366   1.667  0.0256  0.4595  0.1950
   47MOL   C36322535   5.134   4.311   1.712  0.1155  0.1603 -0.1620
   47MOL   C36422536   5.243   4.284   1.625 -0.7334 -0.0524  0.4755
   47MOL   C36522537   5.224   4.300   1.490  0.7709 -0.0648  0.2209
   47MOL   C36622538   5.099   4.350   1.440  0.0431 -0.0300  0.5512
   47MOL   C36722539   4.997   4.381   1.533  0.8389 -0.3558 -0.1047
   47MOL   S36822540   5.397   4.223   1.703  0.1548 -0.3884 -0.1738
   47MOL   O36922541   5.456   4.332   1.781 -0.2394 -0.0603 -0.1822
   47MOL   O37022542   5.473   4.140   1.607  0.4877 -0.0949  0.1640
   47MOL   C37122543   5.357   4.099   1.823 -0.0617  0.5356 -0.0495
   47MOL   C37222544   5.251   4.007   1.808 -0.0695  0.0264  0.5768
   47MOL   C37322545   5.232   3.906   1.898  0.7210 -0.2865  0.8705
   47MOL   C37422546   5.317   3.881   2.002  0.5159 -0.7655  0.8086
   47MOL   C37522547   5.419   3.972   2.023 -0.9558 -0.8265  0.5402
   47MOL   C37622548   5.443   4.079   1.936 -0.0475 -0.0071  0.4669
   47MOL   O37722549   5.295   3.778   2.085  0.8688 -0.3153  0.2134
   47MOL   H37822550   4.942   4.394   1.745  0.8044  0.4302  0.9080
   47MOL   H37922551   5.151   4.315   1.819  2.0397 -1.5731 -0.3771
   47MOL   H38022552   5.305   4.280   1.420  1.7742 -0.2730  1.4332
   47MOL   H38122553   5.068   4.361   1.337 -0.3981 -0.7918  0.5987
   47MOL   H38222554   5.175   4.013   1.732 -2.2523 -3.2245  2.4150
   47MOL   H38322555   5.158   3.829   1.880  0.0945  0.5183 -0.0448
   47MOL   H38422556   5.476   3.953   2.113  3.3926 -1.0956 -2.1673
   47MOL   H38522557   5.522   4.152   1.940 -0.4258  0.6128 -2.2148
   47MOL   C38622558   5.104   3.826   2.219  0.1358 -0.5564 -0.3382
   47MOL   C38722559   5.049   3.858   2.342 -0.0352  0.3311  0.5875
   47MOL   C38822560   5.130   3.867   2.455 -0.3898  0.8955  0.3036
   47MOL   C38922561   5.270   3.850   2.448  0.1371  0.2791 -0.5799
   47MOL   C39022562   5.325   3.829   2.322  0.3536 -0.5732 -0.3155
   47MOL   C39122563   5.242   3.817   2.205  0.1324 -0.7913  0.2390
   47MOL   S39222564   5.042   3.900   2.615 -0.3154  0.0653 -0.1909
   47MOL   O39322565   4.978   4.033   2.609  0.4449 -0.7723 -0.4427
   47MOL   O39422566   5.133   3.857   2.722  0.2447 -0.1460 -0.4557
   47MOL   C39522567   4.906   3.779   2.603 -0.3851  0.0239 -0.1969
   47MOL   C39622568   4.772   3.815   2.629  0.3588 -0.0490 -0.6771
   47MOL   C39722569   4.682   3.709   2.626 -0.8623 -0.5404  0.4570
   47MOL   C39822570   4.711   3.573   2.598 -0.3849  0.0780 -0.0184
   47MOL   C39922571   4.840   3.543   2.566 -0.8632 -0.0182 -0.5751
   47MOL   C40022572   4.946   3.644   2.579  0.3832 -0.0060 -0.0898
   47MOL   O40122573   4.609   3.486   2.594  0.7623 -0.4468  0.8111
   47MOL   H40222574   5.039   3.805   2.135 -1.3550 -0.9500  0.9004
   47MOL   H40322575   4.943   3.876   2.352 -0.0964 -0.8419  2.2219
   47MOL   H40422576   5.339   3.866   2.530  0.7943 -0.6844 -0.9379
   47MOL   H40522577   5.431   3.834   2.303  1.0612  3.1104  3.7606
   47MOL   H40622578   4.740   3.911   2.667 -0.8059 -0.9194  0.6027
   47MOL   H40722579   4.579   3.723   2.655 -0.9243  0.3864 -0.1843
   47MOL   H40822580   4.863   3.443   2.532 -0.5109 -0.7883  1.8299
   47MOL   H40922581   5.048   3.609   2.572 -0.1220 -1.6974  0.6449
   47MOL   C41022582   4.558   3.449   2.821  0.0387 -0.2710  1.2008
   47MOL   C41122583   4.514   3.358   2.919  0.8919 -0.2208 -0.1914
   47MOL   C41222584   4.537   3.214   2.903  0.2636 -0.2192  0.6753
   47MOL   C41322585   4.574   3.164   2.779 -0.1957  0.5466  0.5911
   47MOL   C41422586   4.607   3.262   2.682 -0.3695  0.1864  0.1971
   47MOL   C41522587   4.598   3.398   2.699  0.9723  0.8321 -0.4746
   47MOL   S41622588   4.486   3.105   3.037 -0.3136 -0.1760  0.3924
   47MOL   O41722589   4.392   3.012   2.972 -0.4079  0.4563 -0.1072
   47MOL   O41822590   4.445   3.193   3.143  0.3200 -0.1593 -0.4789
   47MOL   C41922591   4.614   3.001   3.091  0.0398  0.7031 -0.0667
   47MOL   C42022592   4.595   2.933   3.210  0.4309  0.6606  0.4234
   47MOL   C42122593   4.690   2.844   3.256  0.5451 -0.6996 -0.1946
   47MOL   C42222594   4.820   2.841   3.202 -0.4045 -1.2475  0.1707
   47MOL   C42322595   4.844   2.912   3.083 -0.3328  0.1472  0.1806
   47MOL   C42422596   4.742   2.986   3.026 -0.0825 -0.4646 -0.4271
   47MOL   O42522597   4.918   2.769   3.270  0.0211  0.5543 -0.2357
   47MOL   H42622598   4.535   3.551   2.848 -2.5012 -0.9107  1.5947
   47MOL   H42722599   4.475   3.386   3.016  1.7591  0.4199 -0.0099
   47MOL   H42822600   4.587   3.063   2.744 -4.2835  0.4572 -0.8891
   47MOL   H42922601   4.646   3.230   2.587  1.4873  0.7356  0.7648
   47MOL   H43022602   4.501   2.937   3.264 -0.1992 -0.7232 -0.5362
   47MOL   H43122603   4.667   2.794   3.349  0.3679 -0.8611 -0.3250
   47MOL   H43222604   4.939   2.896   3.034 -0.6747  0.6552 -0.6592
   47MOL   H43322605   4.766   3.033   2.932 -1.9918 -0.8785 -1.1443
   47MOL   C43422606   4.921   2.935   3.454  0.7438  0.4978 -0.0285
   47MOL   C43522607   4.992   2.982   3.570  1.0348  0.2234  0.9034
   47MOL   C43622608   5.122   2.941   3.602 -0.5953 -0.6198  0.2848
   47MOL   C43722609   5.180   2.840   3.522 -0.0749 -0.4822 -0.8790
   47MOL   C43822610   5.098   2.779   3.422 -0.6598  0.2429  0.0676
   47MOL   C43922611   4.975   2.823   3.384 -0.0207  0.8068 -0.7438
   47MOL   S44022612   5.210   3.020   3.735 -0.4034 -0.1078  0.1299
   47MOL   O44122613   5.119   3.015   3.852  0.0274 -0.0814 -0.0325
   47MOL   O44222614   5.253   3.152   3.681 -0.1764 -0.3276 -0.4131
   47MOL   C44322615   5.351   2.917   3.771  0.8726  0.1006 -0.4936
   47MOL   C44422616   5.329   2.779   3.816 -1.1094  0.6406  0.3327
   47MOL   C44522617   5.441   2.709   3.873  0.2192  0.0334  0.2396
   47MOL   C44622618   5.565   2.772   3.888 -0.2551 -0.4103 -0.0400
   47MOL   C44722619   5.583   2.905   3.852  0.1840  0.1008 -0.5810
   47MOL   C44822620   5.475   2.980   3.800 -0.1657 -0.4239 -0.4687
   47MOL   O44922621   5.664   2.698   3.943  0.2885  0.1025 -0.7000
   47MOL   H45022622   4.820   2.973   3.448  1.1587  1.3798 -1.7816
   47MOL   H45122623   4.932   3.052   3.627  0.3689  1.2898 -1.0409
   47MOL   H45222624   5.280   2.807   3.546 -0.3290  0.1001  1.1028
   47MOL   H45322625   5.142   2.700   3.363  0.4463  0.1296  1.0120
   47MOL   H45422626   5.233   2.729   3.809 -0.6310 -0.0993 -1.1921
   47MOL   H45522627   5.429   2.605   3.899  0.4282 -0.3176 -1.0469
   47MOL   H45622628   5.675   2.959   3.870 -0.5118  1.0295  0.2727
   47MOL   H45722629   5.494   3.081   3.765  1.1435 -0.6770 -0.5395
   47MOL   C45822630   5.617   2.580   4.150  0.7310 -0.3785  0.3505
   47MOL   C45922631   5.592   2.587   4.284  0.1975 -0.2794  0.2233
   47MOL   C46022632   5.633   2.704   4.357  0.3231 -0.8571  0.4143
   47MOL   C46122633   5.679   2.821   4.295  0.4419 -0.2028 -0.5312
   47MOL   C46222634   5.701   2.813   4.156 -0.4774 -0.0448  0.2618
   47MOL   C46322635   5.663   2.695   4.084 -0.1082  0.2706  0.7691
   47MOL   S46422636   5.600   2.708   4.530 -0.0045 -0.4875  0.2060
   47MOL   O46522637   5.593   2.565   4.578  0.2793 -0.7280 -0.4256
   47MOL   O46622638   5.485   2.793   4.562 -0.4238  0.0896  0.2816
   47MOL   C46722639   5.739   2.784   4.608 -0.7662  0.0872 -0.5112
   47MOL   C46822640   5.859   2.781   4.550 -0.0530  0.6551  0.1091
   47MOL   C46922641   5.974   2.838   4.613  0.0683 -0.1019  0.2346
   47MOL   C47022642   5.962   2.905   4.740  0.0419 -0.1488  0.2017
   47MOL   C47122643   5.834   2.906   4.795 -0.1868 -0.3598  0.0404
   47MOL   C47222644   5.723   2.846   4.730  0.2883 -0.0778 -0.4950
   47MOL   O47322645   6.065   2.974   4.794  0.2092  0.2900  0.0913
   47MOL   H47422646   5.595   2.491   4.092 -1.6730 -0.4990  1.3693
   47MOL   H47522647   5.559   2.498   4.335 -1.0813 -0.8083 -1.4901
   47MOL   H47622648   5.709   2.908   4.351 -1.7393  0.0601  0.2522
   47MOL   H47722649   5.742   2.895   4.100 -0.6679 -0.5589 -0.6506
   47MOL   H47822650   5.872   2.735   4.454  0.2888 -0.1102  0.5125
   47MOL   H47922651   6.072   2.828   4.568  1.1026  2.0823  1.8785
   47MOL   H48022652   5.812   2.954   4.889  0.1295 -1.3647  0.6409
   47MOL   H48122653   5.626   2.853   4.775  0.3051  4.0945 -0.8581
   47MOL   H48222654   6.091   3.035   4.727  0.5452 -0.3951 -0.4202
   48MOL     C122655   1.830   6.475   2.839 -0.5735  0.2780  0.5536
   48MOL     C222656   1.878   6.417   2.721  0.1892  0.5510  0.8278
   48MOL     C322657   2.019   6.398   2.700 -0.4695  0.3139  0.1223
   48MOL     C422658   2.104   6.455   2.802 -0.3704  0.4131  0.6108
   48MOL     C522659   2.054   6.527   2.907  0.2316 -0.5257  0.1022
   48MOL     C622660   1.915   6.530   2.935 -0.2353 -0.1299  0.2252
   48MOL     S722661   2.090   6.306   2.562  0.0943  0.3525  0.2122
   48MOL     O822662   2.231   6.345   2.550 -0.2741 -0.1405 -0.3601
   48MOL     O922663   2.004   6.320   2.446 -0.3289  0.5729  0.1129
   48MOL    C1022664   2.082   6.130   2.608  0.2080 -0.0655  0.0843
   48MOL    C1122665   1.974   6.069   2.674 -0.0183  0.1039 -0.2400
   48MOL    C1222666   1.969   5.932   2.690 -0.0657 -0.7804  0.1048
   48MOL    C1322667   2.079   5.855   2.646 -0.1494  0.9689 -0.0777
   48MOL    C1422668   2.195   5.914   2.588 -0.6036 -0.6609 -0.3033
   48MOL    C1522669   2.189   6.051   2.565 -0.2824  0.0492 -0.8573
   48MOL    O1622670   2.062   5.721   2.654  0.1156 -0.4242  0.4024
   48MOL    H1722671   1.725   6.473   2.863 -0.6224 -1.4963  0.2746
   48MOL    H1822672   1.814   6.399   2.636 -0.8819  0.4721  1.6499
   48MOL    H1922673   2.211   6.447   2.787 -0.6185 -2.3364  0.0123
   48MOL    H2022674   2.119   6.575   2.978 -0.9749  1.1605  0.0962
   48MOL    H2122675   1.884   6.118   2.707 -1.7778 -3.5009  0.5668
   48MOL    H2222676   1.880   5.886   2.731 -0.1282  0.4441  1.3747
   48MOL    H2322677   2.280   5.855   2.560 -0.2496 -0.6504  0.7093
   48MOL    H2422678   2.275   6.097   2.519  1.9437 -1.2848  1.8506
   48MOL    H2522679   1.878   6.562   3.031 -0.0470  1.5020 -0.2352
   48MOL    C2622680   2.236   5.565   2.681 -0.7754 -0.3156  0.1167
   48MOL    C2722681   2.302   5.474   2.762  0.2497  0.2262  0.0263
   48MOL    C2822682   2.280   5.476   2.903  0.3945  0.0847  0.4789
   48MOL    C2922683   2.183   5.559   2.963  1.0897 -0.3947 -0.6251
   48MOL    C3022684   2.112   5.650   2.876 -0.2771 -0.0028 -0.1758
   48MOL    C3122685   2.142   5.654   2.737  0.0535  0.0942  0.0514
   48MOL    S3222686   2.346   5.344   3.002 -0.1582 -0.2515  0.1167
   48MOL    O3322687   2.359   5.223   2.919 -0.4872 -0.1548 -0.0856
   48MOL    O3422688   2.261   5.334   3.120  0.7665  0.3175 -0.2467
   48MOL    C3522689   2.508   5.385   3.062  0.3653 -0.3807 -0.1060
   48MOL    C3622690   2.569   5.505   3.023  0.5918  0.0343  0.2897
   48MOL    C3722691   2.704   5.530   3.046  0.4994  0.2720 -0.0960
   48MOL    C3822692   2.785   5.429   3.104 -0.4885 -0.6570  0.0730
   48MOL    C3922693   2.725   5.307   3.141  0.1002 -0.2740  0.3569
   48MOL    C4022694   2.584   5.285   3.117 -0.3075 -0.7291  0.3311
   48MOL    O4122695   2.917   5.445   3.109 -0.7113 -0.3119 -0.3818
   48MOL    H4222696   2.263   5.566   2.576  1.5686 -0.7670  0.6755
   48MOL    H4322697   2.371   5.400   2.725 -0.9908  0.1003 -2.1558
   48MOL    H4422698   2.156   5.562   3.068  3.2977  1.5927 -0.0701
   48MOL    H4522699   2.038   5.715   2.920  1.5282  2.2420 -0.3349
   48MOL    H4622700   2.516   5.587   2.977 -0.4192 -0.2949  0.8461
   48MOL    H4722701   2.744   5.628   3.025  0.8938  0.6219  2.1707
   48MOL    H4822702   2.788   5.228   3.178  3.4382  1.5817 -1.1392
   48MOL    H4922703   2.534   5.190   3.131  2.3027 -2.2499 -0.2170
   48MOL    C5022704   3.131   5.321   3.081 -0.3914 -0.9137 -0.1124
   48MOL    C5122705   3.211   5.223   3.018 -0.1016  1.1847 -0.5618
   48MOL    C5222706   3.154   5.154   2.910  0.2197  0.1908 -0.2253
   48MOL    C5322707   3.024   5.180   2.865 -0.5351  0.3781  0.3551
   48MOL    C5422708   2.950   5.277   2.932  0.2018 -0.3130  0.1145
   48MOL    C5522709   2.998   5.349   3.041  0.4825 -0.9662  0.1429
   48MOL    S5622710   3.255   5.027   2.827  0.1688 -0.1532 -0.1196
   48MOL    O5722711   3.385   5.032   2.889 -0.4682 -0.0637  0.5198
   48MOL    O5822712   3.247   5.074   2.685  0.2498 -0.3719  0.2313
   48MOL    C5922713   3.177   4.864   2.837 -0.1407  0.0659  0.3775
   48MOL    C6022714   3.259   4.754   2.835  0.5251  0.3617  0.0436
   48MOL    C6122715   3.210   4.621   2.843 -0.9750 -0.3883 -0.1891
   48MOL    C6222716   3.070   4.594   2.853 -0.0088 -0.0826  0.0396
   48MOL    C6322717   2.988   4.710   2.854  0.0625  0.0820  0.0768
   48MOL    C6422718   3.038   4.843   2.856  0.3212  0.0900 -0.3807
   48MOL    O6522719   3.021   4.467   2.858 -0.2640  0.1245  0.4200
   48MOL    H6622720   3.167   5.384   3.161  0.5439 -1.4449 -0.1086
   48MOL    H6722721   3.315   5.201   3.038 -0.1297  1.3950 -0.1821
   48MOL    H6822722   2.995   5.130   2.774 -0.5867  1.2429 -0.1088
   48MOL    H6922723   2.849   5.294   2.895  1.0055  0.4906 -1.7949
   48MOL    H7022724   3.365   4.773   2.836  0.1766  2.4140  0.9075
   48MOL    H7122725   3.275   4.535   2.856 -0.3186  0.2975  1.1920
   48MOL    H7222726   2.884   4.687   2.870  0.2317 -0.1656  0.8302
   48MOL    H7322727   2.981   4.935   2.862  1.8123  1.0033 -0.1139
   48MOL    C7422728   2.945   4.263   2.746  0.3312  0.6171 -0.3229
   48MOL    C7522729   2.882   4.192   2.641 -0.0826 -0.5771  0.1544
   48MOL    C7622730   2.843   4.264   2.527  0.1602 -0.2632 -0.9100
   48MOL    C7722731   2.863   4.405   2.520  0.1618 -0.6272 -0.3155
   48MOL    C7822732   2.922   4.477   2.632 -0.4016 -0.1736  0.2911
   48MOL    C7922733   2.966   4.405   2.741  0.3462 -0.3225  0.2714
   48MOL    S8022734   2.787   4.171   2.387  0.2330 -0.2237  0.0694
   48MOL    O8122735   2.788   4.027   2.417  0.0384  0.2504  0.3752
   48MOL    O8222736   2.869   4.227   2.279  0.2003 -0.4096  0.5979
   48MOL    C8322737   2.619   4.227   2.346  0.1124 -0.4715  0.4502
   48MOL    C8422738   2.560   4.187   2.229 -0.1382  1.0132  0.5073
   48MOL    C8522739   2.434   4.233   2.187  0.5456  0.2280 -0.1842
   48MOL    C8622740   2.361   4.326   2.270  0.6406 -0.3488 -0.4968
   48MOL    C8722741   2.421   4.373   2.387 -0.0221  0.3113  0.0889
   48MOL    C8822742   2.553   4.331   2.415  0.1280  0.1180  0.0991
   48MOL    O8922743   2.236   4.368   2.237  0.3257 -0.1624  0.0109
   48MOL    H9022744   2.977   4.220   2.840 -1.3138  1.8484  0.8153
   48MOL    H9122745   2.881   4.084   2.648  0.8724 -0.4888  1.7006
   48MOL    H9222746   2.824   4.455   2.432  1.3712 -3.1719 -2.3806
   48MOL    H9322747   2.924   4.585   2.634  1.0077 -0.1139 -2.3628
   48MOL    H9422748   2.620   4.118   2.171 -1.6784  2.4269 -2.9053
   48MOL    H9522749   2.390   4.191   2.098  1.6583  0.3559 -0.8115
   48MOL    H9622750   2.365   4.435   2.457  0.1519 -0.4496  0.9152
   48MOL    H9722751   2.589   4.362   2.512  1.3995 -3.4596  0.8284
   48MOL    C9822752   2.195   4.598   2.189 -0.4502  0.0189 -0.7190
   48MOL    C9922753   2.188   4.711   2.101 -0.1805  0.3809  0.4046
   48MOL   C10022754   2.235   4.698   1.967  0.3121  0.5624  0.4664
   48MOL   C10122755   2.283   4.570   1.928  0.1507  0.2567  0.1032
   48MOL   C10222756   2.276   4.451   2.014 -0.0530 -0.0031 -0.3716
   48MOL   C10322757   2.239   4.471   2.146 -0.3076  0.3786 -0.0598
   48MOL   S10422758   2.242   4.834   1.849 -0.0908  0.0157  0.4880
   48MOL   O10522759   2.335   4.799   1.743  0.1823  0.2537  1.1092
   48MOL   O10622760   2.272   4.952   1.937 -0.3658  0.0582  0.4433
   48MOL   C10722761   2.079   4.865   1.785 -0.0900  0.2965  0.2459
   48MOL   C10822762   2.058   4.848   1.649  0.3275  1.0691  0.4484
   48MOL   C10922763   1.928   4.872   1.596 -0.0364 -0.3792 -0.3456
   48MOL   C11022764   1.820   4.920   1.673  0.0717  0.5493  0.9561
   48MOL   C11122765   1.850   4.946   1.808  0.3773  0.0272  0.2822
   48MOL   C11222766   1.976   4.917   1.866 -0.1379 -0.4006 -0.3454
   48MOL   O11322767   1.692   4.932   1.625 -0.5648 -0.1093 -0.3191
   48MOL   H11422768   2.173   4.614   2.293  0.3452 -1.3193 -0.3440
   48MOL   H11522769   2.149   4.801   2.144  0.2335  0.1579  1.2520
   48MOL   H11622770   2.326   4.563   1.829 -1.4648 -0.2147 -0.5927
   48MOL   H11722771   2.301   4.350   1.986 -1.1132 -0.5019  0.4374
   48MOL   H11822772   2.130   4.786   1.597 -1.2278 -0.4875  0.1142
   48MOL   H11922773   1.913   4.849   1.491 -2.0374 -1.6648  0.1846
   48MOL   H12022774   1.777   4.998   1.868  0.6206  0.5237  0.1519
   48MOL   H12122775   1.998   4.933   1.971  0.1086 -0.0506 -0.4518
   48MOL   C12222776   1.594   4.728   1.540 -0.2478 -0.4265 -0.0392
   48MOL   C12322777   1.525   4.653   1.442 -0.8571  0.0712  0.4939
   48MOL   C12422778   1.511   4.718   1.318 -0.3697  0.2446  0.2415
   48MOL   C12522779   1.560   4.854   1.298 -0.3521 -0.2045 -0.3196
   48MOL   C12622780   1.633   4.920   1.396  1.2233 -0.6380 -0.0115
   48MOL   C12722781   1.646   4.858   1.521 -0.2578  0.0928 -0.1064
   48MOL   S12822782   1.416   4.638   1.184  0.0310  0.5175  0.0398
   48MOL   O12922783   1.333   4.738   1.117  0.0135  0.8531 -0.8233
   48MOL   O13022784   1.353   4.520   1.242 -0.4854 -0.8793 -0.3944
   48MOL   C13122785   1.541   4.585   1.064  0.6341  0.2749 -0.3637
   48MOL   C13222786   1.513   4.596   0.927  0.8374  0.0564  0.6439
   48MOL   C13322787   1.606   4.561   0.828 -0.5838 -0.0856 -0.0146
   48MOL   C13422788   1.731   4.513   0.873  0.8843  0.1247 -0.1430
   48MOL   C13522789   1.763   4.506   1.012 -0.8379 -0.4508  0.6407
   48MOL   C13622790   1.666   4.546   1.108 -0.7603  0.1008 -0.9115
   48MOL   O13722791   1.817   4.460   0.780  0.0720 -0.0288 -0.5569
   48MOL   H13822792   1.615   4.681   1.635 -0.2511 -0.4671 -0.0589
   48MOL   H13922793   1.487   4.554   1.466  2.1014 -0.9561  1.1944
   48MOL   H14022794   1.542   4.892   1.199 -4.9030 -0.2316  0.3503
   48MOL   H14122795   1.673   5.017   1.371 -1.5498  0.4781 -0.2792
   48MOL   H14222796   1.413   4.618   0.892  1.2497  1.0742  0.1001
   48MOL   H14322797   1.580   4.562   0.723 -0.1349  2.0666 -0.1361
   48MOL   H14422798   1.865   4.478   1.033 -0.0856  0.0216 -2.2092
   48MOL   H14522799   1.691   4.554   1.213 -0.6418 -2.1065 -0.7422
   48MOL   C14622800   1.903   4.252   0.863  0.2018  0.2428  0.1865
   48MOL   C14722801   1.904   4.108   0.851 -0.0536 -0.2922  0.2745
   48MOL   C14822802   1.831   4.046   0.748 -0.3052  0.7962  0.1616
   48MOL   C14922803   1.741   4.122   0.665  0.5593  0.4788  0.0472
   48MOL   C15022804   1.748   4.261   0.672  0.4538 -0.0816  0.5053
   48MOL   C15122805   1.824   4.322   0.776  0.4449  0.4986  0.0668
   48MOL   S15222806   1.856   3.873   0.705  0.1596 -0.3893  0.0803
   48MOL   O15322807   1.726   3.812   0.693  0.1677 -0.2941 -0.4586
   48MOL   O15422808   1.961   3.813   0.793 -0.2800  0.1693  0.2775
   48MOL   C15522809   1.932   3.896   0.548 -0.2676  0.1396 -0.3266
   48MOL   C15622810   1.891   3.818   0.444 -0.1624  0.2400  0.5439
   48MOL   C15722811   1.951   3.843   0.318  0.1250  0.2869 -0.1825
   48MOL   C15822812   2.064   3.932   0.298  0.7497  0.0379  0.0395
   48MOL   C15922813   2.107   3.997   0.416 -1.1205 -0.0257  0.0342
   48MOL   C16022814   2.033   3.991   0.537 -0.5015 -0.0288 -0.0967
   48MOL   O16122815   2.123   3.963   0.176  0.1484  0.2130  0.0675
   48MOL   H16222816   1.974   4.305   0.925  1.0133 -0.3348 -0.2468
   48MOL   H16322817   1.975   4.047   0.906  0.3957  0.1783  0.2206
   48MOL   H16422818   1.672   4.078   0.594 -0.7674  1.0771  0.9533
   48MOL   H16522819   1.677   4.315   0.611 -1.1578 -1.6175  0.9748
   48MOL   H16622820   1.817   3.740   0.458 -0.3235  0.1798 -0.5903
   48MOL   H16722821   1.922   3.784   0.232  0.4852  0.2459 -0.2762
   48MOL   H16822822   2.200   4.050   0.411 -0.9117 -0.4380 -0.4564
   48MOL   H16922823   2.062   4.053   0.621 -2.0251  1.5840 -0.7228
   48MOL   C17022824   2.090   3.856   8.398  0.4212 -0.4405  0.2557
   48MOL   C17122825   2.114   3.758   8.302 -0.0506  0.6034  0.5136
   48MOL   C17222826   2.213   3.663   8.331  0.3066  0.0974  0.0416
   48MOL   C17322827   2.278   3.659   0.033 -0.1221 -0.1258  0.5966
   48MOL   C17422828   2.255   3.762   0.126  0.2273  0.4071 -0.0099
   48MOL   C17522829   2.155   3.860   0.093 -0.0752 -0.3245 -0.5499
   48MOL   S17622830   2.216   3.512   8.219 -0.3772  0.2254 -0.0454
   48MOL   O17722831   2.078   3.497   8.159  0.0399 -0.2352 -0.1629
   48MOL   O17822832   2.268   3.407   8.307  0.5490  0.3213 -0.8629
   48MOL   C17922833   2.334   3.533   8.085  0.2862  0.1406 -0.0202
   48MOL   C18022834   2.295   3.497   7.953  0.2955 -0.8677  0.0071
   48MOL   C18122835   2.395   3.478   7.855 -0.4026  0.2023  0.2294
   48MOL   C18222836   2.531   3.502   7.886  0.0249  0.1608  0.4322
   48MOL   C18322837   2.564   3.531   8.019  0.3710  0.2024 -0.0594
   48MOL   C18422838   2.467   3.557   8.116  0.3250  0.2408  0.3560
   48MOL   O18522839   2.623   3.501   7.780 -0.3333  0.1398 -0.5546
   48MOL   H18622840   2.014   3.930   8.379 -0.6220 -1.6293 -0.2731
   48MOL   H18722841   2.044   3.744   8.221 -0.7726  0.8251  1.0919
   48MOL   H18822842   2.352   3.585   0.061 -0.2428 -1.1936 -1.7635
   48MOL   H18922843   2.294   3.754   0.226  0.9359 -0.6696 -0.3558
   48MOL   H19022844   2.189   3.486   7.943 -0.0317 -1.4267  3.3231
   48MOL   H19122845   2.368   3.446   7.756 -0.6474 -1.1754  0.7315
   48MOL   H19222846   2.663   3.551   8.058  0.3547 -3.0694  1.7879
   48MOL   H19322847   2.498   3.589   8.215  3.3888 -1.1337 -0.0918
   48MOL   C19422848   2.522   3.625   7.592 -0.3671 -0.2911  0.2827
   48MOL   C19522849   2.517   3.738   7.508  0.7252  0.0578 -0.5705
   48MOL   C19622850   2.615   3.839   7.534  0.0670  0.3026  0.0028
   48MOL   C19722851   2.717   3.824   7.629 -0.6854 -0.1653  0.3969
   48MOL   C19822852   2.709   3.716   7.717  0.1364  0.4450 -0.4141
   48MOL   C19922853   2.617   3.610   7.695  0.2637 -0.0532 -0.6100
   48MOL   S20022854   2.621   3.987   7.435  0.0030 -0.0328 -0.0945
   48MOL   O20122855   2.540   3.965   7.314  0.2095  0.4347  0.5397
   48MOL   O20222856   2.759   4.035   7.430 -0.2912  0.0066 -0.6389
   48MOL   C20322857   2.523   4.113   7.514  0.2850  0.2367 -0.1183
   48MOL   C20422858   2.431   4.187   7.434 -0.1314  0.0961  0.9571
   48MOL   C20522859   2.370   4.301   7.486  0.1309  0.6637  0.1603
   48MOL   C20622860   2.381   4.321   7.624 -0.1120 -0.3534  0.3084
   48MOL   C20722861   2.464   4.242   7.706  0.2334 -0.2588  0.4331
   48MOL   C20822862   2.543   4.140   7.649 -0.0414 -0.3824  0.8655
   48MOL   O20922863   2.308   4.428   7.672 -0.0790 -0.1330 -0.3808
   48MOL   H21022864   2.466   3.538   7.563 -0.9883 -0.0231  0.6743
   48MOL   H21122865   2.454   3.746   7.420 -0.3505 -0.9260  0.1030
   48MOL   H21222866   2.797   3.895   7.638  0.9002 -1.9462  0.7245
   48MOL   H21322867   2.788   3.696   7.789 -1.9071 -0.3117  1.6597
   48MOL   H21422868   2.423   4.170   7.327  1.3589 -1.5985  1.0815
   48MOL   H21522869   2.319   4.372   7.422 -2.7661  0.8006  2.5287
   48MOL   H21622870   2.489   4.264   7.809  3.2940  1.1198 -0.5270
   48MOL   H21722871   2.619   4.087   7.704 -0.4419 -0.4451  1.3609
   48MOL   C21822872   2.197   4.444   7.883 -0.1375 -0.2128 -0.5343
   48MOL   C21922873   2.201   4.474   8.020  0.2014  0.0960 -0.4321
   48MOL   C22022874   2.318   4.541   8.068  0.3343 -0.1758  0.7000
   48MOL   C22122875   2.431   4.563   7.988 -0.0573 -0.3668  0.0736
   48MOL   C22222876   2.432   4.521   7.855 -0.0211 -0.0114 -0.6033
   48MOL   C22322877   2.313   4.465   7.803 -0.4716 -0.1311  0.2709
   48MOL   S22422878   2.314   4.595   8.244  0.2204 -0.0216 -0.1906
   48MOL   O22522879   2.438   4.567   8.315  0.5823 -0.4190 -0.0355
   48MOL   O22622880   2.186   4.545   8.301 -0.0777 -0.5557  0.0673
   48MOL   C22722881   2.292   4.770   8.249 -0.2045  0.2427  0.2166
   48MOL   C22822882   2.188   4.827   8.178 -0.0721 -0.1100 -0.2517
   48MOL   C22922883   2.167   4.967   8.179  0.0910  0.6583  0.1986
   48MOL   C23022884   2.256   5.054   8.240 -0.4752 -0.1455  1.3560
   48MOL   C23122885   2.362   4.999   8.316  0.1458  0.3366 -0.1429
   48MOL   C23222886   2.385   4.858   8.316  0.0321 -0.0300  0.5954
   48MOL   O23322887   2.226   5.184   8.227 -0.9909  0.3302  0.0331
   48MOL   H23422888   2.107   4.399   7.844 -1.8335  1.9618  0.7565
   48MOL   H23522889   2.126   4.441   8.090 -0.2263 -1.7354 -1.7191
   48MOL   H23622890   2.522   4.609   8.023 -0.7748  0.0474  1.4481
   48MOL   H23722891   2.526   4.526   7.802  0.8813 -2.2760  0.7035
   48MOL   H23822892   2.122   4.757   8.129 -0.7020 -0.7306  1.4354
   48MOL   H23922893   2.079   5.013   8.136  0.0942  2.3818  1.9692
   48MOL   H24022894   2.436   5.057   8.370 -0.6851  0.4520  0.8895
   48MOL   H24122895   2.460   4.806   8.373 -0.2668 -0.1017  0.9281
   48MOL   C24222896   2.009   5.278   8.279 -0.1147 -0.4788  0.0468
   48MOL   C24322897   1.921   5.339   8.374  0.1748  0.1644  0.6105
   48MOL   C24422898   1.965   5.352   0.081 -0.2118  0.1099  0.4686
   48MOL   C24522899   2.096   5.308   0.123  0.2043  0.5212  0.0319
   48MOL   C24622900   2.182   5.250   0.027 -0.3999  0.2960  0.2282
   48MOL   C24722901   2.137   5.231   8.319  0.2273 -0.0951 -0.3802
   48MOL   S24822902   1.858   5.439   0.194 -0.3457  0.1370  0.3942
   48MOL   O24922903   1.933   5.458   0.323 -0.2221  0.2567 -0.1192
   48MOL   O25022904   1.724   5.378   0.178  0.1380  0.4926  0.1375
   48MOL   C25122905   1.847   5.601   0.119 -0.3958  0.0718  0.4051
   48MOL   C25222906   1.729   5.657   0.076  0.0020 -0.6253  1.0219
   48MOL   C25322907   1.732   5.784   0.013 -0.2417 -0.1198 -0.3008
   48MOL   C25422908   1.853   5.852   8.422 -0.1388 -0.1045 -0.6472
   48MOL   C25522909   1.968   5.795   0.046 -0.3198  0.4289 -0.2289
   48MOL   C25622910   1.965   5.676   0.115  0.0752  0.9616 -0.5467
   48MOL   O25722911   1.862   5.972   8.363  0.2931 -0.0251  0.2068
   48MOL   H25822912   1.968   5.275   8.179  2.7641 -0.7546 -1.1696
   48MOL   H25922913   1.821   5.370   8.349  0.5352  0.6040 -0.3314
   48MOL   H26022914   2.136   5.320   0.222  0.1773  0.6918  0.0220
   48MOL   H26122915   2.280   5.211   0.053  0.2304 -0.4933 -3.0337
   48MOL   H26222916   1.639   5.598   0.088  0.0540 -0.7547  0.7764
   48MOL   H26322917   1.635   5.828   8.416  0.4502  1.0733 -0.9813
   48MOL   H26422918   2.060   5.850   0.033 -0.1039  0.2678  0.6079
   48MOL   H26522919   2.053   5.632   0.159 -1.2096 -0.7774  0.3462
   48MOL   C26622920   1.994   5.996   8.161 -0.2479 -0.2008  0.1182
   48MOL   C26722921   2.009   5.972   8.022 -0.2154 -0.1360 -0.5237
   48MOL   C26822922   1.905   5.915   7.948 -0.0198 -0.0562 -0.3788
   48MOL   C26922923   1.783   5.883   8.011 -0.3168 -0.7827  0.1386
   48MOL   C27022924   1.768   5.899   8.153  0.7177  0.1387 -0.1270
   48MOL   C27122925   1.873   5.960   8.229  0.4467  0.3658  0.4858
   48MOL   S27222926   1.926   5.880   7.782 -0.1202 -0.1560 -0.0016
   48MOL   O27322927   2.061   5.924   7.743  0.1806  0.0121  0.1383
   48MOL   O27422928   1.813   5.931   7.709  0.4244 -0.2991 -0.5802
   48MOL   C27522929   1.907   5.702   7.762 -0.7696 -0.1165 -0.0590
   48MOL   C27622930   1.780   5.655   7.760  0.1238  0.0515  0.5348
   48MOL   C27722931   1.758   5.515   7.753  0.2012 -0.2409  0.5479
   48MOL   C27822932   1.867   5.428   7.752 -1.1468 -0.6930  0.0283
   48MOL   C27922933   1.999   5.480   7.741 -0.7268  0.1378  0.0711
   48MOL   C28022934   2.021   5.619   7.757  0.1722 -0.0777 -0.6551
   48MOL   O28122935   1.833   5.293   7.746 -0.2697 -0.5823 -0.0875
   48MOL   H28222936   2.075   6.050   8.208 -0.2497  0.1693 -0.3068
   48MOL   H28322937   2.103   5.998   7.976  0.7897 -0.6402  1.2206
   48MOL   H28422938   1.700   5.840   7.958 -0.4845  0.5045 -0.6387
   48MOL   H28522939   1.673   5.869   8.193  1.1814  1.3868  2.0113
   48MOL   H28622940   1.693   5.718   7.747 -0.3784 -0.3532  1.9349
   48MOL   H28722941   1.653   5.490   7.745  0.5809 -1.1697 -2.0239
   48MOL   H28822942   2.080   5.412   7.720  1.9569  2.7750  1.5052
   48MOL   H28922943   2.123   5.655   7.752  1.1827 -3.0432 -2.1979
   48MOL   C29022944   1.950   5.131   7.610  0.1629  0.0104 -0.1696
   48MOL   C29122945   2.047   5.029   7.593 -0.1877 -0.5287  0.3366
   48MOL   C29222946   2.112   4.985   7.708  0.8516 -0.1717 -0.2393
   48MOL   C29322947   2.088   5.039   7.836  0.2419  0.8675 -0.3276
   48MOL   C29422948   1.998   5.145   7.847 -0.7635 -0.5625  0.1375
   48MOL   C29522949   1.927   5.196   7.734  0.1152 -0.4962 -0.7267
   48MOL   S29622950   2.217   4.837   7.702 -0.0195 -0.3434  0.1823
   48MOL   O29722951   2.189   4.759   7.821  0.6272 -0.3645 -0.8423
   48MOL   O29822952   2.357   4.880   7.684  0.6915 -0.0540 -0.2132
   48MOL   C29922953   2.168   4.737   7.567  0.3917 -0.6883  0.6558
   48MOL   C30022954   2.260   4.701   7.467 -0.5069 -0.1006  0.0828
   48MOL   C30122955   2.221   4.617   7.362 -0.5128  0.4251  0.0959
   48MOL   C30222956   2.092   4.562   7.361 -0.2719  0.1163  0.4496
   48MOL   C30322957   2.001   4.588   7.461  0.5531  0.0869  0.2908
   48MOL   C30422958   2.038   4.680   7.564  0.0005  0.2582 -0.9020
   48MOL   O30522959   2.047   4.487   7.257 -0.7727  0.0795  0.5062
   48MOL   H30622960   1.887   5.166   7.530  0.1330 -2.5116 -1.3063
   48MOL   H30722961   2.073   4.988   7.496 -1.5991  0.7950 -0.6318
   48MOL   H30822962   2.137   5.006   7.926  0.1233  1.0060 -0.2123
   48MOL   H30922963   1.991   5.192   7.944  1.1104 -0.8521  0.4454
   48MOL   H31022964   2.364   4.729   7.462 -0.5988 -0.0302 -1.7338
   48MOL   H31122965   2.288   4.590   7.282  1.1168  0.7974  1.3106
   48MOL   H31222966   1.899   4.555   7.446 -0.0604  2.5109 -1.0701
   48MOL   H31322967   1.957   4.698   7.633 -0.1504  1.6497 -1.4185
   48MOL   C31422968   1.987   4.476   7.026 -0.0868  0.3730  0.2042
   48MOL   C31522969   1.946   4.535   6.906  0.2181  0.0038 -0.5492
   48MOL   C31622970   1.935   4.670   6.901 -0.1196  0.6183  0.0810
   48MOL   C31722971   1.954   4.755   7.013  0.2899  0.2642 -0.5167
   48MOL   C31822972   1.989   4.692   7.132 -0.5569  0.2343  0.2523
   48MOL   C31922973   2.003   4.550   7.141  0.3303 -0.4117  0.1686
   48MOL   S32022974   1.912   4.749   6.738  0.2213  0.2736  0.2144
   48MOL   O32122975   1.870   4.889   6.756  0.2883 -0.0402  0.4309
   48MOL   O32222976   1.833   4.658   6.652 -0.2195  0.2933  0.4265
   48MOL   C32322977   2.072   4.757   6.664 -0.5890  0.3687  0.1999
   48MOL   C32422978   2.189   4.692   6.711  0.5980  0.3649  0.2398
   48MOL   C32522979   2.308   4.708   6.646 -0.5866  0.7117 -0.2002
   48MOL   C32622980   2.320   4.789   6.532 -0.1744 -0.2011  0.1073
   48MOL   C32722981   2.206   4.860   6.485  0.6129 -0.2560 -0.5727
   48MOL   C32822982   2.080   4.835   6.544  0.0041  0.1336  0.3680
   48MOL   O32922983   2.444   4.810   6.467 -0.0002 -0.2476 -0.3497
   48MOL   H33022984   1.997   4.369   7.033  0.1475  0.3825  0.0282
   48MOL   H33122985   1.940   4.472   6.818  0.2727 -1.2863  0.3448
   48MOL   H33222986   1.943   4.861   6.995 -0.2874  0.3740  0.4557
   48MOL   H33322987   2.021   4.752   7.215  1.5335 -0.1558 -0.2266
   48MOL   H33422988   2.190   4.631   6.800  3.1182 -1.1582 -0.7689
   48MOL   H33522989   2.401   4.668   6.685 -0.6643  0.5511 -0.1833
   48MOL   H33622990   2.198   4.910   6.390 -0.3640 -0.1064 -0.4198
   48MOL   H33722991   1.995   4.885   6.499 -1.1097 -1.1268  1.0297
   48MOL   C33822992   2.570   4.607   6.508  0.4792  0.0227  0.4605
   48MOL   C33922993   2.678   4.544   6.575  0.2178  1.1084 -0.5179
   48MOL   C34022994   2.765   4.622   6.653 -0.5928 -0.1768  1.0601
   48MOL   C34122995   2.754   4.759   6.666 -0.0846 -0.5766  0.0303
   48MOL   C34222996   2.651   4.821   6.600  0.1240 -0.0770 -0.4185
   48MOL   C34322997   2.554   4.748   6.524 -0.9185 -0.0734  0.0596
   48MOL   S34422998   2.898   4.541   6.746 -0.0656 -0.5346  0.2874
   48MOL   O34522999   3.002   4.643   6.759 -1.0429 -0.2259  0.2476
   48MOL   O34623000   2.925   4.411   6.681 -0.1725  0.0491  0.2097
   48MOL   C34723001   2.820   4.506   6.898  0.6011 -0.2119 -0.5039
   48MOL   C34823002   2.680   4.519   6.917  0.7572  0.7559 -0.7119
   48MOL   C34923003   2.619   4.478   7.039 -0.3242 -0.1325 -0.2632
   48MOL   C35023004   2.698   4.430   7.141 -0.5461 -0.5234 -0.7655
   48MOL   C35123005   2.839   4.437   7.126  0.0068  0.4025  0.1516
   48MOL   C35223006   2.903   4.466   7.005 -0.0829 -0.4057 -0.1694
   48MOL   O35323007   2.638   4.399   7.262 -0.2829  0.5510 -0.0446
   48MOL   H35423008   2.499   4.546   6.453  0.6366  0.5616 -0.3491
   48MOL   H35523009   2.685   4.437   6.573 -1.9725  0.9007  0.9901
   48MOL   H35623010   2.825   4.811   6.728 -2.0669  2.4521 -0.1756
   48MOL   H35723011   2.631   4.921   6.632  1.6487  0.0297  0.2460
   48MOL   H35823012   2.618   4.561   6.839  0.5761  2.9115  0.5796
   48MOL   H35923013   2.513   4.483   7.057 -0.1308 -2.1203  1.6548
   48MOL   H36023014   2.888   4.395   7.212  0.5390  0.3274 -0.1928
   48MOL   H36123015   3.011   4.455   7.001 -0.1671 -2.3375  2.1092
   48MOL   C36223016   2.774   4.428   7.458  0.1542 -0.2900 -0.0887
   48MOL   C36323017   2.822   4.509   7.562 -0.6358  0.0085 -0.2392
   48MOL   C36423018   2.755   4.633   7.594  0.0995 -0.3336 -0.4821
   48MOL   C36523019   2.647   4.666   7.516  0.3804 -0.0508 -0.0925
   48MOL   C36623020   2.598   4.589   7.410  0.7525  0.3734 -0.0955
   48MOL   C36723021   2.671   4.473   7.375 -0.4467 -0.4324  0.1924
   48MOL   S36823022   2.814   4.749   7.721 -0.0753  0.0635 -0.0149
   48MOL   O36923023   2.926   4.683   7.788  0.4399  0.5395  0.4110
   48MOL   O37023024   2.702   4.794   7.807  0.6083 -0.2978  0.1951
   48MOL   C37123025   2.878   4.889   7.628 -0.1320 -0.0598  0.3209
   48MOL   C37223026   2.830   5.017   7.657  0.3611 -0.0775  0.2037
   48MOL   C37323027   2.884   5.129   7.588  0.2278  0.1687 -0.2445
   48MOL   C37423028   2.991   5.116   7.499 -0.9445 -0.1217 -0.9343
   48MOL   C37523029   3.045   4.990   7.481  0.1128  0.4500 -0.1246
   48MOL   C37623030   2.988   4.879   7.544  0.1170  0.5143 -0.6618
   48MOL   O37723031   3.045   5.223   7.444  0.1613  0.7349 -0.0650
   48MOL   H37823032   2.827   4.338   7.431  0.9754  0.4567 -0.9932
   48MOL   H37923033   2.912   4.495   7.620 -0.9940 -0.4212  0.2119
   48MOL   H38023034   2.584   4.751   7.540  2.1461  0.9630  1.0565
   48MOL   H38123035   2.513   4.621   7.352  1.7660  2.3177 -0.5818
   48MOL   H38223036   2.746   5.022   7.725 -1.0204 -1.2699 -1.3840
   48MOL   H38323037   2.838   5.225   7.607 -0.6909 -0.5161  0.9978
   48MOL   H38423038   3.137   4.984   7.424  0.4304 -2.0835  0.6091
   48MOL   H38523039   3.034   4.782   7.532 -0.9325  0.0323 -0.8267
   48MOL   C38623040   2.836   5.278   7.305 -0.8715  0.1204  0.1949
   48MOL   C38723041   2.783   5.363   7.208  0.0499 -0.2244 -0.0837
   48MOL   C38823042   2.856   5.476   7.169  0.1020  0.1110 -0.1599
   48MOL   C38923043   2.985   5.499   7.214  0.1620 -0.4649  0.8307
   48MOL   C39023044   3.044   5.408   7.303  0.1056  0.3257 -0.8197
   48MOL   C39123045   2.966   5.297   7.355 -0.6397 -0.2628  0.0537
   48MOL   S39223046   2.776   5.610   7.085 -0.2241 -0.2025 -0.1591
   48MOL   O39323047   2.790   5.726   7.172  0.0556 -0.3976 -0.1665
   48MOL   O39423048   2.643   5.568   7.038 -0.3546  0.3912 -0.1328
   48MOL   C39523049   2.879   5.637   6.942 -0.1063 -0.2674  0.5558
   48MOL   C39623050   2.886   5.767   6.883  0.4771  0.1745 -0.1793
   48MOL   C39723051   2.960   5.788   6.767  0.4975 -0.8282 -0.4040
   48MOL   C39823052   3.023   5.682   6.705  1.1274 -0.5585  0.1036
   48MOL   C39923053   3.011   5.552   6.761 -0.0631 -0.0323 -0.1044
   48MOL   C40023054   2.930   5.524   6.880  0.4184 -0.3534 -0.1303
   48MOL   O40123055   3.093   5.687   6.584 -0.1159  0.6056  0.0423
   48MOL   H40223056   2.786   5.191   7.344  1.4860 -0.6391  1.5584
   48MOL   H40323057   2.687   5.351   7.161  0.7075  0.2344 -1.5909
   48MOL   H40423058   3.041   5.587   7.186 -1.8401  1.2160  2.0492
   48MOL   H40523059   3.138   5.416   7.356 -1.1386 -0.6705  1.5986
   48MOL   H40623060   2.851   5.853   6.938  1.5174  0.7120 -0.3443
   48MOL   H40723061   2.957   5.889   6.728 -0.0162  0.4328  2.7661
   48MOL   H40823062   3.057   5.470   6.708 -0.5417 -0.6065  0.3539
   48MOL   H40923063   2.916   5.423   6.915  0.0808 -0.6603 -1.1345
   48MOL   C41023064   3.093   5.869   6.433  0.0493  0.0326  0.1558
   48MOL   C41123065   3.041   5.934   6.321  0.2592 -0.8107 -0.3793
   48MOL   C41223066   2.917   5.895   6.273  0.3044 -0.3905  0.5318
   48MOL   C41323067   2.847   5.786   6.332 -0.2532  0.4297  0.5175
   48MOL   C41423068   2.909   5.716   6.432  0.6965 -0.2618 -0.6188
   48MOL   C41523069   3.031   5.751   6.485  0.3344 -0.5408  0.7811
   48MOL   S41623070   2.849   5.976   6.130  0.0856 -0.2008 -0.1004
   48MOL   O41723071   2.775   5.875   6.054  0.0329  0.2276 -0.3435
   48MOL   O41823072   2.950   6.054   6.057 -0.2298  0.2699  0.7672
   48MOL   C41923073   2.738   6.101   6.207  0.3240  0.3108  1.4950
   48MOL   C42023074   2.781   6.180   6.314 -0.0338 -0.1507  0.9225
   48MOL   C42123075   2.693   6.264   6.384 -0.3550 -0.4976  0.6439
   48MOL   C42223076   2.559   6.274   6.352 -0.2642 -0.5262 -0.6003
   48MOL   C42323077   2.518   6.203   6.241 -0.1665  0.0353  0.4151
   48MOL   C42423078   2.602   6.112   6.167  0.9896  0.3609 -0.2666
   48MOL   O42523079   2.475   6.349   6.434 -0.9665  0.2373 -0.4590
   48MOL   H42623080   3.189   5.897   6.474  0.7052 -0.5267 -0.9837
   48MOL   H42723081   3.094   6.016   6.275 -1.5765 -0.0608 -1.1680
   48MOL   H42823082   2.747   5.757   6.302  0.3476 -0.9968 -0.1321
   48MOL   H42923083   2.860   5.633   6.481  0.4572 -1.1952 -2.3922
   48MOL   H43023084   2.886   6.184   6.340  0.5909  1.2854 -1.6801
   48MOL   H43123085   2.732   6.326   6.464 -1.2224  0.1885  0.5484
   48MOL   H43223086   2.415   6.197   6.209 -0.2188  1.0456  0.3743
   48MOL   H43323087   2.557   6.064   6.081  1.3862 -1.6113  0.6183
   48MOL   C43423088   2.246   6.282   6.408  0.7238  0.2763  0.1240
   48MOL   C43523089   2.114   6.299   6.357 -0.2446  0.1074  0.6758
   48MOL   C43623090   2.082   6.422   6.288  0.3535 -0.0942 -0.2991
   48MOL   C43723091   2.189   6.514   6.268  0.1199  0.5420  0.9071
   48MOL   C43823092   2.317   6.491   6.319  0.0503  0.4089  0.0399
   48MOL   C43923093   2.349   6.373   6.388  0.7604 -0.3299 -0.7044
   48MOL   S44023094   1.931   6.445   6.207 -0.3840 -0.0328  0.0254
   48MOL   O44123095   1.932   6.359   6.084 -0.5846  0.3021  0.0833
   48MOL   O44223096   1.912   6.590   6.191  0.0679 -0.3549 -0.2327
   48MOL   C44323097   1.794   6.392   6.307  0.1204 -0.8358 -0.9408
   48MOL   C44423098   1.675   6.345   6.255 -0.1074 -0.3364 -0.2901
   48MOL   C44523099   1.563   6.313   6.336 -0.0715  0.2016 -0.2375
   48MOL   C44623100   1.574   6.330   6.476 -0.2063 -0.0624  0.0364
   48MOL   C44723101   1.689   6.391   6.531 -0.4287  0.0097 -0.7986
   48MOL   C44823102   1.805   6.422   6.449  0.9492  0.3490  0.4602
   48MOL   O44923103   1.467   6.294   6.557  0.2152  0.2249 -0.4252
   48MOL   H45023104   2.278   6.192   6.458  1.4993  0.7141  0.4245
   48MOL   H45123105   2.043   6.220   6.374 -0.7962  0.4839  0.1436
   48MOL   H45223106   2.167   6.601   6.207  1.7928 -0.1195 -0.6859
   48MOL   H45323107   2.396   6.562   6.299  1.5869 -1.4613 -0.6828
   48MOL   H45423108   1.676   6.325   6.149  0.5635  0.1010 -0.3647
   48MOL   H45523109   1.479   6.271   6.282 -0.9276 -0.1590  1.3365
   48MOL   H45623110   1.691   6.427   6.633 -1.5483 -2.3641  0.1066
   48MOL   H45723111   1.891   6.475   6.488  0.1729 -0.2504  3.0233
   48MOL   C45823112   1.255   6.204   6.502  0.4387  0.4508  0.2403
   48MOL   C45923113   1.182   6.091   6.455  0.0722  0.3580 -0.7184
   48MOL   C46023114   1.245   5.966   6.456 -0.4600 -0.0248 -0.0246
   48MOL   C46123115   1.377   5.948   6.496  0.5398 -0.0522 -0.1255
   48MOL   C46223116   1.458   6.050   6.531  0.1261  0.2384  0.1526
   48MOL   C46323117   1.393   6.184   6.535  0.8446  0.6655  0.1956
   48MOL   S46423118   1.143   5.818   6.410  0.2248 -0.3657 -0.0818
   48MOL   O46523119   1.005   5.851   6.385 -0.0914 -0.0747  0.6437
   48MOL   O46623120   1.185   5.717   6.511  0.4481 -0.2101 -0.1612
   48MOL   C46723121   1.227   5.776   6.251  0.4055 -0.7346  0.1957
   48MOL   C46823122   1.172   5.825   6.126  0.1497 -0.6172  0.7018
   48MOL   C46923123   1.228   5.791   6.001  0.5515  0.6299  0.2497
   48MOL   C47023124   1.353   5.727   5.998  0.1357 -0.2240  0.3340
   48MOL   C47123125   1.419   5.680   6.117 -0.4733  0.5529 -0.0801
   48MOL   C47223126   1.354   5.702   6.242 -0.1892  0.0548  0.8836
   48MOL   O47323127   1.423   5.705   5.876 -0.0332 -0.4819  0.1835
   48MOL   H47423128   1.210   6.302   6.503 -1.1883 -0.2752  0.7340
   48MOL   H47523129   1.077   6.097   6.428  0.0032 -1.8523 -1.0296
   48MOL   H47623130   1.407   5.845   6.507  3.3854  0.7113 -0.4438
   48MOL   H47723131   1.556   6.044   6.577  0.1482 -0.9196 -0.0389
   48MOL   H47823132   1.087   5.892   6.132 -0.1004 -1.0225  1.8788
   48MOL   H47923133   1.184   5.819   5.906 -0.4230 -0.0622  0.4959
   48MOL   H48023134   1.511   5.623   6.118  0.1831  1.5738  1.4564
   48MOL   H48123135   1.396   5.660   6.332 -1.8913 -0.9245  1.2533
   48MOL   H48223136   1.506   5.659   5.886  2.1713  3.0886 -0.7670
   49MOL     C123137   8.252   6.275   7.107 -0.1256  0.1051  0.5489
   49MOL     C223138   8.283   6.411   7.134  0.8404 -0.0555 -0.2534
   49MOL     C323139   8.213   6.515   7.059 -0.3210 -0.0310  0.0304
   49MOL     C423140   8.133   6.478   6.949 -0.5197 -0.0534 -0.2528
   49MOL     C523141   8.111   6.342   6.921 -0.1248 -0.2241  0.0835
   49MOL     C623142   8.164   6.242   7.001  0.2037 -0.6547  0.0479
   49MOL     S723143   8.242   6.695   7.091 -0.0058 -0.0921  0.4867
   49MOL     O823144   8.259   6.765   6.960  0.4221 -0.1117 -0.5543
   49MOL     O923145   8.354   6.710   7.185  0.0059  0.2643 -0.2379
   49MOL    C1023146   8.081   6.758   7.162 -0.0462  0.4724  0.9749
   49MOL    C1123147   8.028   6.880   7.123 -0.2687 -0.3216 -0.2783
   49MOL    C1223148   7.909   6.927   7.178 -0.1940  0.2403 -0.5855
   49MOL    C1323149   7.840   6.834   7.264 -0.0624 -0.8347 -0.1453
   49MOL    C1423150   7.893   6.715   7.305 -0.1598  0.2529  0.0388
   49MOL    C1523151   8.017   6.669   7.257 -0.6450  0.2527  0.6281
   49MOL    O1623152   7.716   6.874   7.318 -0.3320 -0.5680 -0.4278
   49MOL    H1723153   8.294   6.196   7.167  0.8663 -0.1207 -0.4308
   49MOL    H1823154   8.355   6.439   7.209  0.3673  0.2362  0.0947
   49MOL    H1923155   8.084   6.552   6.888  1.5241  3.3321  2.0298
   49MOL    H2023156   8.044   6.319   6.839 -0.2953 -1.3788  0.5383
   49MOL    H2123157   8.085   6.945   7.058  1.0003 -0.3497  0.8018
   49MOL    H2223158   7.858   7.016   7.146  0.6005  0.8643 -0.1369
   49MOL    H2323159   7.833   6.649   7.366 -1.2848  1.2743  0.0567
   49MOL    H2423160   8.055   6.572   7.287  0.1660  0.0881 -0.9230
   49MOL    H2523161   8.143   6.139   6.974 -0.2821 -0.1340 -1.6717
   49MOL    C2623162   7.560   6.820   7.154  0.9791  0.1619 -0.3121
   49MOL    C2723163   7.441   6.761   7.117 -0.4104  0.4823  0.3973
   49MOL    C2823164   7.364   6.687   7.212 -0.0184 -0.4821 -0.2003
   49MOL    C2923165   7.402   6.676   7.348 -0.3697 -0.4635  0.3217
   49MOL    C3023166   7.524   6.737   7.383 -0.5194 -0.4994 -0.0480
   49MOL    C3123167   7.607   6.804   7.285  0.6692 -0.0420  0.0731
   49MOL    S3223168   7.223   6.598   7.149  0.6596  0.2007  0.3309
   49MOL    O3323169   7.150   6.556   7.272  0.1697  0.2260  0.2148
   49MOL    O3423170   7.263   6.500   7.050  0.1377 -0.3150 -0.2661
   49MOL    C3523171   7.108   6.707   7.065 -0.4738 -0.2172  0.5758
   49MOL    C3623172   7.049   6.644   6.954 -0.0216  0.2764 -0.2304
   49MOL    C3723173   6.975   6.723   6.864 -0.3383  0.4590  0.5980
   49MOL    C3823174   6.946   6.856   6.896  0.1958  0.2022  0.2290
   49MOL    C3923175   7.001   6.919   7.009 -0.5527 -0.0354 -0.3768
   49MOL    C4023176   7.075   6.844   7.104  0.0633  0.0783  0.1986
   49MOL    O4123177   6.869   6.930   6.808 -0.2552 -0.1367 -0.8431
   49MOL    H4223178   7.619   6.862   7.073 -0.1227  3.6377  0.5900
   49MOL    H4323179   7.397   6.776   7.019 -0.9106 -0.1436  0.5215
   49MOL    H4423180   7.346   6.628   7.427 -0.2874 -0.1505  0.5693
   49MOL    H4523181   7.567   6.727   7.481  1.8144 -0.3286 -1.0266
   49MOL    H4623182   7.057   6.537   6.948  0.4802  0.3391 -0.6463
   49MOL    H4723183   6.932   6.678   6.776  0.1822  1.2609 -0.0776
   49MOL    H4823184   6.975   7.023   7.023  1.4478  0.3775  0.3889
   49MOL    H4923185   7.111   6.892   7.194  1.4621  0.6487 -0.6414
   49MOL    C5023186   6.686   7.069   6.906 -0.1456 -0.0220  0.1941
   49MOL    C5123187   6.557   7.085   6.958  0.3479 -0.0979  0.7495
   49MOL    C5223188   6.484   6.967   6.980  0.2963  0.6651 -0.1426
   49MOL    C5323189   6.538   6.840   6.950 -0.4454  0.2735 -0.5926
   49MOL    C5423190   6.659   6.827   6.883  0.0642 -1.3973  0.0191
   49MOL    C5523191   6.740   6.946   6.861 -0.1504  0.0985  0.5218
   49MOL    S5623192   6.336   6.974   7.074  0.2934 -0.3393 -0.3309
   49MOL    O5723193   6.265   6.849   7.046  0.0646  0.2128 -0.0899
   49MOL    O5823194   6.270   7.099   7.049  0.2139 -0.5858 -0.0990
   49MOL    C5923195   6.375   6.991   7.250 -0.3135 -0.3357 -1.1605
   49MOL    C6023196   6.325   6.888   7.333 -0.1762 -0.2342 -0.5090
   49MOL    C6123197   6.356   6.885   7.475 -0.3361 -0.4864 -0.1507
   49MOL    C6223198   6.444   6.983   7.520  0.9895 -0.1817 -0.2616
   49MOL    C6323199   6.503   7.075   7.440  0.6783  0.1543  0.4934
   49MOL    C6423200   6.472   7.076   7.301 -0.2993  0.2021  0.0486
   49MOL    O6523201   6.477   6.995   7.657 -0.2062  0.5089  0.3139
   49MOL    H6623202   6.754   7.152   6.894  2.1743 -1.6884  1.1990
   49MOL    H6723203   6.515   7.178   6.994 -1.4774  0.2985 -2.2113
   49MOL    H6823204   6.490   6.745   6.970  2.2063 -1.3470 -1.6343
   49MOL    H6923205   6.694   6.738   6.832 -2.9503 -1.9334 -1.2352
   49MOL    H7023206   6.263   6.807   7.298  0.8837  0.2559 -3.6853
   49MOL    H7123207   6.307   6.821   7.547  2.5350 -0.9153  1.5098
   49MOL    H7223208   6.573   7.150   7.475  2.4011  0.8391 -4.1065
   49MOL    H7323209   6.515   7.150   7.234  1.4833 -1.0232 -0.1872
   49MOL    C7423210   6.702   6.926   7.689 -0.3436 -0.2250 -0.0819
   49MOL    C7523211   6.800   6.853   7.749  0.1841  0.9156  0.0624
   49MOL    C7623212   6.764   6.743   7.830 -0.0709  0.4777 -0.2507
   49MOL    C7723213   6.626   6.711   7.842  0.4761 -0.5142  0.9367
   49MOL    C7823214   6.530   6.789   7.784  0.3527  0.0402 -0.5146
   49MOL    C7923215   6.564   6.903   7.708 -0.0629  0.4761 -0.3293
   49MOL    S8023216   6.890   6.645   7.909  0.3539  0.5179 -0.2653
   49MOL    O8123217   6.825   6.574   8.024 -0.5110 -0.8129 -0.1011
   49MOL    O8223218   6.999   6.741   7.930 -0.5915  0.1172 -0.2057
   49MOL    C8323219   6.934   6.524   7.775 -0.4314  0.1054 -0.4769
   49MOL    C8423220   7.038   6.554   7.686  0.7612 -0.2389  0.2184
   49MOL    C8523221   7.075   6.458   7.591  0.1302 -0.1014 -0.3855
   49MOL    C8623222   7.016   6.330   7.594  0.3736  0.2614  0.0891
   49MOL    C8723223   6.912   6.298   7.686  0.6115  0.3921 -0.0024
   49MOL    C8823224   6.875   6.400   7.779  0.5279  0.3941  0.0591
   49MOL    O8923225   7.045   6.236   7.503 -0.1502 -0.0787  0.3576
   49MOL    H9023226   6.726   7.020   7.642  2.7529 -0.9776 -0.1022
   49MOL    H9123227   6.907   6.868   7.742  0.6258 -1.4699  1.4216
   49MOL    H9223228   6.586   6.646   7.918 -0.2276 -0.6839  0.4311
   49MOL    H9323229   6.426   6.767   7.801  0.0876  2.4240  1.1216
   49MOL    H9423230   7.093   6.646   7.701 -2.6924  1.6885  1.3615
   49MOL    H9523231   7.153   6.470   7.518  0.3950 -2.3873 -0.5103
   49MOL    H9623232   6.856   6.205   7.685 -0.4877  1.0198  1.5683
   49MOL    H9723233   6.812   6.368   7.861  0.3031 -0.9852 -0.6385
   49MOL    C9823234   7.197   6.253   7.320  0.1212  0.2592 -0.0909
   49MOL    C9923235   7.324   6.289   7.274 -0.2112 -0.6228 -0.9436
   49MOL   C10023236   7.433   6.280   7.365 -0.1019 -0.6931 -0.7640
   49MOL   C10123237   7.411   6.240   7.501 -0.2635 -0.0858 -1.1588
   49MOL   C10223238   7.279   6.212   7.545 -0.0793 -0.1182  0.7648
   49MOL   C10323239   7.173   6.228   7.456 -0.6010 -0.6281  0.1452
   49MOL   S10423240   7.597   6.337   7.316 -0.0699 -0.0766  0.3088
   49MOL   O10523241   7.660   6.366   7.446  0.3812 -0.0471  0.1699
   49MOL   O10623242   7.574   6.438   7.216 -0.0227  0.1135 -0.5531
   49MOL   C10723243   7.685   6.208   7.243 -1.1313  0.6959 -0.1257
   49MOL   C10823244   7.710   6.095   7.327 -0.1026  0.7645  0.5078
   49MOL   C10923245   7.795   5.995   7.281  0.3635  0.1259 -0.9347
   49MOL   C11023246   7.835   5.993   7.146  0.1770  0.2191 -0.7276
   49MOL   C11123247   7.812   6.096   7.058 -0.4073 -1.0612 -0.1220
   49MOL   C11223248   7.741   6.209   7.110 -0.3443 -0.3614 -0.6003
   49MOL   O11323249   7.891   5.877   7.100 -0.0650 -0.1119  0.1048
   49MOL   H11423250   7.107   6.256   7.259 -0.1279  3.3537  0.3693
   49MOL   H11523251   7.333   6.321   7.172 -1.5397  0.7475 -0.6417
   49MOL   H11623252   7.491   6.251   7.573 -2.7296  0.5216  1.5990
   49MOL   H11723253   7.259   6.190   7.649 -0.3996  0.7462  0.8935
   49MOL   H11823254   7.670   6.102   7.427 -1.3888 -1.3224  0.1738
   49MOL   H11923255   7.806   5.906   7.341 -0.0628 -0.4142 -1.6420
   49MOL   H12023256   7.845   6.100   6.955  1.0786  1.2475  0.4037
   49MOL   H12123257   7.722   6.291   7.043  0.3213 -0.5684 -1.0479
   49MOL   C12223258   8.119   5.914   7.175  0.0097 -0.3191 -0.6981
   49MOL   C12323259   8.258   5.896   7.158  0.1597  0.7457 -0.0199
   49MOL   C12423260   8.314   5.835   7.042  0.3737 -0.0310  0.1810
   49MOL   C12523261   8.218   5.782   6.951 -0.1016 -0.8493  0.9640
   49MOL   C12623262   8.079   5.798   6.973  0.3662  0.1053  0.2539
   49MOL   C12723263   8.030   5.866   7.087  0.1161  0.0793 -0.6996
   49MOL   S12823264   0.058   5.855   6.992 -0.2566  0.5117 -0.3447
   49MOL   O12923265   0.060   5.965   6.893 -0.3393 -0.0202  0.3502
   49MOL   O13023266   0.099   5.725   6.950 -1.0090  0.0665  0.2795
   49MOL   C13123267   0.157   5.900   7.132 -0.5040  0.3606 -0.1778
   49MOL   C13223268   0.186   5.804   7.229 -0.6194 -0.0307 -0.2411
   49MOL   C13323269   0.281   5.827   7.328 -0.4453 -0.1282 -0.8379
   49MOL   C13423270   0.357   5.947   7.322 -0.5156 -0.3997 -0.3478
   49MOL   C13523271   0.323   6.049   7.228 -1.0455 -0.4931 -0.6370
   49MOL   C13623272   0.218   6.027   7.135 -1.0461 -0.0622  0.2878
   49MOL   O13723273   0.467   5.957   7.414 -0.2433  0.4282  0.5066
   49MOL   H13823274   8.077   5.959   7.263  2.2290 -2.6962  1.6907
   49MOL   H13923275   8.324   5.943   7.230 -0.7050 -0.7686  1.7984
   49MOL   H14023276   8.254   5.740   6.859  1.7855 -1.1104  1.8032
   49MOL   H14123277   8.014   5.747   6.903  0.6274 -0.0052  0.0903
   49MOL   H14223278   0.146   5.704   7.235  1.9635 -1.1171 -0.4425
   49MOL   H14323279   0.309   5.750   7.398  0.0338 -0.6067 -1.5533
   49MOL   H14423280   0.381   6.139   7.210  0.7560 -1.8666 -1.8156
   49MOL   H14523281   0.202   6.099   7.056 -1.0982  1.2215  1.4435
   49MOL   C14623282   0.368   6.149   7.542  0.1104  0.8179  0.4889
   49MOL   C14723283   0.398   6.265   7.607  0.2356  0.5547  0.5289
   49MOL   C14823284   0.528   6.319   7.606 -0.4416  0.0622 -0.3650
   49MOL   C14923285   0.638   6.249   7.558 -0.4056 -0.6902 -0.2482
   49MOL   C15023286   0.609   6.125   7.501  0.9669  0.7770  0.2412
   49MOL   C15123287   0.479   6.073   7.489  0.5673  0.5761 -0.0916
   49MOL   S15223288   0.567   6.487   7.678  0.0002  0.6737  0.1822
   49MOL   O15323289   0.440   6.561   7.679  0.2598 -0.4629  0.2809
   49MOL   O15423290   0.674   6.547   7.596  0.4996 -0.3683  0.1192
   49MOL   C15523291   0.629   6.455   7.844  0.2116 -0.8675 -0.2579
   49MOL   C15623292   0.757   6.496   7.892  0.1437  0.2185 -0.2984
   49MOL   C15723293   0.790   6.492   8.026  0.5005 -0.2584 -0.5360
   49MOL   C15823294   0.702   6.432   8.120  0.0493  0.4121 -0.6302
   49MOL   C15923295   0.577   6.382   8.079  0.3844  0.3937 -0.1057
   49MOL   C16023296   0.540   6.397   7.938  0.2649  0.8542  0.5680
   49MOL   O16123297   0.746   6.433   8.251 -0.5359 -0.1603 -0.0718
   49MOL   H16223298   0.268   6.108   7.536  0.5817 -0.1334 -1.4421
   49MOL   H16323299   0.320   6.320   7.658  0.0497  1.9456 -1.2232
   49MOL   H16423300   0.738   6.284   7.577 -0.5791 -1.6096  2.4629
   49MOL   H16523301   0.689   6.061   7.466  1.9474  2.9257 -1.6011
   49MOL   H16623302   0.825   6.543   7.822  0.4282  1.1165  0.5688
   49MOL   H16723303   0.875   6.544   8.069  0.2242 -0.6543  0.5086
   49MOL   H16823304   0.509   6.327   8.142  0.6691 -0.3858 -0.4807
   49MOL   H16923305   0.445   6.373   7.893  0.4430  1.3462 -0.0702
   49MOL   C17023306   0.887   6.233   8.235 -0.4633 -0.1208  0.5916
   49MOL   C17123307   0.925   6.111   8.288 -0.0948  0.1089  0.6800
   49MOL   C17223308   0.865   6.055   8.397 -0.4997 -0.8087 -0.7588
   49MOL   C17323309   0.764   6.132   0.040 -0.5326  0.3920  0.4721
   49MOL   C17423310   0.723   6.261   8.413  0.0222  0.0249 -0.8884
   49MOL   C17523311   0.786   6.313   8.297  0.2807 -0.2943 -0.1195
   49MOL   S17623312   0.918   5.902   0.043 -0.4849 -0.0804 -0.2200
   49MOL   O17723313   0.871   5.905   0.182 -0.3011 -0.0423  0.5558
   49MOL   O17823314   1.052   5.865   0.009 -0.3734  0.0042  0.0040
   49MOL   C17923315   0.806   5.781   8.394  0.1844 -0.0208  0.4322
   49MOL   C18023316   0.701   5.820   8.312 -0.3011  0.0332 -0.5176
   49MOL   C18123317   0.631   5.717   8.246  0.3714 -0.1994  0.7094
   49MOL   C18223318   0.661   5.582   8.255 -0.5093  0.1626 -0.1765
   49MOL   C18323319   0.765   5.544   8.347  1.2528 -0.0527  0.5277
   49MOL   C18423320   0.833   5.646   8.420 -0.0526 -0.3335 -0.7156
   49MOL   O18523321   0.588   5.481   8.191  0.1992  0.2155  0.0544
   49MOL   H18623322   0.942   6.277   8.152 -0.5933 -0.0464  0.5432
   49MOL   H18723323   1.014   6.064   8.248 -1.7305 -1.1672 -1.5929
   49MOL   H18823324   0.728   6.091   0.133 -2.8381 -0.4028 -0.7386
   49MOL   H18923325   0.654   6.326   0.040 -0.4232 -0.2849 -1.0963
   49MOL   H19023326   0.676   5.922   8.289 -0.6030 -0.2650 -1.5199
   49MOL   H19123327   0.551   5.756   8.186  0.2848 -1.4608 -0.0169
   49MOL   H19223328   0.779   5.437   8.360  1.7119 -0.0203  0.2812
   49MOL   H19323329   0.912   5.613   0.062 -1.1502 -1.3726  0.0731
   49MOL   C19423330   0.564   5.469   7.958  0.7384 -0.7928 -0.0613
   49MOL   C19523331   0.493   5.501   7.844  0.1364 -0.4777  0.5400
   49MOL   C19623332   0.367   5.561   7.848  0.1597 -0.2189 -0.2692
   49MOL   C19723333   0.317   5.599   7.970  0.4402 -0.5121 -0.2219
   49MOL   C19823334   0.386   5.569   8.088  0.0727 -0.0082  0.4279
   49MOL   C19923335   0.514   5.515   8.081  0.7444 -0.4897 -0.6893
   49MOL   S20023336   0.302   5.612   7.695  0.6388  0.0356  0.0921
   49MOL   O20123337   0.408   5.665   7.613  0.1111  0.6801 -0.4938
   49MOL   O20223338   0.184   5.692   7.713 -0.6054  0.3452  0.2411
   49MOL   C20323339   0.248   5.459   7.609  0.0260 -0.2316 -0.1075
   49MOL   C20423340   0.312   5.335   7.643 -0.0617  0.4351 -0.8803
   49MOL   C20523341   0.269   5.221   7.573 -0.5601  0.0996  0.7642
   49MOL   C20623342   0.159   5.222   7.488  0.5754 -0.0234 -0.4279
   49MOL   C20723343   0.099   5.344   7.462  0.3473  0.4199 -0.1261
   49MOL   C20823344   0.133   5.463   7.524 -0.0378  0.3069  0.0912
   49MOL   O20923345   0.118   5.113   7.422  0.4662 -0.6925 -0.0146
   49MOL   H21023346   0.659   5.417   7.958  0.5485 -1.1759  1.2512
   49MOL   H21123347   0.543   5.491   7.748 -1.1837  2.2729 -0.4855
   49MOL   H21223348   0.219   5.646   7.975  0.3747 -0.8207  1.6369
   49MOL   H21323349   0.348   5.602   8.183 -0.9251  0.1809 -0.0392
   49MOL   H21423350   0.386   5.326   7.721 -0.9724 -1.0363 -0.1589
   49MOL   H21523351   0.319   5.127   7.591  0.2456  0.2477 -0.6789
   49MOL   H21623352   0.012   5.344   7.397 -0.2437  2.2977  0.6134
   49MOL   H21723353   0.076   5.551   7.501 -2.5093 -0.7836  1.8143
   49MOL   C21823354   0.291   5.102   7.252 -0.0625  0.6018 -0.7740
   49MOL   C21923355   0.312   5.084   7.113 -0.2221  0.1918  0.1700
   49MOL   C22023356   0.209   5.102   7.015 -0.5820  0.2287  0.0938
   49MOL   C22123357   0.075   5.114   7.058  0.7855 -0.2894  0.4834
   49MOL   C22223358   0.050   5.127   7.195  0.2299 -0.6185 -0.4474
   49MOL   C22323359   0.156   5.114   7.289  0.5117  0.3829 -0.1427
   49MOL   S22423360   0.242   5.084   6.841 -0.0370 -0.3026 -0.0757
   49MOL   O22523361   0.133   5.002   6.783 -0.1238  0.1598  0.0034
   49MOL   O22623362   0.385   5.056   6.813  1.0317 -0.3183 -0.2072
   49MOL   C22723363   0.220   5.245   6.771 -0.2251 -0.4527  0.0054
   49MOL   C22823364   0.139   5.350   6.825 -0.4773  0.2224  0.0520
   49MOL   C22923365   0.111   5.464   6.746 -0.4036  1.0712  0.1771
   49MOL   C23023366   0.175   5.475   6.614  0.1617  0.2063 -0.9614
   49MOL   C23123367   0.264   5.371   6.568 -0.0026  0.0898 -0.0058
   49MOL   C23223368   0.282   5.258   6.645 -0.0670 -0.1191 -0.1789
   49MOL   O23323369   0.150   5.572   6.526 -0.2866 -0.6670  0.1795
   49MOL   H23423370   0.375   5.094   7.319 -0.6851 -0.5701 -0.1089
   49MOL   H23523371   0.409   5.050   7.079 -1.0611 -1.4822 -0.6131
   49MOL   H23623372   0.006   5.151   6.983  0.4325  3.9128  2.7283
   49MOL   H23723373   8.377   5.155   7.229  0.3267  0.1923 -0.8405
   49MOL   H23823374   0.082   5.330   6.914 -1.3791 -0.0531 -0.5725
   49MOL   H23923375   0.042   5.537   6.786 -0.7274  0.6344  0.4178
   49MOL   H24023376   0.315   5.381   6.473  1.1362  0.9558  0.6843
   49MOL   H24123377   0.335   5.174   6.603 -0.5223  0.2587 -1.5272
   49MOL   C24223378   8.349   5.651   6.548  0.1418 -0.4057  0.3504
   49MOL   C24323379   8.270   5.760   6.575  0.6377 -0.6454 -0.3035
   49MOL   C24423380   8.322   5.890   6.603 -0.2627  0.4300 -0.6676
   49MOL   C24523381   0.034   5.910   6.592 -0.4551 -0.1717 -0.2816
   49MOL   C24623382   0.119   5.805   6.561 -0.0649  0.0081  0.7025
   49MOL   C24723383   0.064   5.676   6.549 -1.0937  0.2443  0.6178
   49MOL   S24823384   8.202   6.017   6.635 -0.2407 -0.2147 -0.0400
   49MOL   O24923385   8.142   5.990   6.763  0.5534  0.1689 -0.4306
   49MOL   O25023386   8.111   6.024   6.518  0.0411  0.1003  0.1446
   49MOL   C25123387   8.287   6.177   6.638  0.2976  0.0130 -0.1894
   49MOL   C25223388   8.280   6.255   6.521  0.6295  0.1968  0.2620
   49MOL   C25323389   8.362   6.368   6.513  0.4288 -0.2087  0.7326
   49MOL   C25423390   0.015   6.413   6.616  0.0492 -0.2458  0.9347
   49MOL   C25523391   0.013   6.339   6.736 -0.7317  0.3198  0.5857
   49MOL   C25623392   8.366   6.217   6.746 -0.3881 -0.0970 -0.1729
   49MOL   O25723393   0.093   6.529   6.607  0.0980  0.0285 -0.0795
   49MOL   H25823394   8.309   5.553   6.527  0.9353 -0.9677  1.4011
   49MOL   H25923395   8.164   5.739   6.581  0.4911 -0.1705 -1.1429
   49MOL   H26023396   0.068   6.007   6.625  2.9176 -1.8486  1.4279
   49MOL   H26123397   0.224   5.829   6.570  0.1968 -0.2438 -1.3872
   49MOL   H26223398   8.220   6.236   6.432  1.5818 -0.7933 -0.1719
   49MOL   H26323399   8.354   6.422   6.419  0.1093  0.2998  1.0492
   49MOL   H26423400   0.068   6.374   6.823  0.4327 -1.6755  0.6772
   49MOL   H26523401   8.362   6.161   6.839  0.6072 -0.4634 -0.3412
   49MOL   C26623402   0.264   6.425   6.474  1.1819  0.5531  0.7615
   49MOL   C26723403   0.374   6.433   6.391 -0.2286  0.2004  0.3803
   49MOL   C26823404   0.392   6.551   6.309  0.3796  0.5833 -0.3695
   49MOL   C26923405   0.305   6.657   6.329  0.3744 -0.7132 -0.1416
   49MOL   C27023406   0.203   6.648   6.429 -0.0652 -0.0016  0.1370
   49MOL   C27123407   0.183   6.534   6.505 -0.4899 -0.4937 -0.2698
   49MOL   S27223408   0.514   6.557   6.184 -0.2962  0.0554  0.1793
   49MOL   O27323409   0.647   6.516   6.243  0.1334 -0.4231 -0.0514
   49MOL   O27423410   0.506   6.685   6.120  0.2317 -0.1569  0.9276
   49MOL   C27523411   0.473   6.437   6.057  0.2107  0.8860 -0.1875
   49MOL   C27623412   0.394   6.471   5.949  0.5411  0.3782 -0.0735
   49MOL   C27723413   0.383   6.386   5.840  0.1773  0.2097  0.1031
   49MOL   C27823414   0.444   6.256   5.843 -0.1466 -0.2368 -0.1099
   49MOL   C27923415   0.525   6.227   5.953  0.7308 -0.5177  0.4197
   49MOL   C28023416   0.543   6.315   6.057  0.0647  0.4995 -0.0247
   49MOL   O28123417   0.441   6.172   5.738  0.0254  0.3675  0.2954
   49MOL   H28223418   0.235   6.334   6.525  4.1023 -0.4542  0.6959
   49MOL   H28323419   0.433   6.344   6.376  0.3743  0.6176  0.2086
   49MOL   H28423420   0.302   6.741   6.261 -1.7928 -0.5728  0.0920
   49MOL   H28523421   0.134   6.730   6.441  1.8188  1.9360 -1.7704
   49MOL   H28623422   0.348   6.568   5.939 -1.1147 -0.4718 -0.9849
   49MOL   H28723423   0.317   6.419   5.761  0.1636 -0.8219 -0.3303
   49MOL   H28823424   0.575   6.133   5.970 -4.5090 -3.1536  2.4134
   49MOL   H28923425   0.613   6.294   6.136  0.9731  0.3858 -0.8540
   49MOL   C29023426   0.310   5.974   5.758  0.1466  0.1512 -0.0401
   49MOL   C29123427   0.190   5.909   5.730 -0.6706 -0.6341  0.0082
   49MOL   C29223428   0.088   5.970   5.649 -1.2125 -0.0073  0.3337
   49MOL   C29323429   0.107   6.097   5.595  0.7694 -0.0062 -0.5978
   49MOL   C29423430   0.228   6.166   5.630  0.6716 -0.0757  0.6090
   49MOL   C29523431   0.325   6.107   5.716  0.5833 -0.2145  0.2172
   49MOL   S29623432   8.368   5.884   5.612  0.1083  0.0454 -0.0372
   49MOL   O29723433   8.322   5.829   5.742  0.1457  0.4351 -0.6071
   49MOL   O29823434   8.399   5.796   5.495  0.3371  0.2757 -0.3491
   49MOL   C29923435   8.238   6.000   5.563 -0.7138  0.7941  0.9440
   49MOL   C30023436   8.210   6.016   5.425  0.1872  0.4801  0.2009
   49MOL   C30123437   8.102   6.098   5.386 -0.1142 -0.1441  0.1121
   49MOL   C30223438   8.016   6.159   5.483 -0.3519 -0.1729  0.3705
   49MOL   C30323439   8.051   6.139   5.622 -0.5095 -0.3933 -0.3079
   49MOL   C30423440   8.161   6.057   5.660 -0.5581  0.6611 -0.5705
   49MOL   O30523441   7.919   6.236   5.434  0.0489  0.1674 -0.0412
   49MOL   H30623442   0.379   5.927   5.827 -2.8613 -2.0201  1.6273
   49MOL   H30723443   0.171   5.806   5.758  0.6086 -1.9504 -3.7288
   49MOL   H30823444   0.040   6.141   5.523  1.9846  1.6481 -0.7426
   49MOL   H30923445   0.243   6.264   5.587 -1.4053 -0.6170 -1.4265
   49MOL   H31023446   8.271   5.971   5.348 -0.1598  0.7891 -0.2555
   49MOL   H31123447   8.085   6.110   5.280 -2.4181  1.1404  0.5920
   49MOL   H31223448   7.986   6.175   5.700  0.1355  1.1517 -0.4695
   49MOL   H31323449   8.182   6.040   5.764  1.6650  0.1743 -1.0739
   49MOL   C31423450   8.028   6.446   5.470  0.0386  0.0894 -0.4258
   49MOL   C31523451   8.031   6.576   5.517 -0.4019  0.1809 -0.3236
   49MOL   C31623452   7.913   6.624   5.580 -0.1489 -0.0908 -0.2513
   49MOL   C31723453   7.796   6.542   5.588 -0.3008  0.2851  0.5609
   49MOL   C31823454   7.787   6.411   5.533 -0.5280 -0.6659  0.4704
   49MOL   C31923455   7.908   6.364   5.481  0.4561 -0.2452 -0.2228
   49MOL   S32023456   7.918   6.791   5.646 -0.0979  0.1168  0.0334
   49MOL   O32123457   8.060   6.832   5.648  0.0021  0.1841 -0.5600
   49MOL   O32223458   7.850   6.788   5.773 -0.1373 -0.2011  0.1990
   49MOL   C32323459   7.831   6.887   5.528  0.6758 -0.4152  0.0238
   49MOL   C32423460   7.909   6.975   5.450 -0.2139 -0.1164  1.0845
   49MOL   C32523461   7.851   7.050   5.347  0.0779  0.2459 -0.3660
   49MOL   C32623462   7.710   7.050   5.327  0.1213  0.2502  0.0408
   49MOL   C32723463   7.627   6.972   5.416  0.1439 -0.1173  0.2815
   49MOL   C32823464   7.690   6.895   5.516  0.2560 -0.5109  0.5889
   49MOL   O32923465   7.653   7.137   5.243  0.4491 -0.3207  0.4056
   49MOL   H33023466   8.114   6.396   5.429  0.6893  2.7227 -2.4274
   49MOL   H33123467   8.120   6.636   5.511  0.3698 -0.8899  0.1759
   49MOL   H33223468   7.712   6.594   5.630 -2.3769 -1.6270 -1.0636
   49MOL   H33323469   7.692   6.360   5.545 -2.1241  2.3966  1.2981
   49MOL   H33423470   8.015   6.978   5.469  0.2461 -1.2126 -1.1590
   49MOL   H33523471   7.909   7.121   5.289  0.3853 -0.1943 -0.6011
   49MOL   H33623472   7.520   6.975   5.409  0.0151 -0.0530  2.2546
   49MOL   H33723473   7.632   6.831   5.581 -0.8750 -0.5421 -0.4428
   49MOL   C33823474   7.773   7.324   5.195 -0.5258  0.1353 -0.3810
   49MOL   C33923475   7.862   7.393   5.115  0.7454 -0.1608  0.0892
   49MOL   C34023476   7.907   7.341   4.991 -0.9858  0.5005 -0.2602
   49MOL   C34123477   7.870   7.209   4.955  0.7834 -0.3758  0.4078
   49MOL   C34223478   7.784   7.145   5.033  0.6581 -0.2472 -0.2694
   49MOL   C34323479   7.728   7.201   5.153  0.5842 -0.3477  0.0082
   49MOL   S34423480   8.039   7.421   4.903  0.2863  0.3731 -0.1345
   49MOL   O34523481   8.125   7.322   4.837  0.1025 -0.2344 -0.7531
   49MOL   O34623482   8.110   7.518   4.993  0.8846  0.0078 -0.8701
   49MOL   C34723483   7.952   7.510   4.774 -0.2660  0.0870 -0.3568
   49MOL   C34823484   7.904   7.440   4.660  0.4721  0.0853  0.2446
   49MOL   C34923485   7.843   7.520   4.559 -0.4041  0.3358 -0.4518
   49MOL   C35023486   7.840   7.662   4.567  0.1941 -0.3210 -0.2087
   49MOL   C35123487   7.874   7.727   4.688 -0.4059 -0.5247 -0.3690
   49MOL   C35223488   7.931   7.649   4.792  0.8067 -0.3960  0.2971
   49MOL   O35323489   7.785   7.737   4.471  0.1055  0.5828 -0.6805
   49MOL   H35423490   7.739   7.375   5.284 -0.5318 -1.1465  0.3537
   49MOL   H35523491   7.913   7.481   5.151  2.6792 -0.7813 -1.0869
   49MOL   H35623492   7.915   7.161   4.869  2.7791  0.2613  1.0619
   49MOL   H35723493   7.755   7.044   5.009  0.5605  0.2355 -2.2558
   49MOL   H35823494   7.925   7.334   4.656 -0.7708 -0.1585  0.0390
   49MOL   H35923495   7.798   7.474   4.472  0.3651 -1.2865 -0.0084
   49MOL   H36023496   7.864   7.834   4.700  2.4012 -0.0630 -1.6080
   49MOL   H36123497   7.957   7.699   4.884  1.9314 -0.0525 -0.1939
   49MOL   C36223498   7.750   7.652   4.248 -0.4928 -0.5114 -0.8883
   49MOL   C36323499   7.804   7.634   4.120  0.0039  0.1483 -0.1204
   49MOL   C36423500   7.938   7.670   4.092  0.2630  0.2953 -0.7525
   49MOL   C36523501   8.020   7.730   4.188  0.4016  0.2566  0.4635
   49MOL   C36623502   7.961   7.762   4.310  0.6639 -0.1116  0.4266
   49MOL   C36723503   7.831   7.720   4.347 -0.2503  0.1139  0.0909
   49MOL   S36823504   8.001   7.623   3.935 -0.2869  0.2737 -0.6626
   49MOL   O36923505   8.140   7.679   3.934  0.0472 -0.5608  0.7909
   49MOL   O37023506   7.902   7.661   3.833  0.0984  0.0244 -0.5455
   49MOL   C37123507   8.014   7.438   3.943 -0.3165 -0.5414 -0.1008
   49MOL   C37223508   7.917   7.356   3.884  0.2014 -0.5039  0.1162
   49MOL   C37323509   7.931   7.214   3.894  0.1112  0.6728  0.5256
   49MOL   C37423510   8.036   7.158   3.971  0.4890 -0.5261 -0.5788
   49MOL   C37523511   8.130   7.243   4.034  0.3227  0.5168  0.1322
   49MOL   C37623512   8.119   7.381   4.019  0.6054  0.3638  0.4689
   49MOL   O37723513   8.047   7.022   3.996  0.0570  0.5324  0.0172
   49MOL   H37823514   7.656   7.611   4.280 -0.0911 -0.0433  0.9760
   49MOL   H37923515   7.745   7.584   4.045 -0.2956  0.5118 -0.1299
   49MOL   H38023516   8.122   7.759   4.169  0.4747 -0.1599  0.1967
   49MOL   H38123517   8.030   7.813   4.375  1.4381 -1.2251  0.4841
   49MOL   H38223518   7.829   7.394   3.834 -0.9540 -0.8076  1.8533
   49MOL   H38323519   7.859   7.148   3.847 -1.2065  1.1031  1.8944
   49MOL   H38423520   8.214   7.191   4.078 -0.9894 -0.1994  1.8515
   49MOL   H38523521   8.194   7.449   4.057 -0.6789  1.7363  0.5830
   49MOL   C38623522   7.874   6.856   4.014 -0.0911  0.7271  0.4473
   49MOL   C38723523   7.782   6.786   4.100  0.0941  0.2827 -0.8590
   49MOL   C38823524   7.773   6.829   4.237  0.1815  1.2428 -0.3901
   49MOL   C38923525   7.854   6.928   4.290 -0.7138  0.2715  0.2929
   49MOL   C39023526   7.942   6.997   4.201 -0.5167 -0.1009 -0.2046
   49MOL   C39123527   7.945   6.965   4.066 -0.3171 -0.3194  0.6751
   49MOL   S39223528   7.657   6.746   4.348 -0.3028  0.0275  0.2612
   49MOL   O39323529   7.653   6.828   4.468 -0.0112  0.0661  0.3299
   49MOL   O39423530   7.692   6.606   4.352 -0.1896 -0.1961  0.2151
   49MOL   C39523531   7.501   6.759   4.261 -0.0599  0.8591  0.3966
   49MOL   C39623532   7.465   6.887   4.207 -0.0250  0.5296 -0.5384
   49MOL   C39723533   7.332   6.893   4.151 -0.0555  0.5866 -0.2851
   49MOL   C39823534   7.256   6.774   4.136 -0.6213  0.0718 -0.6407
   49MOL   C39923535   7.301   6.644   4.185 -0.4104 -1.3368 -0.4424
   49MOL   C40023536   7.415   6.647   4.261 -0.8039  0.2844  0.3733
   49MOL   O40123537   7.147   6.794   4.060  0.2858  0.0772  0.1004
   49MOL   H40223538   7.886   6.833   3.909 -0.2668 -2.4594  1.0540
   49MOL   H40323539   7.722   6.704   4.062  0.1505 -0.0322 -0.2849
   49MOL   H40423540   7.852   6.948   4.396  1.1919 -1.5855  0.6964
   49MOL   H40523541   8.009   7.077   4.228  0.3006 -0.6489 -0.5656
   49MOL   H40623542   7.532   6.970   4.223 -0.5296  1.2407 -2.0010
   49MOL   H40723543   7.288   6.986   4.118 -1.1062  0.2675  0.1828
   49MOL   H40823544   7.236   6.558   4.195  0.8414 -2.2446 -0.0337
   49MOL   H40923545   7.449   6.561   4.316 -0.5757 -0.2096 -0.5200
   49MOL   C41023546   6.942   6.659   4.083  0.2654 -0.0920  0.4250
   49MOL   C41123547   6.867   6.556   4.036  0.2293 -0.4357  0.4188
   49MOL   C41223548   6.922   6.455   3.960 -0.4810  0.6142 -0.0812
   49MOL   C41323549   7.054   6.472   3.906  0.0702 -0.0607  0.1412
   49MOL   C41423550   7.130   6.591   3.936  0.2683  0.0366  0.3514
   49MOL   C41523551   7.075   6.680   4.029  0.0622  0.8924 -0.8171
   49MOL   S41623552   6.835   6.304   3.913  0.1632 -0.0869 -0.0264
   49MOL   O41723553   6.904   6.228   3.804 -0.0452 -0.0664  0.5974
   49MOL   O41823554   6.697   6.352   3.892 -0.5317 -0.3566 -0.2108
   49MOL   C41923555   6.839   6.205   4.068 -0.1621  0.2623 -0.5703
   49MOL   C42023556   6.938   6.104   4.068 -0.5040 -0.5330  0.0216
   49MOL   C42123557   6.945   6.025   4.186  0.0078 -0.3107  0.5896
   49MOL   C42223558   6.870   6.057   4.304  0.1631  0.2532 -0.2641
   49MOL   C42323559   6.778   6.167   4.301  0.0707  0.9905  0.2353
   49MOL   C42423560   6.755   6.240   4.177  0.4524 -0.4733 -0.1980
   49MOL   O42523561   6.894   5.985   4.421 -0.1708 -0.0603 -0.2825
   49MOL   H42623562   6.904   6.743   4.140  1.2409 -1.1902  2.7738
   49MOL   H42723563   6.769   6.542   4.078 -0.3635  1.4857 -0.2221
   49MOL   H42823564   7.101   6.391   3.851 -1.5634 -1.6779  1.0763
   49MOL   H42923565   7.232   6.610   3.906  0.6617  0.3833  1.8502
   49MOL   H43023566   6.998   6.079   3.982  1.4500  0.3337  1.1018
   49MOL   H43123567   7.021   5.949   4.198  0.0607 -0.7996 -2.4773
   49MOL   H43223568   6.718   6.189   4.388  2.5223 -0.6835  2.4334
   49MOL   H43323569   6.681   6.318   4.175 -0.3859 -1.2990 -1.8950
   49MOL   C43423570   6.736   5.804   4.381  0.5236 -0.1770  0.1022
   49MOL   C43523571   6.641   5.709   4.438 -0.3627  0.8000 -0.5169
   49MOL   C43623572   6.633   5.701   4.581  0.1048  0.1509 -0.5916
   49MOL   C43723573   6.705   5.781   4.671 -0.0603 -0.9563  0.4056
   49MOL   C43823574   6.783   5.884   4.608  0.4164  0.2311 -0.3554
   49MOL   C43923575   6.808   5.888   4.468  0.3385 -0.3450 -0.2696
   49MOL   S44023576   6.537   5.557   4.638 -0.0508 -0.1694 -0.1615
   49MOL   O44123577   6.628   5.442   4.668  0.1480 -0.4857 -0.1058
   49MOL   O44223578   6.422   5.533   4.553  0.3437 -0.7122 -0.2029
   49MOL   C44323579   6.480   5.609   4.794 -0.6360  0.0483  0.0005
   49MOL   C44423580   6.350   5.663   4.804  0.0085  0.1661  0.2609
   49MOL   C44523581   6.306   5.710   4.930  0.0818  0.5085  0.0742
   49MOL   C44623582   6.385   5.691   5.045  0.6375  0.2063  0.2863
   49MOL   C44723583   6.518   5.635   5.034  0.2197 -0.0460  0.0422
   49MOL   C44823584   6.567   5.601   4.907  0.2461 -0.5286  0.7927
   49MOL   O44923585   6.338   5.725   5.171  0.1220 -0.3589 -0.1923
   49MOL   H45023586   6.734   5.802   4.273  0.3287 -2.4783  0.1154
   49MOL   H45123587   6.580   5.641   4.381 -1.4825  0.9645  0.4612
   49MOL   H45223588   6.699   5.774   4.778  1.1594  0.0279  0.5454
   49MOL   H45323589   6.825   5.967   4.664 -0.7726  0.4408  0.2342
   49MOL   H45423590   6.287   5.667   4.716  0.3629 -1.7228 -0.0957
   49MOL   H45523591   6.209   5.759   4.933 -0.5855 -0.5995 -1.9401
   49MOL   H45623592   6.580   5.609   5.119 -0.2151 -2.1136 -0.2527
   49MOL   H45723593   6.662   5.550   4.893  0.5242  0.9555 -3.2035
   49MOL   C45823594   6.409   5.963   5.147  0.0763 -0.2495  0.2981
   49MOL   C45923595   6.392   6.096   5.188 -0.4206 -0.2565 -0.2534
   49MOL   C46023596   6.273   6.129   5.261  0.4795 -0.0285  0.0216
   49MOL   C46123597   6.193   6.032   5.308  0.5433  0.4457 -0.2230
   49MOL   C46223598   6.214   5.900   5.284  0.0922  0.6465  0.1703
   49MOL   C46323599   6.323   5.862   5.197 -0.5004 -0.8972 -0.5081
   49MOL   S46423600   6.225   6.300   5.288  0.0609  0.2833 -0.4214
   49MOL   O46523601   6.106   6.321   5.203 -0.0457  0.4871 -0.0405
   49MOL   O46623602   6.343   6.382   5.264 -0.3349  0.2259 -0.0496
   49MOL   C46723603   6.187   6.316   5.460  0.0107  0.0462  0.0572
   49MOL   C46823604   6.297   6.314   5.547  0.3764  0.7959 -0.2452
   49MOL   C46923605   6.268   6.329   5.682 -0.6507 -0.3729 -0.2361
   49MOL   C47023606   6.133   6.330   5.733  0.4154 -0.1887 -0.4138
   49MOL   C47123607   6.030   6.326   5.642 -0.0738  0.7560 -0.2010
   49MOL   C47223608   6.053   6.323   5.505 -0.3870  0.3933  0.2592
   49MOL   O47323609   6.113   6.326   5.866 -0.2391  0.7273  0.4482
   49MOL   H47423610   6.493   5.927   5.088  1.6633  1.6228  1.3673
   49MOL   H47523611   6.458   6.177   5.157 -2.6258  1.2030 -1.2682
   49MOL   H47623612   6.112   6.060   5.373  0.1669 -2.6768  0.7392
   49MOL   H47723613   6.145   5.826   5.321 -0.5830  1.4481  0.5347
   49MOL   H47823614   6.398   6.309   5.510  1.0463 -1.8974  1.8084
   49MOL   H47923615   6.354   6.319   5.747  0.4850 -1.3054 -1.8615
   49MOL   H48023616   5.933   6.335   5.688  0.9592 -0.6857  2.3708
   49MOL   H48123617   5.974   6.325   5.431  0.9359 -0.5063 -1.2022
   49MOL   H48223618   6.195   6.312   5.909  0.3625 -0.1884 -0.9542
   50MOL     C123619   6.474   0.939   1.509 -0.4898  0.4463 -0.2067
   50MOL     C223620   6.439   1.063   1.570 -0.2632  0.1498 -0.0136
   50MOL     C323621   6.507   1.105   1.683  0.7869 -0.3673  0.0577
   50MOL     C423622   6.606   1.023   1.743 -0.3122 -0.4977  0.4775
   50MOL     C523623   6.638   0.899   1.691  0.0150 -0.4049 -0.1132
   50MOL     C623624   6.569   0.859   1.573 -0.0054 -0.8491 -0.3092
   50MOL     S723625   6.482   1.266   1.756  0.1660  0.2664 -0.2558
   50MOL     O823626   6.456   1.245   1.899  0.3532 -0.3837  0.4613
   50MOL     O923627   6.384   1.343   1.675  0.0447  0.5745 -0.2384
   50MOL    C1023628   6.639   1.343   1.743 -0.4448  0.8835  0.5559
   50MOL    C1123629   6.707   1.364   1.618  0.2582 -0.0022  0.1181
   50MOL    C1223630   6.823   1.446   1.611 -0.2558  0.0893  0.2151
   50MOL    C1323631   6.885   1.495   1.729 -0.1087 -0.9253  0.2809
   50MOL    C1423632   6.817   1.481   1.852  0.0734 -0.1669  0.2916
   50MOL    C1523633   6.698   1.400   1.860 -1.3563 -0.2643  0.1823
   50MOL    O1623634   7.013   1.551   1.723  0.7446 -0.0127  0.6503
   50MOL    H1723635   6.422   0.909   1.419  0.1651 -1.5896  0.0715
   50MOL    H1823636   6.365   1.124   1.521  0.7815  0.8224 -0.7775
   50MOL    H1923637   6.658   1.046   1.835 -0.9077 -0.4332  0.7993
   50MOL    H2023638   6.707   0.831   1.738  1.9374  2.0799  0.7898
   50MOL    H2123639   6.671   1.317   1.528  1.1903  0.3571 -0.4566
   50MOL    H2223640   6.881   1.466   1.522 -0.2441 -0.8099  0.0109
   50MOL    H2323641   6.858   1.518   1.944  1.7076  1.9861 -1.2377
   50MOL    H2423642   6.652   1.380   1.956 -0.1518 -0.8577  0.6450
   50MOL    H2523643   6.595   0.763   1.529  2.5867  0.1294 -1.0372
   50MOL    C2623644   7.167   1.379   1.790 -0.0972  0.2892 -0.1115
   50MOL    C2723645   7.251   1.325   1.892  0.0187  0.4896  1.0144
   50MOL    C2823646   7.273   1.405   2.006  0.1914  0.8680 -0.1092
   50MOL    C2923647   7.221   1.535   2.028 -0.2668 -0.0236  0.5949
   50MOL    C3023648   7.137   1.579   1.922 -0.1918  0.1075 -0.3292
   50MOL    C3123649   7.112   1.504   1.807  0.3454 -0.5629 -0.0710
   50MOL    S3223650   7.369   1.333   2.139 -0.0564 -0.4460  0.0742
   50MOL    O3323651   7.427   1.209   2.095  0.6280  0.3096 -0.2325
   50MOL    O3423652   7.281   1.328   2.255 -0.1099 -0.0890  0.1309
   50MOL    C3523653   7.502   1.444   2.180  0.6433  0.3110 -0.2845
   50MOL    C3623654   7.511   1.492   2.309 -0.4027  0.6813 -0.3844
   50MOL    C3723655   7.625   1.570   2.351 -0.6195  0.0725 -0.1015
   50MOL    C3823656   7.729   1.599   2.261 -0.1329 -0.1472 -0.0302
   50MOL    C3923657   7.719   1.548   2.125  1.0297  0.0972  0.1157
   50MOL    C4023658   7.607   1.471   2.093 -0.0792  0.0389 -0.8305
   50MOL    O4123659   7.833   1.678   2.302 -0.0595 -0.4225 -0.2919
   50MOL    H4223660   7.147   1.320   1.702  1.7138 -2.0679  0.9902
   50MOL    H4323661   7.299   1.230   1.875 -1.4228 -0.2292  0.9188
   50MOL    H4423662   7.242   1.598   2.113 -0.6724  0.2071  0.5239
   50MOL    H4523663   7.087   1.675   1.925 -0.2879  0.0954 -1.4866
   50MOL    H4623664   7.438   1.468   2.385 -1.4685 -0.4525 -1.7434
   50MOL    H4723665   7.632   1.613   2.449  0.6668  0.1851 -0.2304
   50MOL    H4823666   7.802   1.572   2.059  1.1282 -2.2932 -0.6755
   50MOL    H4923667   7.597   1.444   1.988 -0.3038  3.3912 -1.7288
   50MOL    C5023668   7.946   1.831   2.160  0.2365 -1.0073 -0.6663
   50MOL    C5123669   7.947   1.954   2.084 -0.3301  1.2017 -0.4392
   50MOL    C5223670   7.854   2.053   2.127 -0.0257 -0.2649 -0.6746
   50MOL    C5323671   7.761   2.027   2.228 -0.2950 -0.1870 -0.0336
   50MOL    C5423672   7.748   1.900   2.286  0.2570 -0.1352  1.2384
   50MOL    C5523673   7.839   1.805   2.247 -0.0113 -0.3211 -0.3371
   50MOL    S5623674   7.852   2.218   2.055 -0.1333  0.2311 -0.5727
   50MOL    O5723675   7.715   2.239   2.002 -0.0156 -0.1257 -0.1705
   50MOL    O5823676   7.963   2.224   1.960 -0.0050 -0.0520 -0.4955
   50MOL    C5923677   7.874   2.324   2.193 -0.6295 -0.1688  0.7941
   50MOL    C6023678   7.766   2.405   2.233  0.3916  0.3701  0.4947
   50MOL    C6123679   7.781   2.486   2.345  0.0352  0.5446  0.5208
   50MOL    C6223680   7.904   2.494   2.422 -0.0033 -1.0995 -0.5197
   50MOL    C6323681   8.012   2.423   2.370 -0.3423 -0.0739 -0.1329
   50MOL    C6423682   7.996   2.345   2.255 -0.3012 -0.8808  0.1378
   50MOL    O6523683   7.919   2.565   2.538 -0.1249  0.7479 -0.5074
   50MOL    H6623684   8.028   1.764   2.142  1.1245 -0.0082 -0.3954
   50MOL    H6723685   8.032   1.982   2.023 -0.0760  0.7863 -0.2792
   50MOL    H6823686   7.692   2.104   2.260 -2.0785 -1.5346 -0.5280
   50MOL    H6923687   7.682   1.880   2.369 -1.5843 -3.0018 -0.8165
   50MOL    H7023688   7.670   2.395   2.185  1.3078  1.1259 -1.5601
   50MOL    H7123689   7.699   2.543   2.385  0.0655  1.3864 -0.5812
   50MOL    H7223690   8.110   2.427   2.415 -1.2970  0.1437  1.9888
   50MOL    H7323691   8.068   2.287   2.199  0.2790 -0.7707  0.7643
   50MOL    C7423692   8.050   2.736   2.426  0.3560  0.0980 -0.3601
   50MOL    C7523693   8.163   2.819   2.422  0.3042  0.3398 -0.3318
   50MOL    C7623694   8.242   2.823   2.538  0.0296  0.5815 -0.3750
   50MOL    C7723695   8.218   2.748   2.651  0.5897 -0.1103 -0.5043
   50MOL    C7823696   8.111   2.664   2.653 -0.1308  0.1619  0.1148
   50MOL    C7923697   8.024   2.654   2.540 -0.1875 -0.0887 -0.0091
   50MOL    S8023698   8.373   2.946   2.550 -0.3761  0.0149  0.0089
   50MOL    O8123699   8.376   3.027   2.422 -0.3054 -0.3226 -0.2246
   50MOL    O8223700   0.073   2.877   2.581  0.2379 -0.2532  0.2357
   50MOL    C8323701   8.337   3.059   2.678  0.0679 -0.6773  0.1742
   50MOL    C8423702   8.245   3.164   2.651  0.1740 -0.3873 -0.0879
   50MOL    C8523703   8.227   3.267   2.748 -0.5622 -0.4281 -0.2368
   50MOL    C8623704   8.312   3.266   2.864 -0.6311 -0.3084 -1.1675
   50MOL    C8723705   8.406   3.157   2.886 -0.0535 -1.3384  0.0639
   50MOL    C8823706   8.410   3.050   2.797  0.1788 -0.9151 -0.5182
   50MOL    O8923707   8.298   3.364   2.959 -0.2642  0.5428 -0.4534
   50MOL    H9023708   7.977   2.732   2.347 -1.6303 -0.2118  1.4303
   50MOL    H9123709   8.191   2.897   2.353 -1.1134  2.6708  1.6164
   50MOL    H9223710   8.279   2.763   2.739 -1.7875  2.0104  0.8085
   50MOL    H9323711   8.083   2.602   2.737 -0.2138 -0.3384 -0.2799
   50MOL    H9423712   8.193   3.165   2.557 -2.9934 -0.1550  1.6157
   50MOL    H9523713   8.158   3.347   2.724 -1.3413 -0.6294  1.3297
   50MOL    H9623714   0.036   3.154   2.978 -0.7621  0.0872  0.5540
   50MOL    H9723715   0.062   2.977   2.813  0.4198 -0.5626 -0.0745
   50MOL    C9823716   0.050   3.502   3.046 -0.4179 -1.0749 -0.0301
   50MOL    C9923717   0.136   3.610   3.038  0.5815 -0.9838  0.0547
   50MOL   C10023718   0.142   3.687   2.924  0.3934 -0.6995 -0.2725
   50MOL   C10123719   0.058   3.653   2.818 -0.7408 -0.0650 -0.5579
   50MOL   C10223720   8.398   3.541   2.822 -0.9446 -0.3147  0.6608
   50MOL   C10323721   8.394   3.464   2.939  0.6606  0.0850 -0.2615
   50MOL   S10423722   0.274   3.805   2.904  0.0237  0.3329 -0.2716
   50MOL   O10523723   0.335   3.785   2.769  0.0765  0.1527  0.2751
   50MOL   O10623724   0.354   3.795   3.026 -0.1770 -0.1186  0.2653
   50MOL   C10723725   0.191   3.963   2.899  0.0540  0.1159 -1.2186
   50MOL   C10823726   0.267   4.070   2.948  0.4186 -0.0968 -0.7931
   50MOL   C10923727   0.211   4.199   2.947 -0.3726  0.3210 -0.6192
   50MOL   C11023728   0.088   4.225   2.890  0.5869  0.2811 -0.0626
   50MOL   C11123729   0.010   4.118   2.847 -0.3731  0.7394  0.1902
   50MOL   C11223730   0.059   3.984   2.857  0.3526 -0.4367 -0.5764
   50MOL   O11323731   0.047   4.359   2.881  0.1859 -0.2375 -0.4280
   50MOL   H11423732   0.060   3.444   3.137 -1.9064  0.8460  1.3874
   50MOL   H11523733   0.207   3.617   3.120 -0.1533 -0.0654  0.6198
   50MOL   H11623734   0.058   3.709   2.726 -1.9649  0.5138 -0.2129
   50MOL   H11723735   8.338   3.522   2.735 -0.7471 -1.2077  0.7122
   50MOL   H11823736   0.369   4.067   2.983  1.1086 -1.6313 -2.8189
   50MOL   H11923737   0.276   4.284   2.965 -1.8760  1.1094  1.1396
   50MOL   H12023738   8.337   4.126   2.803 -0.1134  0.3618 -0.4592
   50MOL   H12123739   8.418   3.904   2.827  1.1724 -0.5527 -2.1458
   50MOL   C12223740   8.237   4.372   2.929 -0.4232 -0.6642  0.0031
   50MOL   C12323741   8.135   4.406   3.018  0.4280 -0.2993 -0.3302
   50MOL   C12423742   8.161   4.467   3.143 -0.0160  0.1461 -0.0930
   50MOL   C12523743   8.292   4.496   3.176 -0.4669  0.2141  0.0445
   50MOL   C12623744   8.398   4.460   3.089 -0.6399 -0.3195  0.3715
   50MOL   C12723745   8.373   4.397   2.966 -0.0084  0.0553  0.4309
   50MOL   S12823746   8.029   4.488   3.257 -0.2668  0.4197 -0.1055
   50MOL   O12923747   8.054   4.394   3.376  0.3915 -0.8473  0.1747
   50MOL   O13023748   7.893   4.480   3.193 -0.1130 -0.6027  0.0392
   50MOL   C13123749   8.060   4.649   3.323 -0.0006  0.4279  0.2029
   50MOL   C13223750   8.161   4.686   3.413 -0.2332  0.1339  0.4956
   50MOL   C13323751   8.176   4.819   3.445  0.1107 -0.0035 -0.2802
   50MOL   C13423752   8.087   4.924   3.398  0.5254 -0.0404  0.3338
   50MOL   C13523753   7.983   4.879   3.325  0.3181 -0.4734 -0.5499
   50MOL   C13623754   7.965   4.746   3.289  0.3905 -0.2310 -0.6191
   50MOL   O13723755   8.104   5.056   3.435 -0.0257 -0.1806 -0.2565
   50MOL   H13823756   8.219   4.325   2.834 -1.0343  0.7958 -0.6185
   50MOL   H13923757   8.032   4.391   2.990  0.7752 -0.9627 -1.2745
   50MOL   H14023758   8.316   4.530   3.276  1.1064  1.2823 -0.6591
   50MOL   H14123759   0.075   4.469   3.121  0.0467 -0.5364 -1.6691
   50MOL   H14223760   8.230   4.619   3.461 -0.5663 -0.7040 -0.1862
   50MOL   H14323761   8.242   4.856   3.522 -0.1935  0.4226 -0.2192
   50MOL   H14423762   7.917   4.955   3.286 -1.1057 -1.9543 -1.0946
   50MOL   H14523763   7.881   4.739   3.221  2.1316  1.2145 -2.9958
   50MOL   C14623764   8.078   5.232   3.598 -0.4142  0.0173 -0.2851
   50MOL   C14723765   8.018   5.278   3.716  0.2164  0.1743  0.5276
   50MOL   C14823766   7.933   5.203   3.791  0.7649 -0.2070  0.7630
   50MOL   C14923767   7.901   5.073   3.754 -0.4050  0.0839  0.1807
   50MOL   C15023768   7.951   5.025   3.632 -0.1100  0.3839 -0.2361
   50MOL   C15123769   8.045   5.101   3.556  0.0729  0.3337  0.1813
   50MOL   S15223770   7.871   5.276   3.947  0.4078 -0.2786 -0.0237
   50MOL   O15323771   7.736   5.222   3.958 -0.1430  0.1260 -0.2003
   50MOL   O15423772   7.881   5.420   3.939 -0.1412 -0.0134  0.4080
   50MOL   C15523773   7.975   5.213   4.074 -0.2197 -0.0657  0.2143
   50MOL   C15623774   7.933   5.204   4.203  0.9225  0.0706 -0.5450
   50MOL   C15723775   8.018   5.146   4.299  0.3274 -0.0125  0.5490
   50MOL   C15823776   8.145   5.101   4.273  0.1608 -0.1545  0.4192
   50MOL   C15923777   8.187   5.105   4.135  0.0342 -0.0532 -0.6195
   50MOL   C16023778   8.095   5.153   4.038 -0.6716 -0.2808  0.6531
   50MOL   O16123779   8.222   5.049   4.379 -0.1036 -0.5965  0.1655
   50MOL   H16223780   8.162   5.276   3.547  1.4078 -2.4535  0.4438
   50MOL   H16323781   8.044   5.375   3.755 -0.1706  0.3424  0.3739
   50MOL   H16423782   7.835   5.010   3.813 -1.7489  0.0803 -1.2960
   50MOL   H16523783   7.925   4.924   3.605  1.3313 -0.6629  2.0658
   50MOL   H16623784   7.838   5.243   4.235  1.1518  1.1040 -1.0936
   50MOL   H16723785   7.981   5.136   4.400 -0.8005 -0.6590  0.0674
   50MOL   H16823786   8.287   5.083   4.101 -1.0197 -2.5939 -2.1907
   50MOL   H16923787   8.126   5.168   3.935 -3.0652 -0.7635 -0.1530
   50MOL   C17023788   0.012   4.956   4.315  0.1218  0.1535  0.5635
   50MOL   C17123789   0.155   4.970   4.322  0.7000  0.7686  0.0497
   50MOL   C17223790   0.213   5.087   4.378 -0.5618 -1.0893  0.4785
   50MOL   C17323791   0.133   5.192   4.415 -0.0806 -0.0990 -0.0853
   50MOL   C17423792   8.420   5.171   4.418 -0.3646 -0.1529  0.2388
   50MOL   C17523793   8.356   5.064   4.361 -0.1641 -0.5684  0.0069
   50MOL   S17623794   0.391   5.099   4.422  0.0346  0.0182 -0.2291
   50MOL   O17723795   0.434   5.238   4.405  0.2368  0.3760 -0.5000
   50MOL   O17823796   0.465   4.998   4.344  0.2284 -0.2953 -0.5354
   50MOL   C17923797   0.402   5.065   4.599 -0.1599 -0.9020  0.0114
   50MOL   C18023798   0.347   5.164   4.678  0.0016 -0.0412 -0.5943
   50MOL   C18123799   0.341   5.141   4.818  0.2601  0.9859  0.2852
   50MOL   C18223800   0.380   5.017   4.871 -0.5822  0.0951 -0.2410
   50MOL   C18323801   0.430   4.915   4.797 -0.0167  0.2573  0.9772
   50MOL   C18423802   0.442   4.942   4.656  0.6859  0.5147  0.6598
   50MOL   O18523803   0.368   5.001   5.011  0.1244 -0.0607 -0.1346
   50MOL   H18623804   8.397   4.865   4.275  0.8249  0.7213 -1.4833
   50MOL   H18723805   0.207   4.877   4.304  1.6778  1.0271  1.4713
   50MOL   H18823806   0.181   5.273   4.467  2.4010 -2.8149  2.0297
   50MOL   H18923807   8.358   5.239   4.474 -1.1287 -0.2879 -0.4378
   50MOL   H19023808   0.317   5.250   4.621 -3.0005 -0.9193 -0.4338
   50MOL   H19123809   0.301   5.222   4.878 -2.7729  0.1432 -0.5108
   50MOL   H19223810   0.465   4.823   4.843 -0.4337 -0.2341  0.3201
   50MOL   H19323811   0.489   4.874   4.587 -0.8874  0.4463 -0.3751
   50MOL   C19423812   0.429   5.145   5.195  0.7544  0.1278 -0.0493
   50MOL   C19523813   0.530   5.190   5.277 -0.0605 -0.7069 -0.1169
   50MOL   C19623814   0.658   5.128   5.274 -0.1704  0.1928 -0.2722
   50MOL   C19723815   0.689   5.026   5.184 -0.6174 -0.2393 -0.3376
   50MOL   C19823816   0.595   4.997   5.089  0.5631 -0.4037 -0.2968
   50MOL   C19923817   0.465   5.047   5.096  0.2299 -0.3442 -0.2881
   50MOL   S20023818   0.788   5.197   5.379 -0.0126  0.2829 -0.2992
   50MOL   O20123819   0.736   5.319   5.445  0.8947  0.4006  0.4985
   50MOL   O20223820   0.905   5.210   5.292 -0.4724 -0.2045 -0.7323
   50MOL   C20323821   0.831   5.077   5.507 -0.0071  0.5567 -0.6774
   50MOL   C20423822   0.956   5.019   5.511  0.1208 -0.3935 -0.0381
   50MOL   C20523823   0.989   4.924   5.611 -0.2334 -0.3497  0.3841
   50MOL   C20623824   0.891   4.878   5.706 -0.5319  0.5745 -0.1804
   50MOL   C20723825   0.767   4.931   5.700 -0.4652  0.2768 -0.0770
   50MOL   C20823826   0.737   5.032   5.605  0.6057 -0.1321 -0.0819
   50MOL   O20923827   0.916   4.774   5.798  0.1722 -0.5211  0.2791
   50MOL   H21023828   0.328   5.181   5.210  0.6949 -0.1895  0.3242
   50MOL   H21123829   0.520   5.273   5.345 -1.2113 -1.3037  0.4521
   50MOL   H21223830   0.790   4.987   5.182 -1.4586 -2.6414  1.4418
   50MOL   H21323831   0.616   4.934   5.003 -2.8942 -0.5278 -1.1506
   50MOL   H21423832   1.028   5.045   5.435  0.1731 -0.1874  0.0794
   50MOL   H21523833   1.090   4.891   5.629 -0.1597 -0.6345 -0.5250
   50MOL   H21623834   0.688   4.903   5.768 -0.7480 -1.0058 -0.9178
   50MOL   H21723835   0.638   5.074   5.612  1.0345  0.7846  0.6787
   50MOL   C21823836   0.899   4.914   5.992 -0.2144 -0.2409  0.5049
   50MOL   C21923837   0.874   4.916   6.130  0.2900  0.4719 -0.3659
   50MOL   C22023838   0.840   4.794   6.203 -0.5038 -0.4413 -0.3623
   50MOL   C22123839   0.815   4.676   6.137  0.0965 -0.7717 -0.5630
   50MOL   C22223840   0.839   4.674   6.001 -0.5897 -0.1588  0.4095
   50MOL   C22323841   0.888   4.787   5.928  0.4469  0.0159 -0.6249
   50MOL   S22423842   0.832   4.781   6.381 -0.1406 -0.1188  0.7717
   50MOL   O22523843   0.964   4.747   6.427  0.1839  0.5775 -0.0643
   50MOL   O22623844   0.713   4.696   6.405 -0.2895  0.9551  0.1567
   50MOL   C22723845   0.786   4.948   6.430 -0.7907  0.0893  0.2787
   50MOL   C22823846   0.882   5.032   6.486 -0.3225  0.3927 -0.0802
   50MOL   C22923847   0.835   5.163   6.517 -0.4235  0.0509 -0.9548
   50MOL   C23023848   0.702   5.202   6.502  0.5510 -0.8415 -0.5118
   50MOL   C23123849   0.608   5.108   6.472  0.2343  0.5031  0.2011
   50MOL   C23223850   0.649   4.985   6.430  0.3178  0.1607 -0.5232
   50MOL   O23323851   0.642   5.319   6.537 -0.1713  0.0739  0.6892
   50MOL   H23423852   0.922   5.007   5.942 -0.2803 -0.4112  0.1542
   50MOL   H23523853   0.885   5.017   6.164 -3.4393  0.4155  1.2842
   50MOL   H23623854   0.786   4.585   6.187  0.2888 -0.5289 -0.0116
   50MOL   H23723855   0.834   4.584   5.941 -0.9333  0.4682 -0.5140
   50MOL   H23823856   0.979   4.991   6.511 -0.2025 -0.3048 -1.6299
   50MOL   H23923857   0.908   5.227   6.564 -2.1755  3.6535 -2.9694
   50MOL   H24023858   0.503   5.136   6.476  0.4767  2.1389 -3.1417
   50MOL   H24123859   0.569   4.916   6.411 -0.9117  1.4022  0.0997
   50MOL   C24223860   0.736   5.388   6.740  0.4467  0.2012  0.0883
   50MOL   C24323861   0.821   5.471   6.821 -0.4472  0.0631  0.0738
   50MOL   C24423862   0.888   5.581   6.760  0.0888 -0.0985  0.5127
   50MOL   C24523863   0.880   5.600   6.620  0.3395 -0.2260  0.2414
   50MOL   C24623864   0.788   5.521   6.544 -0.5849  0.0060 -0.1340
   50MOL   C24723865   0.718   5.416   6.606  0.2110  0.1315  0.0633
   50MOL   S24823866   1.000   5.685   6.853 -0.0500  0.0577 -0.4977
   50MOL   O24923867   0.970   5.674   6.994 -0.3913  0.0286  0.1034
   50MOL   O25023868   0.985   5.815   6.790 -0.1410  0.6640  0.6082
   50MOL   C25123869   1.160   5.615   6.827  0.4958 -0.1407  0.0033
   50MOL   C25223870   1.183   5.476   6.843  0.3735  0.4115 -0.9340
   50MOL   C25323871   1.317   5.428   6.841 -0.0639 -0.8041  0.6864
   50MOL   C25423872   1.420   5.516   6.791 -1.1330  0.3561 -0.1695
   50MOL   C25523873   1.389   5.650   6.775 -0.1918 -0.5454  0.1646
   50MOL   C25623874   1.261   5.699   6.792 -0.1773  0.6710 -0.3551
   50MOL   O25723875   1.548   5.462   6.780  0.7475  0.0741 -0.1501
   50MOL   H25823876   0.675   5.308   6.779  0.9681 -0.2697 -0.0606
   50MOL   H25923877   0.817   5.462   6.928 -0.4558 -1.3834 -0.0399
   50MOL   H26023878   0.937   5.675   6.569 -0.9771 -0.3538 -1.4725
   50MOL   H26123879   0.788   5.534   6.437 -1.2587  1.5745  0.0401
   50MOL   H26223880   1.108   5.405   6.874  0.8277  1.0380  1.7229
   50MOL   H26323881   1.348   5.329   6.870 -0.3989 -0.5612  1.8951
   50MOL   H26423882   1.459   5.730   6.751 -1.6882  0.8741  0.4276
   50MOL   H26523883   1.246   5.805   6.774 -0.4708  0.5108 -1.0940
   50MOL   C26623884   1.579   5.359   6.563  0.7037  0.2294  0.8494
   50MOL   C26723885   1.651   5.354   6.442  0.4025 -0.5141 -0.4054
   50MOL   C26823886   1.746   5.457   6.416  0.4329  0.3668  0.3269
   50MOL   C26923887   1.765   5.565   6.504 -0.7085  0.5813  0.0858
   50MOL   C27023888   1.687   5.574   6.619  0.1169 -0.4917  0.2538
   50MOL   C27123889   1.606   5.469   6.655 -0.1594 -0.0310 -0.3524
   50MOL   S27223890   1.834   5.462   6.261  0.1312  0.3843 -0.3537
   50MOL   O27323891   1.959   5.531   6.281 -0.2020  0.5462 -0.5879
   50MOL   O27423892   1.735   5.528   6.177 -0.2410 -0.0454  0.2334
   50MOL   C27523893   1.864   5.286   6.216 -0.2955  0.0652 -0.3530
   50MOL   C27623894   1.997   5.241   6.201 -0.2805  0.4919  0.1485
   50MOL   C27723895   2.026   5.112   6.153  0.4588 -0.0792 -0.0593
   50MOL   C27823896   1.922   5.028   6.112 -0.3817 -0.5387  0.5417
   50MOL   C27923897   1.792   5.069   6.134  0.3536  0.1000 -0.0981
   50MOL   C28023898   1.760   5.193   6.182 -0.1760 -0.5865 -0.1880
   50MOL   O28123899   1.950   4.907   6.054  0.2308  0.0826 -0.6101
   50MOL   H28223900   1.503   5.291   6.601 -0.7159  2.3720  1.9174
   50MOL   H28323901   1.626   5.269   6.380  0.1004  0.2243 -1.2992
   50MOL   H28423902   1.833   5.646   6.480 -1.1708  0.4567 -1.6856
   50MOL   H28523903   1.699   5.656   6.689  0.8074  0.2244 -0.6871
   50MOL   H28623904   2.078   5.307   6.227  0.4811  1.1371 -3.5936
   50MOL   H28723905   2.128   5.078   6.143  0.0632 -1.1263 -0.6455
   50MOL   H28823906   1.715   4.996   6.115  1.0713 -0.2363 -1.7441
   50MOL   H28923907   1.654   5.214   6.181 -0.1440 -0.2679  1.4938
   50MOL   C29023908   1.898   4.739   6.226 -0.0209  0.4668 -0.0960
   50MOL   C29123909   1.942   4.640   6.317  0.3381  0.5511 -0.0188
   50MOL   C29223910   2.076   4.591   6.306 -0.4356  0.5381  0.1278
   50MOL   C29323911   2.166   4.645   6.208 -0.1202  0.7647 -0.2566
   50MOL   C29423912   2.121   4.750   6.122  0.9254  0.2412  0.3466
   50MOL   C29523913   1.988   4.796   6.130  0.0555 -1.2835  0.3512
   50MOL   S29623914   2.126   4.454   6.405  0.0630 -0.1721  0.1356
   50MOL   O29723915   2.050   4.462   6.533  0.1124 -0.6918  0.1602
   50MOL   O29823916   2.274   4.453   6.404  0.0903  0.4104 -0.2432
   50MOL   C29923917   2.046   4.315   6.320 -0.0138  0.1254  0.0923
   50MOL   C30023918   2.083   4.186   6.359  0.1857 -0.1617 -0.3751
   50MOL   C30123919   2.005   4.075   6.322 -0.3237  0.6772 -0.5109
   50MOL   C30223920   1.914   4.092   6.219 -0.0145 -0.1361  0.5418
   50MOL   C30323921   1.888   4.218   6.161 -1.0522 -0.3137 -0.3727
   50MOL   C30423922   1.951   4.326   6.218  0.1664  0.3973 -0.0984
   50MOL   O30523923   1.848   3.977   6.178 -0.1664 -0.5533 -0.4638
   50MOL   H30623924   1.794   4.767   6.219  0.4233  2.0141 -0.6648
   50MOL   H30723925   1.881   4.615   6.402 -0.4838  2.7349  0.0861
   50MOL   H30823926   2.264   4.600   6.202 -1.4478 -2.3612  0.2906
   50MOL   H30923927   2.188   4.785   6.045 -0.6011  1.3337 -0.5008
   50MOL   H31023928   2.160   4.177   6.435 -0.6912  0.8033  0.6377
   50MOL   H31123929   2.035   3.977   6.356 -1.7276  0.4088 -0.0504
   50MOL   H31223930   1.811   4.237   6.088 -1.0006 -0.9129 -0.5876
   50MOL   H31323931   1.915   4.420   6.178 -1.6898  0.6819  2.1655
   50MOL   C31423932   1.615   4.048   6.186 -1.0137 -0.3724 -0.0248
   50MOL   C31523933   1.495   4.071   6.123  0.6744  0.3176 -0.6567
   50MOL   C31623934   1.477   4.024   5.990 -0.2324 -0.3776 -0.0833
   50MOL   C31723935   1.583   3.956   5.927  0.3454  0.0017 -0.6480
   50MOL   C31823936   1.706   3.929   5.992  0.1863  0.1236 -0.5291
   50MOL   C31923937   1.721   3.986   6.116 -0.8824  0.2082  0.3925
   50MOL   S32023938   1.323   4.043   5.903  0.6676 -0.0307 -0.1884
   50MOL   O32123939   1.229   3.947   5.966 -0.1951 -1.0003 -0.0058
   50MOL   O32223940   1.341   4.034   5.756  0.0234  0.5016  0.2303
   50MOL   C32323941   1.287   4.211   5.952  1.3564  0.1743 -0.4026
   50MOL   C32423942   1.186   4.229   6.053  0.2358 -0.3035 -1.5809
   50MOL   C32523943   1.160   4.361   6.087  0.3582  0.3406 -0.1347
   50MOL   C32623944   1.207   4.477   6.016  0.1640  0.4687  0.5203
   50MOL   C32723945   1.304   4.454   5.915  0.5679 -0.6851 -0.4255
   50MOL   C32823946   1.348   4.322   5.885 -0.2258 -0.2486 -0.4946
   50MOL   O32923947   1.150   4.598   6.028 -0.2307  0.0640  0.0461
   50MOL   H33023948   1.635   4.065   6.291  0.4309  0.6359 -0.4517
   50MOL   H33123949   1.410   4.117   6.171 -1.1390 -1.4566 -2.0513
   50MOL   H33223950   1.569   3.929   5.823  1.1188  0.3914 -0.8582
   50MOL   H33323951   1.791   3.875   5.954 -1.8740 -3.1115 -0.7718
   50MOL   H33423952   1.144   4.143   6.103  0.1290  0.4834 -0.3076
   50MOL   H33523953   1.091   4.370   6.170 -0.8631  0.7672 -1.1714
   50MOL   H33623954   1.345   4.546   5.877  1.0373 -1.3329 -1.5212
   50MOL   H33723955   1.420   4.306   5.807 -0.8595  2.5357 -1.7235
   50MOL   C33823956   1.288   4.790   6.029  0.4182  0.4684  0.4156
   50MOL   C33923957   1.330   4.901   6.100 -0.3618 -0.4293 -0.3863
   50MOL   C34023958   1.295   4.927   6.231  0.0853  0.1519 -0.4424
   50MOL   C34123959   1.232   4.826   6.309  0.5286  0.0252 -0.4160
   50MOL   C34223960   1.195   4.707   6.239  0.8601  0.7078  0.0178
   50MOL   C34323961   1.214   4.693   6.098 -0.6014  0.2623  0.3554
   50MOL   S34423962   1.329   5.092   6.300 -0.2703  0.0594 -0.1060
   50MOL   O34523963   1.473   5.105   6.297 -0.2996 -0.0596 -0.3865
   50MOL   O34623964   1.259   5.093   6.428 -0.1235 -0.1066  0.3531
   50MOL   C34723965   1.258   5.197   6.185 -0.9778  0.1706 -0.4707
   50MOL   C34823966   1.331   5.304   6.121  0.2259  0.1278 -0.0178
   50MOL   C34923967   1.266   5.382   6.023 -0.3594  0.3170 -0.5132
   50MOL   C35023968   1.126   5.350   5.990  0.2926 -0.8184  0.4862
   50MOL   C35123969   1.062   5.251   6.058 -0.1607  0.5807  0.6714
   50MOL   C35223970   1.127   5.175   6.154  0.3304 -0.4631  0.4010
   50MOL   O35323971   1.059   5.434   5.899 -0.2136  0.0247 -0.2662
   50MOL   H35423972   1.317   4.794   5.925  0.4848 -0.8440  0.3808
   50MOL   H35523973   1.389   4.980   6.056  0.8406  0.8270  3.2953
   50MOL   H35623974   1.216   4.856   6.411 -0.7696  0.1623 -0.6498
   50MOL   H35723975   1.142   4.625   6.286 -0.8971  1.9989  0.3470
   50MOL   H35823976   1.429   5.320   6.164 -1.0808 -0.9630  3.5773
   50MOL   H35923977   1.304   5.473   5.978  0.3143  0.2158 -0.1516
   50MOL   H36023978   0.958   5.235   6.034  1.0219 -1.8404 -3.2497
   50MOL   H36123979   1.070   5.095   6.198 -2.0593  0.3615 -1.0871
   50MOL   C36223980   0.965   5.574   6.076  0.0105 -0.2107 -0.0316
   50MOL   C36323981   0.875   5.679   6.105  0.0886  0.0158 -0.0347
   50MOL   C36423982   0.788   5.733   6.006  0.1088 -0.6178 -0.3672
   50MOL   C36523983   0.783   5.671   5.876 -0.0705 -0.2803 -0.4241
   50MOL   C36623984   0.870   5.564   5.852 -0.7725  0.3132  0.3065
   50MOL   C36723985   0.965   5.519   5.948  0.4107 -0.8445 -0.7229
   50MOL   S36823986   0.694   5.879   6.036  0.1526 -0.3245 -0.2437
   50MOL   O36923987   0.572   5.869   5.954 -0.3430 -0.3233 -0.1860
   50MOL   O37023988   0.788   5.994   6.036 -0.3706 -0.4699 -0.1986
   50MOL   C37123989   0.639   5.850   6.219 -0.0894 -0.2291  0.2271
   50MOL   C37223990   0.717   5.908   6.322 -0.0444  0.4366 -0.0210
   50MOL   C37323991   0.658   5.907   6.450  1.1378 -0.4360 -0.1523
   50MOL   C37423992   0.528   5.856   6.477  0.2609 -0.7729  0.0865
   50MOL   C37523993   0.465   5.786   6.374  0.0896  0.0967  0.3504
   50MOL   C37623994   0.517   5.791   6.247 -0.4312  0.3255 -0.1002
   50MOL   O37723995   0.459   5.875   6.591  0.0399 -0.0337  0.1650
   50MOL   H37823996   1.049   5.560   6.143  2.1122 -2.1144 -2.9343
   50MOL   H37923997   0.872   5.734   6.198 -4.3521  0.9214 -0.6179
   50MOL   H38023998   0.729   5.718   5.796 -1.4700  1.1728  1.3442
   50MOL   H38123999   0.880   5.532   5.749 -2.3110  1.5877 -0.2630
   50MOL   H38224000   0.810   5.954   6.293 -0.2337  2.1020  1.9251
   50MOL   H38324001   0.701   5.965   6.531 -0.2633 -0.5868  0.7071
   50MOL   H38424002   0.371   5.737   6.397  0.1253  1.3694  3.3563
   50MOL   H38524003   0.468   5.741   6.165 -0.5845  0.8829 -0.3519
   50MOL   C38624004   0.457   5.842   6.829  0.4753 -0.1484 -0.3861
   50MOL   C38724005   0.446   5.759   6.944  0.5312 -0.1362  0.1214
   50MOL   C38824006   0.453   5.621   6.936 -0.4467 -0.2782  0.7023
   50MOL   C38924007   0.476   5.562   6.811  0.5238 -0.1809 -0.1186
   50MOL   C39024008   0.486   5.641   6.696 -0.1275  0.4302  0.4489
   50MOL   C39124009   0.479   5.785   6.701 -0.1109  0.9759  0.0765
   50MOL   S39224010   0.422   5.509   7.074  0.2163  0.2441  0.1134
   50MOL   O39324011   0.426   5.370   7.023 -0.5602  0.6358  0.1278
   50MOL   O39424012   0.300   5.552   7.143  0.1253 -0.3409  0.6804
   50MOL   C39524013   0.560   5.531   7.195 -0.7508  0.6218 -0.1816
   50MOL   C39624014   0.547   5.472   7.320  0.9152  0.2948 -0.6476
   50MOL   C39724015   0.651   5.487   7.413 -0.0845  0.3265  0.1672
   50MOL   C39824016   0.769   5.557   7.383 -0.7921 -0.5857 -1.0807
   50MOL   C39924017   0.784   5.615   7.255  0.6533  0.4827  0.8206
   50MOL   C40024018   0.678   5.600   7.160 -0.3874 -0.3992 -0.7819
   50MOL   O40124019   0.861   5.569   7.485  0.5485 -0.5834  0.4591
   50MOL   H40224020   0.439   5.948   6.837  0.7242 -0.0768 -0.7850
   50MOL   H40324021   0.432   5.795   7.045  1.2874  0.6571 -0.0546
   50MOL   H40424022   0.481   5.455   6.792  0.3704 -0.3057  0.5578
   50MOL   H40524023   0.495   5.590   6.601  0.2357 -1.0876  1.2807
   50MOL   H40624024   0.455   5.418   7.339  0.5159  1.3395  0.4295
   50MOL   H40724025   0.635   5.454   7.515 -1.7480  0.0070 -0.1794
   50MOL   H40824026   0.875   5.667   7.231  0.2327  1.7392  1.8770
   50MOL   H40924027   0.688   5.653   7.067  1.9067 -0.9983 -0.8930
   50MOL   C41024028   0.792   5.627   7.713  0.0726 -1.1316  0.5720
   50MOL   C41124029   0.766   5.730   7.802 -1.3254 -0.1885 -0.4059
   50MOL   C41224030   0.793   5.867   7.776 -0.3979 -0.1330 -0.3615
   50MOL   C41324031   0.847   5.901   7.648 -0.2438 -0.5562  0.1267
   50MOL   C41424032   0.865   5.800   7.553  0.1946  0.7138 -0.0522
   50MOL   C41524033   0.833   5.664   7.584  0.0781 -0.3543 -0.1634
   50MOL   S41624034   0.767   5.993   7.901 -0.3282 -0.1032  0.5063
   50MOL   O41724035   0.812   6.130   7.857 -0.0335 -0.3064  0.0692
   50MOL   O41824036   0.811   5.945   8.030 -0.5385  0.0060 -0.4154
   50MOL   C41924037   0.587   6.007   7.919 -0.2897  0.6927 -1.0033
   50MOL   C42024038   0.498   5.969   7.812 -0.1426  0.2634  0.0467
   50MOL   C42124039   0.362   5.972   7.839 -0.2278  0.0360 -0.8997
   50MOL   C42224040   0.310   6.020   7.965  0.8191 -0.3768  0.0350
   50MOL   C42324041   0.398   6.063   8.067  0.0068  0.2892 -0.2513
   50MOL   C42424042   0.536   6.050   8.043  0.0335  0.3042  0.4079
   50MOL   O42524043   0.179   6.039   7.987  0.3776  1.1519 -0.0689
   50MOL   H42624044   0.767   5.525   7.738  1.8269 -1.4572  1.0371
   50MOL   H42724045   0.736   5.704   7.902  0.7559 -0.2245  0.2292
   50MOL   H42824046   0.889   6.000   7.636  1.4108 -1.3067 -0.5172
   50MOL   H42924047   0.906   5.816   7.454 -0.0439  2.4218  0.1011
   50MOL   H43024048   0.542   5.917   7.728 -1.8031  0.6602 -1.1088
   50MOL   H43124049   0.290   5.942   7.764 -1.7063  0.0896  0.4583
   50MOL   H43224050   0.370   6.091   8.167 -0.6311  0.1520 -0.3869
   50MOL   H43324051   0.607   6.078   8.120  1.1479  0.1317 -0.5415
   50MOL   C43424052   0.057   6.025   7.779  0.1015 -0.5030 -0.2634
   50MOL   C43524053   8.416   6.094   7.672  0.6328 -1.0125 -0.7188
   50MOL   C43624054   8.410   6.237   7.675 -0.4504  0.5399 -1.0576
   50MOL   C43724055   0.047   6.314   7.780  0.4279 -0.5165  0.6349
   50MOL   C43824056   0.113   6.236   7.883  0.4171  0.9176  0.5675
   50MOL   C43924057   0.112   6.099   7.884 -0.0399  0.9845  0.2549
   50MOL   S44024058   8.335   6.309   7.528 -0.0524 -0.0507  0.2671
   50MOL   O44124059   8.208   6.241   7.507  0.0889 -0.2945 -0.1993
   50MOL   O44224060   0.011   6.304   7.421 -0.1137 -0.3873  0.3418
   50MOL   C44324061   8.286   6.478   7.575  0.0781 -0.6666 -0.1915
   50MOL   C44424062   8.315   6.582   7.482 -0.1393  0.0817  0.2695
   50MOL   C44524063   8.288   6.713   7.520 -0.1953 -0.0789 -0.2208
   50MOL   C44624064   8.236   6.746   7.651  0.4911  0.1063  0.7153
   50MOL   C44724065   8.195   6.643   7.734  0.1903 -0.6411 -0.4478
   50MOL   C44824066   8.228   6.511   7.706 -0.3820  0.0674 -0.4916
   50MOL   O44924067   8.224   6.876   7.676  0.2547 -0.0656  0.0366
   50MOL   H45024068   0.044   5.918   7.790  0.0513 -0.7220 -2.2355
   50MOL   H45124069   8.363   6.038   7.596  1.8300  0.2412 -2.5376
   50MOL   H45224070   0.056   6.421   7.790  0.6897 -0.6126  1.3913
   50MOL   H45324071   0.171   6.284   7.960 -1.6666 -0.2138  2.9279
   50MOL   H45424072   8.350   6.552   7.384 -0.2802 -0.2165  0.3087
   50MOL   H45524073   8.312   6.793   7.452  0.1075 -0.3509 -0.4382
   50MOL   H45624074   8.151   6.662   7.831  3.1940 -0.7009  0.9743
   50MOL   H45724075   8.208   6.432   7.777  3.1187 -0.1531  0.3185
   50MOL   C45824076   7.985   6.893   7.618 -0.2186  0.1409 -0.5833
   50MOL   C45924077   7.856   6.945   7.641 -0.0276  0.3589  0.1659
   50MOL   C46024078   7.838   7.031   7.753 -0.2483  0.4178  0.6860
   50MOL   C46124079   7.945   7.061   7.835 -0.0839 -0.3461  0.9150
   50MOL   C46224080   8.075   7.011   7.805  0.0171 -0.0798  0.1459
   50MOL   C46324081   8.096   6.924   7.702 -0.0509 -0.0703  0.1267
   50MOL   S46424082   7.674   7.095   7.786  0.2571  0.1505 -0.2950
   50MOL   O46524083   7.689   7.201   7.893 -0.2135  0.4468  0.4633
   50MOL   O46624084   7.585   6.979   7.808 -0.0412 -0.0113  0.7734
   50MOL   C46724085   7.615   7.171   7.639 -0.6327 -0.0468  0.0512
   50MOL   C46824086   7.615   7.308   7.618  0.1606  0.4520  0.1140
   50MOL   C46924087   7.562   7.362   7.500 -0.5575  0.0828 -0.1542
   50MOL   C47024088   7.526   7.277   7.392  0.6324  0.5181  0.4774
   50MOL   C47124089   7.536   7.141   7.408 -0.1982  0.2976 -0.2263
   50MOL   C47224090   7.581   7.093   7.532  0.1306 -0.3394  0.8628
   50MOL   O47324091   7.468   7.325   7.279 -0.8350  0.2680  0.5846
   50MOL   H47424092   8.008   6.829   7.534 -0.1138 -0.2870 -0.2242
   50MOL   H47524093   7.785   6.920   7.564  1.7976 -1.0072 -1.1258
   50MOL   H47624094   7.936   7.128   7.920  0.0972 -0.7025  1.2143
   50MOL   H47724095   8.156   7.056   7.861 -1.0020  0.9116  0.8516
   50MOL   H47824096   7.662   7.374   7.689 -0.7350  1.3848 -0.1406
   50MOL   H47924097   7.558   7.469   7.484  0.5084 -0.1101 -1.8331
   50MOL   H48024098   7.523   7.080   7.320 -2.4961  0.1504  0.1924
   50MOL   H48124099   7.586   6.987   7.552 -0.6500 -0.7695 -1.0510
   50MOL   H48224100   7.470   7.265   7.206 -0.6489  0.3750  0.5018
   51MOL     C124101   3.416   0.348   7.619  0.3037 -0.3843  0.0294
   51MOL     C224102   3.303   0.316   7.549 -0.1952 -0.3285  0.0682
   51MOL     C324103   3.218   0.214   7.595 -0.6385 -0.5572 -0.1935
   51MOL     C424104   3.248   0.149   7.716 -0.2078  0.5850 -0.1311
   51MOL     C524105   3.360   0.189   7.793  0.4247 -0.0793  0.3306
   51MOL     C624106   3.448   0.290   7.742  0.2486  0.2248 -1.0023
   51MOL     S724107   3.087   0.147   7.493 -0.0169  0.3393 -0.2712
   51MOL     O824108   2.955   0.204   7.543 -0.2801  0.3207  0.0062
   51MOL     O924109   3.112   0.002   7.486  0.3205  0.2100 -0.4656
   51MOL    C1024110   3.119   0.208   7.325  0.2922  0.3508  0.0082
   51MOL    C1124111   3.025   0.288   7.261 -0.2952 -0.2552 -0.2265
   51MOL    C1224112   3.048   0.340   7.137 -0.3530  0.8669  0.4575
   51MOL    C1324113   3.164   0.307   7.063 -0.0980  0.1132  0.1606
   51MOL    C1424114   3.259   0.212   7.118 -0.1474  0.2540 -0.5599
   51MOL    C1524115   3.239   0.169   7.251  0.0942 -0.0243 -0.3620
   51MOL    O1624116   3.175   0.365   6.937  0.1291 -0.1680 -0.0622
   51MOL    H1724117   3.486   0.423   7.585 -0.0191 -1.2536 -2.6693
   51MOL    H1824118   3.286   0.369   7.456 -1.8365 -0.6415  0.1783
   51MOL    H1924119   3.194   0.062   7.749  0.2879  0.2173 -0.2740
   51MOL    H2024120   3.386   0.133   7.882 -1.4947  0.3305  1.1625
   51MOL    H2124121   2.934   0.311   7.315 -1.3648 -2.1459 -1.1862
   51MOL    H2224122   2.976   0.391   7.075 -0.6584 -1.4133 -1.1349
   51MOL    H2324123   3.345   0.179   7.063  1.1737 -1.2391  2.2753
   51MOL    H2424124   3.309   0.095   7.287  0.8473  0.5976 -0.5325
   51MOL    H2524125   3.536   0.316   7.799 -1.1000  1.3323  0.6000
   51MOL    C2624126   3.034   0.195   6.833 -0.4514 -0.1793 -0.1118
   51MOL    C2724127   3.004   0.123   6.712  0.0256  0.0575  0.7455
   51MOL    C2824128   3.096   0.124   6.604  0.2899  0.4326 -0.8126
   51MOL    C2924129   3.218   0.194   6.617  0.9718  0.2628 -0.1916
   51MOL    C3024130   3.235   0.282   6.725  0.1241  0.3986  0.4362
   51MOL    C3124131   3.146   0.281   6.833 -0.7908 -0.5570  0.4708
   51MOL    S3224132   3.058   0.053   6.440  0.3961  0.5913 -0.3499
   51MOL    O3324133   2.991   8.347   6.452  0.0459  0.0110  0.3825
   51MOL    O3424134   3.184   0.060   6.365  0.1469  0.1638  0.0375
   51MOL    C3524135   2.949   0.179   6.362  0.7094 -0.4035  0.0549
   51MOL    C3624136   2.875   0.281   6.424  0.0888 -0.6120  0.9031
   51MOL    C3724137   2.792   0.363   6.351 -0.1710 -0.7423 -0.2882
   51MOL    C3824138   2.782   0.338   6.212 -0.0776  0.1876 -0.8672
   51MOL    C3924139   2.871   0.248   6.147  0.0045 -0.2691 -0.3933
   51MOL    C4024140   2.945   0.166   6.225 -0.2060 -0.5378  0.2783
   51MOL    O4124141   2.680   0.399   6.141 -0.4844 -0.3998 -0.3870
   51MOL    H4224142   2.957   0.204   6.908 -0.0829 -0.3279  0.2860
   51MOL    H4324143   2.909   0.076   6.691  0.3713 -0.2072 -0.2888
   51MOL    H4424144   3.287   0.203   6.535 -0.6707 -1.4376 -1.7806
   51MOL    H4524145   3.315   0.353   6.715  0.9164 -0.5539 -0.0526
   51MOL    H4624146   2.888   0.306   6.528  2.2466  0.8150  0.3155
   51MOL    H4724147   2.737   0.442   6.400 -0.1997 -1.5516  1.0185
   51MOL    H4824148   2.865   0.225   6.042 -0.3589  1.7833 -0.8426
   51MOL    H4924149   3.006   0.092   6.177  2.4594  2.2047 -0.7137
   51MOL    C5024150   2.771   0.622   6.123 -0.9411 -0.0819  0.8715
   51MOL    C5124151   2.797   0.732   6.037  0.2781 -0.1345 -0.1961
   51MOL    C5224152   2.759   0.733   5.901 -0.4141 -0.0855 -0.0111
   51MOL    C5324153   2.707   0.612   5.836  0.9708 -0.0038 -0.1900
   51MOL    C5424154   2.693   0.500   5.923 -0.2090 -0.2415 -0.3636
   51MOL    C5524155   2.714   0.508   6.065 -0.1012  0.0994  0.0547
   51MOL    S5624156   2.789   0.880   5.803  0.0907 -0.0839 -0.7462
   51MOL    O5724157   2.744   1.000   5.873  0.1397  0.8858  0.2610
   51MOL    O5824158   2.733   0.848   5.669 -0.2101  0.1917 -0.5615
   51MOL    C5924159   2.969   0.876   5.796  0.1935 -0.5516  0.3527
   51MOL    C6024160   3.035   0.757   5.762  0.0012  0.0274  0.4356
   51MOL    C6124161   3.177   0.761   5.768  0.0747  0.7030 -0.3232
   51MOL    C6224162   3.247   0.878   5.799  0.0380  0.3691  0.1854
   51MOL    C6324163   3.175   0.995   5.828 -0.1309 -0.1065  0.4727
   51MOL    C6424164   3.038   0.994   5.837 -0.5591  1.0060 -0.7398
   51MOL    O6524165   3.380   0.877   5.803 -0.4514 -0.0728  0.2567
   51MOL    H6624166   2.803   0.617   6.226  1.4535  0.0637  0.1625
   51MOL    H6724167   2.840   0.816   6.088  2.1243 -0.7889 -0.6230
   51MOL    H6824168   2.679   0.592   5.734  2.2352 -1.1881 -0.3296
   51MOL    H6924169   2.658   0.410   5.874 -1.1415 -0.6935  1.0904
   51MOL    H7024170   2.976   0.669   5.738 -1.0335  0.7870  0.1821
   51MOL    H7124171   3.232   0.670   5.748  2.6301  2.0127  0.5779
   51MOL    H7224172   3.238   1.079   5.853  2.4012 -2.0985  0.9893
   51MOL    H7324173   2.978   1.083   5.849  1.4865  2.1734  1.3074
   51MOL    C7424174   3.406   0.823   6.038 -0.2941 -0.3123  0.2278
   51MOL    C7524175   3.488   0.783   6.150  0.3322  0.2183 -0.2340
   51MOL    C7624176   3.623   0.754   6.128  0.1020  0.0649  0.2619
   51MOL    C7724177   3.672   0.758   5.999 -0.2134  0.1815  0.1621
   51MOL    C7824178   3.598   0.807   5.892 -0.2970  0.3533 -0.3663
   51MOL    C7924179   3.459   0.831   5.909 -0.5684  0.4395  0.4713
   51MOL    S8024180   3.726   0.710   6.270  0.0874  0.0249 -0.0313
   51MOL    O8124181   3.649   0.735   6.391 -0.3279 -0.6037 -0.6390
   51MOL    O8224182   3.849   0.782   6.246 -0.2496  0.3873 -0.0672
   51MOL    C8324183   3.768   0.538   6.260 -0.4619 -0.4262 -0.2859
   51MOL    C8424184   3.885   0.493   6.323 -0.2901 -0.0406 -0.7944
   51MOL    C8524185   3.912   0.353   6.325  0.1369 -0.2269  0.8280
   51MOL    C8624186   3.822   0.258   6.269 -0.4276  0.1001  0.3333
   51MOL    C8724187   3.713   0.308   6.195  0.0865 -0.4539 -0.0628
   51MOL    C8824188   3.684   0.449   6.196  0.8606  0.5861 -0.6368
   51MOL    O8924189   3.836   0.125   6.305  0.1148 -0.0872 -0.0207
   51MOL    H9024190   3.305   0.857   6.054 -0.0212  0.8385 -0.5099
   51MOL    H9124191   3.445   0.787   6.248 -0.6242 -0.1131 -0.6351
   51MOL    H9224192   3.775   0.734   5.976 -0.0195  2.2367 -1.2294
   51MOL    H9324193   3.646   0.810   5.796  0.1613 -1.9065 -0.2137
   51MOL    H9424194   3.954   0.564   6.367  1.2834 -1.0373 -1.6107
   51MOL    H9524195   4.000   0.319   6.378  0.7586  0.2006  0.0697
   51MOL    H9624196   3.646   0.244   6.140 -1.5068  0.2779  0.9902
   51MOL    H9724197   3.602   0.485   6.135  0.7031 -1.1479 -1.4962
   51MOL    C9824198   3.900   8.320   6.238  0.3123  0.0574 -0.6507
   51MOL    C9924199   3.984   8.237   6.160  0.0960  0.1991 -0.3264
   51MOL   C10024200   4.071   8.292   6.066  0.5295  0.1394  0.1922
   51MOL   C10124201   4.083   0.002   6.051  0.6645  0.0631  0.4989
   51MOL   C10224202   3.996   0.087   6.119  0.0339 -0.7925  0.0975
   51MOL   C10324203   3.908   0.038   6.222  0.1200 -0.7776 -0.4591
   51MOL   S10424204   4.174   8.193   5.964  0.1601 -0.3979 -0.0584
   51MOL   O10524205   4.173   8.241   5.827  0.4127  0.6207 -0.2521
   51MOL   O10624206   4.140   8.050   5.981 -0.1563 -0.6339  0.0758
   51MOL   C10724207   4.335   8.219   6.047  0.5975 -0.6077  0.1714
   51MOL   C10824208   4.387   8.135   6.143 -0.0476 -0.3223  0.2125
   51MOL   C10924209   4.508   8.168   6.204 -0.3018  0.4383 -0.2301
   51MOL   C11024210   4.571   8.295   6.188 -0.0585 -0.8271 -0.1880
   51MOL   C11124211   4.527   8.377   6.081 -0.2957  0.1700 -0.0029
   51MOL   C11224212   4.409   8.337   6.011 -0.1524 -0.2451  0.4583
   51MOL   O11324213   4.672   8.334   6.277 -0.2784  0.0915  0.0084
   51MOL   H11424214   3.840   8.273   6.314  0.2007 -0.2925 -0.9540
   51MOL   H11524215   3.984   8.129   6.170  0.9034  0.3540  1.5530
   51MOL   H11624216   4.150   0.034   5.973  1.0962  0.2285  0.9392
   51MOL   H11724217   3.983   0.190   6.090 -1.0148 -0.7899  0.5560
   51MOL   H11824218   4.330   8.045   6.161 -0.0739 -0.4601 -0.5487
   51MOL   H11924219   4.554   8.102   6.277  1.1864 -0.8547 -2.3001
   51MOL   H12024220   4.566   0.053   6.079 -2.8160  1.2555  1.9172
   51MOL   H12124221   4.371   8.411   5.943 -0.2524  0.8283  1.6627
   51MOL   C12224222   4.896   8.332   6.351 -0.2429 -0.0473 -0.3360
   51MOL   C12324223   5.033   8.328   6.334 -0.7425  0.4169 -0.5194
   51MOL   C12424224   5.085   8.342   6.204 -0.3424  0.5845  0.9239
   51MOL   C12524225   4.994   8.339   6.096 -0.3628 -0.4448 -0.8063
   51MOL   C12624226   4.854   8.336   6.121  0.3130 -0.3285  0.6250
   51MOL   C12724227   4.806   8.330   6.247  0.2527 -0.6341 -0.1652
   51MOL   S12824228   5.262   8.346   6.183 -0.3713 -0.3936  0.1275
   51MOL   O12924229   5.303   8.273   6.062  0.3917 -0.8205 -0.2961
   51MOL   O13024230   5.323   8.306   6.310  0.0356  0.5051  0.0841
   51MOL   C13124231   5.298   0.090   6.167  0.0895 -0.3571 -0.9619
   51MOL   C13224232   5.202   0.183   6.209  0.2249  0.4200 -0.2454
   51MOL   C13324233   5.230   0.319   6.190  0.6074  0.4185 -0.0384
   51MOL   C13424234   5.358   0.363   6.149 -0.2128 -0.2976 -0.0683
   51MOL   C13524235   5.459   0.265   6.128  0.6568 -0.1568 -0.3933
   51MOL   C13624236   5.430   0.127   6.129 -0.4828  0.1410  0.1078
   51MOL   O13724237   5.382   0.499   6.142  0.3092 -0.3438 -0.3357
   51MOL   H13824238   4.850   8.328   6.449 -1.1982 -1.3005 -0.8287
   51MOL   H13924239   5.100   8.317   6.418 -0.4071 -0.1673 -0.8663
   51MOL   H14024240   5.028   8.327   5.994 -1.0524  0.0907 -1.1017
   51MOL   H14124241   4.784   8.342   6.039  1.7764 -2.4162 -0.8238
   51MOL   H14224242   5.101   0.165   6.244  0.8401 -0.0353  1.3348
   51MOL   H14324243   5.145   0.385   6.199  0.3158  0.0145  0.2006
   51MOL   H14424244   5.560   0.296   6.106  0.8749  0.8018  1.7668
   51MOL   H14524245   5.512   0.062   6.101 -1.8351 -1.2239 -0.7364
   51MOL   C14624246   5.238   0.520   5.946  0.7556  0.0412 -0.3137
   51MOL   C14724247   5.147   0.607   5.872 -0.7479 -0.2934  0.3927
   51MOL   C14824248   5.120   0.735   5.924 -0.5408  0.0177  0.6190
   51MOL   C14924249   5.167   0.780   6.047  0.0561 -0.4973 -0.5307
   51MOL   C15024250   5.257   0.700   6.117 -0.4150  0.2596 -0.1037
   51MOL   C15124251   5.294   0.572   6.070 -0.1105 -0.0672  0.0092
   51MOL   S15224252   5.021   0.849   5.830  0.2766  0.1575  0.0342
   51MOL   O15324253   5.006   0.796   5.695  0.2043  0.7629 -0.2487
   51MOL   O15424254   5.095   0.975   5.830  0.5901 -0.2902  0.2603
   51MOL   C15524255   4.860   0.877   5.901 -0.0103 -0.5738 -0.0376
   51MOL   C15624256   4.780   0.985   5.861  0.4707 -0.1274  0.5736
   51MOL   C15724257   4.664   1.025   5.929  0.3780  0.3988  0.0554
   51MOL   C15824258   4.614   0.946   6.034 -0.1660 -0.4027  0.4428
   51MOL   C15924259   4.687   0.835   6.070  0.1495 -0.2515  0.4109
   51MOL   C16024260   4.810   0.804   6.010 -0.2550 -0.1205 -0.4210
   51MOL   O16124261   4.509   0.988   6.108  0.3910  0.0158  0.1525
   51MOL   H16224262   5.272   0.428   5.902  0.4604 -0.0940 -0.2632
   51MOL   H16324263   5.114   0.580   5.773  0.0827  1.0047 -0.2463
   51MOL   H16424264   5.124   0.872   6.083  1.3664 -0.5032  1.1429
   51MOL   H16524265   5.304   0.737   6.207  2.4304 -2.5790 -0.3311
   51MOL   H16624266   4.823   1.047   5.784  1.3535  1.9949  2.7030
   51MOL   H16724267   4.607   1.111   5.898 -0.8184 -1.1806 -2.2622
   51MOL   H16824268   4.668   0.776   6.159  3.1270  0.1389  1.3624
   51MOL   H16924269   4.866   0.722   6.054  0.7601  1.1792  0.7594
   51MOL   C17024270   4.354   1.155   6.038  0.1140 -0.0715 -0.2728
   51MOL   C17124271   4.248   1.207   5.961 -0.4582  0.1489 -0.5409
   51MOL   C17224272   4.158   1.106   5.914 -0.1259  0.1650 -0.3713
   51MOL   C17324273   4.180   0.966   5.934 -0.2481 -0.2391  0.4578
   51MOL   C17424274   4.297   0.924   5.993  0.4189  0.2181 -0.1229
   51MOL   C17524275   4.387   1.018   6.041  0.5246 -0.1052  0.3906
   51MOL   S17624276   4.018   1.162   5.818 -0.0731  0.5233  0.2775
   51MOL   O17724277   3.961   1.060   5.733 -0.5208 -0.4285 -0.4332
   51MOL   O17824278   4.053   1.293   5.763  0.1465 -0.9404 -0.5089
   51MOL   C17924279   3.897   1.193   5.953 -0.2703  0.4612  0.6581
   51MOL   C18024280   3.903   1.312   6.024 -0.5663 -0.1077 -0.2495
   51MOL   C18124281   3.811   1.332   6.128  0.0036  0.3460  0.8912
   51MOL   C18224282   3.709   1.239   6.155  0.1250  0.1936  0.5365
   51MOL   C18324283   3.701   1.122   6.082  0.9586  0.3476 -0.6522
   51MOL   C18424284   3.799   1.094   5.986  0.5470  0.2110 -0.3983
   51MOL   O18524285   3.619   1.274   6.255 -0.2768  0.5580 -0.0707
   51MOL   H18624286   4.425   1.220   6.086  0.5317 -1.6128  1.2290
   51MOL   H18724287   4.253   1.314   5.942  1.2247 -0.1413 -1.7803
   51MOL   H18824288   4.110   0.891   5.902 -0.4571  0.2315 -0.1940
   51MOL   H18924289   4.331   0.822   6.000 -0.0489  0.0178 -0.7639
   51MOL   H19024290   3.980   1.386   6.005  0.7539 -1.2435  0.5758
   51MOL   H19124291   3.832   1.422   6.183 -0.7343  1.3292 -0.3931
   51MOL   H19224292   3.618   1.052   6.090 -0.6796  2.1772 -1.1983
   51MOL   H19324293   3.787   1.007   5.923 -1.5822  0.2899 -0.1350
   51MOL   C19424294   3.685   1.212   6.480  0.4396 -0.4493 -0.3786
   51MOL   C19524295   3.657   1.132   6.595  0.1115 -0.0478  0.0301
   51MOL   C19624296   3.557   1.041   6.591 -0.6431  0.1437  0.3667
   51MOL   C19724297   3.478   1.023   6.479  0.1529  0.0470  0.1735
   51MOL   C19824298   3.516   1.089   6.362 -0.0117  0.1004 -0.0876
   51MOL   C19924299   3.608   1.190   6.363  0.4669  0.5113  0.0544
   51MOL   S20024300   3.516   0.942   6.739  0.0742 -0.0739  0.1397
   51MOL   O20124301   3.372   0.928   6.750  0.2710  0.7142 -0.0524
   51MOL   O20224302   3.596   0.994   6.847 -0.2021 -0.7148  0.0314
   51MOL   C20324303   3.575   0.778   6.688 -0.3130  0.3878 -0.5119
   51MOL   C20424304   3.489   0.681   6.620 -0.2722 -0.5141 -0.0059
   51MOL   C20524305   3.537   0.561   6.570 -0.7827 -0.6350  0.6126
   51MOL   C20624306   3.665   0.523   6.602  0.3138  0.4169 -0.1516
   51MOL   C20724307   3.751   0.613   6.680  1.1945  0.4356  0.3756
   51MOL   C20824308   3.706   0.737   6.724 -0.0188 -0.1671  0.9081
   51MOL   O20924309   3.707   0.400   6.560 -0.1154 -0.6571 -0.2958
   51MOL   H21024310   3.763   1.287   6.484  1.4124 -1.3610 -1.8684
   51MOL   H21124311   3.719   1.139   6.683  1.1419  0.8027 -0.7556
   51MOL   H21224312   3.396   0.953   6.476 -0.3911  0.6459  0.6865
   51MOL   H21324313   3.461   1.077   6.270 -0.5791  1.3130  0.0799
   51MOL   H21424314   3.385   0.705   6.603 -0.4763 -2.4225 -1.5760
   51MOL   H21524315   3.473   0.490   6.519  1.2211 -1.1338 -1.2806
   51MOL   H21624316   3.846   0.570   6.707 -0.4090 -1.9730  2.4215
   51MOL   H21724317   3.764   0.814   6.774  0.8578 -0.1479 -0.1078
   51MOL   C21824318   3.648   0.283   6.766  0.8514 -0.0011 -0.1556
   51MOL   C21924319   3.593   0.171   6.828 -0.0789  1.0975  0.6809
   51MOL   C22024320   3.545   0.065   6.750  0.2101 -0.4654  0.6287
   51MOL   C22124321   3.550   0.070   6.603 -0.0500 -0.0799  0.4298
   51MOL   C22224322   3.603   0.180   6.542  0.1169  0.3309 -0.2909
   51MOL   C22324323   3.651   0.292   6.622 -0.4682 -0.1922  0.2469
   51MOL   S22424324   3.470   8.351   6.831 -0.1592  0.4634  0.1368
   51MOL   O22524325   3.344   8.397   6.886  0.0813 -0.7928 -0.2926
   51MOL   O22624326   3.571   8.305   6.923 -1.0700  0.6258  0.1033
   51MOL   C22724327   3.449   8.230   6.710 -0.4735 -0.2447  0.8034
   51MOL   C22824328   3.326   8.228   6.640  0.1686 -0.4395 -0.2037
   51MOL   C22924329   3.311   8.159   6.523 -0.0921  0.2099  0.7211
   51MOL   C23024330   3.421   8.099   6.457  0.4265  0.2285 -0.8900
   51MOL   C23124331   3.554   8.110   6.519  0.3709 -0.3915  0.3933
   51MOL   C23224332   3.564   8.177   6.643  0.3236 -0.2087 -0.0903
   51MOL   O23324333   3.405   8.037   6.340 -0.0760  0.2257  1.0664
   51MOL   H23424334   3.683   0.370   6.820 -1.1590  2.0209 -2.0437
   51MOL   H23524335   3.584   0.162   6.935 -1.0975  1.7016  0.6493
   51MOL   H23624336   3.512   8.415   6.542  2.2943 -0.9941  0.1111
   51MOL   H23724337   3.614   0.183   6.434 -2.3562  3.6677 -0.5512
   51MOL   H23824338   3.250   8.283   6.694  1.6847 -0.2106  1.7595
   51MOL   H23924339   3.221   8.166   6.464 -1.4507 -0.5804  2.6502
   51MOL   H24024340   3.641   8.069   6.470  0.5169 -1.1963  1.2984
   51MOL   H24124341   3.662   8.187   6.688  0.1851 -0.9039  0.3881
   51MOL   C24224342   3.364   8.217   6.191  0.5378 -0.4248  0.2453
   51MOL   C24324343   3.403   8.296   6.087  0.6614 -0.3904  0.6690
   51MOL   C24424344   3.526   8.275   6.022  0.5718 -0.0726 -0.4450
   51MOL   C24524345   3.614   8.175   6.063  0.8363 -0.5319 -0.3522
   51MOL   C24624346   3.569   8.091   6.169  0.0862  0.0727 -0.0319
   51MOL   C24724347   3.443   8.117   6.231 -0.3777  0.5324 -0.9273
   51MOL   S24824348   3.571   8.386   5.886  0.1156  0.0500 -0.1892
   51MOL   O24924349   3.692   8.326   5.833 -0.3038 -0.0557  0.2221
   51MOL   O25024350   3.573   0.101   5.930 -0.3137 -0.1988 -0.0258
   51MOL   C25124351   3.449   8.387   5.756 -0.3398 -0.1652  0.4276
   51MOL   C25224352   3.431   0.069   5.662 -0.8011  0.0100  0.1369
   51MOL   C25324353   3.334   0.060   5.563 -0.4277  0.1520  0.5602
   51MOL   C25424354   3.260   8.365   5.548  0.2576 -0.1522 -0.5544
   51MOL   C25524355   3.283   8.254   5.636  0.0092  0.0321 -0.3036
   51MOL   C25624356   3.379   8.267   5.737  0.3657  0.0339  0.0345
   51MOL   O25724357   3.150   8.370   5.467  0.1079 -0.6510  0.1471
   51MOL   H25824358   3.272   8.239   6.244  0.6520  0.3287  0.1389
   51MOL   H25924359   3.336   8.364   6.037  1.8492  0.0097 -0.4156
   51MOL   H26024360   3.707   8.151   6.014  0.7452  0.0682 -0.8136
   51MOL   H26124361   3.625   8.003   6.200  0.0635 -0.6082 -1.8315
   51MOL   H26224362   3.493   0.156   5.680  2.6618 -2.6991  2.0751
   51MOL   H26324363   3.326   0.145   5.497  0.3071  1.0075  1.5644
   51MOL   H26424364   3.233   8.159   5.642  0.3932 -0.2263 -1.0633
   51MOL   H26524365   3.399   8.178   5.795 -1.7093 -0.0625  0.6657
   51MOL   C26624366   3.152   0.019   5.243 -0.2203 -0.7364  0.0188
   51MOL   C26724367   3.157   8.414   5.105 -0.3189  0.3156 -0.7291
   51MOL   C26824368   3.155   8.283   5.053 -0.1449 -0.0738  0.0981
   51MOL   C26924369   3.159   8.179   5.149 -0.1080  0.2451  0.3357
   51MOL   C27024370   3.157   8.205   5.287 -0.4983  0.8238  0.1445
   51MOL   C27124371   3.153   8.338   5.335  0.5188 -0.0420 -0.0856
   51MOL   S27224372   3.155   8.258   4.879  0.1579  0.3349 -0.0405
   51MOL   O27324373   3.275   8.184   4.843 -0.3607  0.1087  0.6490
   51MOL   O27424374   3.138   8.392   4.821  0.1156 -0.0560  0.5479
   51MOL   C27524375   3.008   8.165   4.842 -0.5156 -0.5753  0.3461
   51MOL   C27624376   3.003   8.075   4.735 -1.1223  0.3146  0.1342
   51MOL   C27724377   2.887   8.000   4.709  0.4939 -0.4425  0.4988
   51MOL   C27824378   2.774   8.007   4.791  0.4219  0.4703 -0.3782
   51MOL   C27924379   2.781   8.087   4.906  0.1260  0.4508 -0.5731
   51MOL   C28024380   2.893   8.173   4.924  0.2234  0.0813  0.9777
   51MOL   O28124381   2.666   7.921   4.783 -0.3605  0.0056 -0.5043
   51MOL   H28224382   3.141   0.121   5.277  1.3601 -1.8275  4.0171
   51MOL   H28324383   3.152   0.068   5.031  0.0426 -0.5069 -1.6361
   51MOL   H28424384   3.161   8.082   5.103 -0.9585  1.1081 -1.5751
   51MOL   H28524385   3.167   8.124   5.358  0.5420  0.4497 -0.4132
   51MOL   H28624386   3.086   8.065   4.666 -1.1184  2.1153 -0.1441
   51MOL   H28724387   2.886   7.939   4.620  1.1075  0.1850  0.0580
   51MOL   H28824388   2.691   8.094   4.966  0.4768  1.5673 -0.1603
   51MOL   H28924389   2.896   8.236   5.011 -0.0478 -0.0598  1.0890
   51MOL   C29024390   2.511   8.038   4.634  0.1694  0.3802 -0.0647
   51MOL   C29124391   2.431   8.033   4.513 -0.0816  0.5447  0.4094
   51MOL   C29224392   2.412   7.907   4.446  0.7811 -0.7514 -0.1536
   51MOL   C29324393   2.486   7.793   4.484  0.3444 -0.1062 -0.7986
   51MOL   C29424394   2.584   7.803   4.589 -0.8840  0.1931 -0.2982
   51MOL   C29524395   2.585   7.918   4.670 -0.3112  0.6429  0.2350
   51MOL   S29624396   2.289   7.877   4.312 -0.1545  0.2155  0.0854
   51MOL   O29724397   2.202   7.762   4.349 -0.1660 -0.5020 -0.4179
   51MOL   O29824398   2.360   7.872   4.184 -0.0724  0.4761  0.5086
   51MOL   C29924399   2.180   8.021   4.320  0.3854 -0.1320  0.0328
   51MOL   C30024400   2.074   8.022   4.412 -0.4141  0.2434  0.2576
   51MOL   C30124401   1.982   8.127   4.423 -0.6996 -0.5767  0.4404
   51MOL   C30224402   2.008   8.239   4.343 -0.4115  0.3898 -0.5311
   51MOL   C30324403   2.129   8.249   4.267  0.2278  0.4169 -0.0344
   51MOL   C30424404   2.212   8.139   4.247 -0.0400 -0.3865 -0.1698
   51MOL   O30524405   1.917   8.338   4.346  0.5396  0.0360 -0.1774
   51MOL   H30624406   2.513   8.124   4.700  2.6168  1.3597 -1.3764
   51MOL   H30724407   2.376   8.120   4.479 -0.8232 -0.4000 -0.8374
   51MOL   H30824408   2.477   7.700   4.432  0.2580 -0.5301 -0.0313
   51MOL   H30924409   2.638   7.712   4.607 -1.2695 -0.3311 -1.7489
   51MOL   H31024410   2.045   7.927   4.456 -1.3823  0.5514  0.2859
   51MOL   H31124411   1.889   8.111   4.477 -1.1234 -1.0421 -0.4077
   51MOL   H31224412   2.139   8.345   4.218  2.7971  0.8774  1.3327
   51MOL   H31324413   2.295   8.147   4.179 -0.9069  0.2515 -1.1706
   51MOL   C31424414   1.956   0.041   4.546 -0.3644 -0.1633 -0.9650
   51MOL   C31524415   1.899   0.099   4.664 -0.3233  0.4447 -0.1315
   51MOL   C31624416   1.763   0.079   4.705  0.0413 -0.7837  0.6805
   51MOL   C31724417   1.679   0.012   4.614  0.5436  0.2532  0.0625
   51MOL   C31824418   1.729   8.386   4.499 -0.4412  0.2634  0.7270
   51MOL   C31924419   1.870   8.398   4.460 -0.5997  0.2648 -0.5953
   51MOL   S32024420   1.691   0.142   4.855 -0.3102 -0.0898  0.3673
   51MOL   O32124421   1.802   0.208   4.921 -0.2815 -0.1510 -0.3641
   51MOL   O32224422   1.619   0.033   4.927 -0.4349  0.0121  0.2634
   51MOL   C32324423   1.574   0.264   4.788  0.0766 -1.3480 -0.5488
   51MOL   C32424424   1.620   0.393   4.761  0.5301  0.3871 -0.0045
   51MOL   C32524425   1.537   0.473   4.679  0.4545  0.2167  1.3090
   51MOL   C32624426   1.402   0.443   4.650  0.6515 -0.3519 -0.5781
   51MOL   C32724427   1.351   0.318   4.697 -0.4793 -0.0826  0.4276
   51MOL   C32824428   1.441   0.235   4.759 -0.3184  0.0550  0.9090
   51MOL   O32924429   1.310   0.529   4.585  0.0884 -0.0150 -0.3407
   51MOL   H33024430   2.063   0.047   4.536 -0.2057  0.5352  1.0071
   51MOL   H33124431   1.973   0.146   4.727  1.6991 -0.4076 -1.8256
   51MOL   H33224432   1.578   8.424   4.649  0.4884 -0.3318 -0.3110
   51MOL   H33324433   1.660   8.333   4.435  2.2920 -0.5107 -1.7068
   51MOL   H33424434   1.720   0.428   4.781 -0.2859  3.2696 -0.8136
   51MOL   H33524435   1.579   0.569   4.653  0.1222 -0.1276 -0.5128
   51MOL   H33624436   1.247   0.297   4.674  0.0614 -1.8123 -0.5502
   51MOL   H33724437   1.409   0.135   4.784  1.6591 -0.7861  0.2371
   51MOL   C33824438   1.391   0.587   4.367 -0.3723  0.0682 -0.0073
   51MOL   C33924439   1.442   0.690   4.285  0.0144  0.4109 -0.5189
   51MOL   C34024440   1.466   0.821   4.339 -0.3145 -0.2594 -0.2354
   51MOL   C34124441   1.429   0.847   4.471 -0.2026 -0.4062  0.5606
   51MOL   C34224442   1.385   0.747   4.548 -0.1846  0.3865  0.3657
   51MOL   C34324443   1.364   0.621   4.501 -0.0831  0.9692 -0.1210
   51MOL   S34424444   1.546   0.944   4.244  0.2949  0.2681 -0.1142
   51MOL   O34524445   1.523   1.075   4.302  0.0711  0.4794 -0.4890
   51MOL   O34624446   1.511   0.917   4.102 -0.1053  0.4272 -0.7582
   51MOL   C34724447   1.723   0.916   4.270  0.1065 -0.2137 -0.3534
   51MOL   C34824448   1.816   0.980   4.186  0.1459 -0.0978  0.1677
   51MOL   C34924449   1.953   0.955   4.190 -0.5841 -0.1728  0.5203
   51MOL   C35024450   2.000   0.862   4.289 -0.0948 -0.2518 -0.5384
   51MOL   C35124451   1.910   0.799   4.376 -0.1936  0.3505  0.1608
   51MOL   C35224452   1.775   0.829   4.366 -0.0845 -0.2976 -0.2820
   51MOL   O35324453   2.133   0.822   4.295  0.7465  0.4065 -0.8098
   51MOL   H35424454   1.359   0.489   4.334 -1.2266  0.3412  0.0105
   51MOL   H35524455   1.475   0.672   4.184 -1.3738  1.9158 -1.2699
   51MOL   H35624456   1.445   0.946   4.511 -0.3932 -0.2087  0.1490
   51MOL   H35724457   1.352   0.774   4.647  1.3861  1.0900  0.7079
   51MOL   H35824458   1.780   1.044   4.106 -0.5538  1.0232  1.3768
   51MOL   H35924459   2.022   0.987   4.114  2.5258 -3.2337  1.8880
   51MOL   H36024460   1.945   0.716   4.437  0.2737 -0.0173 -0.6102
   51MOL   H36124461   1.717   0.783   4.444  0.8448  0.2069  0.7324
   51MOL   C36224462   2.251   0.997   4.409 -0.1229 -0.5389 -0.4834
   51MOL   C36324463   2.352   1.092   4.414  0.1370 -0.0671 -0.4360
   51MOL   C36424464   2.437   1.108   4.302  1.3828 -0.2729 -0.6955
   51MOL   C36524465   2.426   1.022   4.193  0.6900  0.3043  0.6778
   51MOL   C36624466   2.317   0.933   4.190  0.0500  0.4759 -0.3447
   51MOL   C36724467   2.230   0.920   4.292 -0.3583  0.2002 -0.5307
   51MOL   S36824468   2.576   1.227   4.313  0.2716  0.2278  0.2315
   51MOL   O36924469   2.616   1.240   4.458 -0.4720  0.3343 -0.1311
   51MOL   O37024470   2.536   1.349   4.238 -0.1120  0.1824  0.4054
   51MOL   C37124471   2.707   1.138   4.218 -0.8661 -0.2672 -0.7791
   51MOL   C37224472   2.765   1.031   4.282  0.4117 -0.0963  0.1991
   51MOL   C37324473   2.853   0.949   4.207  0.0613 -0.0919 -0.0145
   51MOL   C37424474   2.884   0.977   4.071  0.2778  0.3471  0.5830
   51MOL   C37524475   2.821   1.092   4.013 -0.3332  0.3807 -0.2749
   51MOL   C37624476   2.730   1.168   4.084  0.2157  0.0280 -0.0212
   51MOL   O37724477   2.972   0.900   4.001 -0.2477 -0.0447 -0.2846
   51MOL   H37824478   2.192   0.990   4.499  0.5372 -1.8468 -0.1309
   51MOL   H37924479   2.346   1.162   4.496 -2.2082  1.0691 -1.5139
   51MOL   H38024480   2.497   1.020   4.111  3.3758 -1.5292  2.9356
   51MOL   H38124481   2.299   0.875   4.100  0.1832 -1.1271  0.6552
   51MOL   H38224482   2.755   0.983   4.378  0.7296 -0.1182  0.2195
   51MOL   H38324483   2.896   0.869   4.265  1.3454 -0.0784 -0.9306
   51MOL   H38424484   2.840   1.106   3.907 -2.2031  2.3283 -0.3719
   51MOL   H38524485   2.666   1.240   4.035 -1.7227 -1.4444  0.2908
   51MOL   C38624486   3.196   0.994   4.039 -0.0794  0.3654 -0.4804
   51MOL   C38724487   3.314   0.985   4.119  0.1235  0.1395  0.5492
   51MOL   C38824488   3.354   0.871   4.194  0.4230 -0.4651 -0.3178
   51MOL   C38924489   3.261   0.764   4.191  0.6642 -0.6193 -0.7612
   51MOL   C39024490   3.135   0.774   4.130 -0.0215 -0.0595 -0.9603
   51MOL   C39124491   3.098   0.889   4.056  0.2085  0.6035 -0.0395
   51MOL   S39224492   3.511   0.871   4.286 -0.2908  0.6285  0.5556
   51MOL   O39324493   3.512   0.986   4.383 -0.0373  0.0293 -0.7532
   51MOL   O39424494   3.612   0.873   4.180  0.3768 -0.2251  0.2730
   51MOL   C39524495   3.526   0.711   4.373  0.0323 -0.5800  0.8283
   51MOL   C39624496   3.622   0.617   4.338 -0.0381  0.3920  0.5296
   51MOL   C39724497   3.609   0.494   4.403  0.4501  0.0012 -1.3430
   51MOL   C39824498   3.513   0.460   4.499  0.8735  0.0080 -0.1480
   51MOL   C39924499   3.422   0.563   4.533 -0.1306  0.0560 -0.2864
   51MOL   C40024500   3.426   0.689   4.463  0.0394  0.2503 -0.3325
   51MOL   O40124501   3.506   0.338   4.563  0.1715 -0.0178 -0.5673
   51MOL   H40224502   3.182   1.082   3.979 -0.2353 -1.1322 -2.7026
   51MOL   H40324503   3.385   1.066   4.125 -0.3157  0.5928 -0.2086
   51MOL   H40424504   3.277   0.682   4.259 -0.2927 -0.0615  0.1375
   51MOL   H40524505   3.062   0.698   4.157  0.2934  0.0862  0.3559
   51MOL   H40624506   3.712   0.635   4.282  0.0532 -1.3012  0.1243
   51MOL   H40724507   3.681   0.416   4.381 -0.3936 -1.3507  0.5306
   51MOL   H40824508   3.342   0.540   4.602  1.7181 -0.3177  1.7723
   51MOL   H40924509   3.339   0.750   4.483  0.8728  1.4275 -0.2744
   51MOL   C41024510   3.471   0.228   4.772  0.2538  0.0008  0.5089
   51MOL   C41124511   3.500   0.217   4.908  0.6845  0.6243  0.3063
   51MOL   C41224512   3.600   0.291   4.970  0.5591 -0.3395  0.3639
   51MOL   C41324513   3.668   0.391   4.894 -0.2269  0.0653  0.1163
   51MOL   C41424514   3.640   0.405   4.754 -0.4990  0.0923 -0.5287
   51MOL   C41524515   3.546   0.323   4.691 -0.0903 -0.3339 -0.0263
   51MOL   S41624516   3.627   0.268   5.143 -0.0566  0.0545 -0.2642
   51MOL   O41724517   3.506   0.309   5.214 -0.5399  0.9573  0.4611
   51MOL   O41824518   3.759   0.331   5.173  0.4668 -0.4981 -0.2367
   51MOL   C41924519   3.643   0.091   5.179  0.6121 -0.0218  0.1129
   51MOL   C42024520   3.717   0.009   5.092 -0.7757 -0.6088 -0.0924
   51MOL   C42124521   3.725   8.294   5.114 -0.0322  0.4216 -0.6405
   51MOL   C42224522   3.659   8.237   5.223 -0.6916  0.0093  0.5575
   51MOL   C42324523   3.587   8.322   5.310  0.0012 -0.4095 -0.6766
   51MOL   C42424524   3.580   0.036   5.295  1.0274 -0.0406  0.6037
   51MOL   O42524525   3.644   8.100   5.235 -0.0820  0.0371  0.3865
   51MOL   H42624526   3.397   0.159   4.732  1.5141 -0.6843 -0.7037
   51MOL   H42724527   3.445   0.148   4.971  0.1455  0.3536 -0.4604
   51MOL   H42824528   3.743   0.451   4.945  0.8561 -0.8515 -0.3885
   51MOL   H42924529   3.679   0.483   4.690  1.2276 -0.4503 -0.1326
   51MOL   H43024530   3.763   0.056   5.007  2.0966 -1.6628  0.8369
   51MOL   H43124531   3.779   8.235   5.041 -0.1499 -0.5364  0.0436
   51MOL   H43224532   3.526   8.287   5.391  1.6875 -1.0086  0.3612
   51MOL   H43324533   3.534   0.102   5.367 -3.4291 -2.7247  0.3977
   51MOL   C43424534   3.743   7.993   5.428 -0.1796  0.3231 -0.1206
   51MOL   C43524535   3.730   7.932   5.557 -0.0974  0.2162 -0.2021
   51MOL   C43624536   3.605   7.918   5.611 -0.7029  0.4983 -0.1752
   51MOL   C43724537   3.491   7.974   5.556  0.1801  1.2551 -0.2030
   51MOL   C43824538   3.505   8.025   5.425  0.0419 -0.1523 -0.6400
   51MOL   C43924539   3.628   8.039   5.360  0.3371 -0.1595  0.5651
   51MOL   S44024540   3.607   7.835   5.764  0.2678  0.1695 -0.2472
   51MOL   O44124541   3.598   7.941   5.867 -0.1133  0.4079 -0.4514
   51MOL   O44224542   3.715   7.738   5.766  0.4580 -0.2410 -0.5248
   51MOL   C44324543   3.456   7.747   5.754 -0.2705 -0.2283  0.3094
   51MOL   C44424544   3.460   7.621   5.692 -0.2427 -0.4484 -0.2710
   51MOL   C44524545   3.343   7.555   5.690 -0.0043  0.4871  0.0536
   51MOL   C44624546   3.227   7.602   5.750 -0.3036 -0.4487 -0.4510
   51MOL   C44724547   3.216   7.732   5.799 -0.0397  0.6314 -0.0050
   51MOL   C44824548   3.335   7.801   5.804  0.3398 -0.9587  0.2892
   51MOL   O44924549   3.113   7.529   5.748  0.7606 -0.1538  0.0160
   51MOL   H45024550   3.838   8.012   5.381 -0.9752  1.4674 -1.3143
   51MOL   H45124551   3.817   7.901   5.613 -0.7091 -1.7582 -0.3206
   51MOL   H45224552   3.397   7.961   5.608  0.3948  0.8910  0.0956
   51MOL   H45324553   3.423   8.081   5.383  1.1136  0.3082 -2.1698
   51MOL   H45424554   3.553   7.582   5.654  0.9448  0.2512  1.8200
   51MOL   H45524555   3.332   7.458   5.644 -1.4837  0.9065 -0.4910
   51MOL   H45624556   3.123   7.775   5.832 -1.3126 -0.9838 -1.3864
   51MOL   H45724557   3.339   7.898   5.852 -1.5889 -0.9182  0.3979
   51MOL   C45824558   3.118   7.415   5.962 -0.6258  0.3072 -0.2790
   51MOL   C45924559   3.128   7.291   6.026 -0.1667  0.8243  0.0792
   51MOL   C46024560   3.107   7.172   5.958 -0.0296  0.0058  0.0368
   51MOL   C46124561   3.090   7.173   5.822  0.2703  0.1819  0.0848
   51MOL   C46224562   3.089   7.293   5.747  0.2478 -0.2832  0.1579
   51MOL   C46324563   3.103   7.417   5.820  0.2978 -0.0330  0.2568
   51MOL   S46424564   3.123   7.008   6.033 -0.0729 -0.2225 -0.0263
   51MOL   O46524565   3.260   6.965   6.010 -0.0560  0.3589 -0.7255
   51MOL   O46624566   3.009   6.923   5.988  0.0554 -0.2610  0.2378
   51MOL   C46724567   3.100   7.036   6.202 -0.0649  0.5581 -0.6248
   51MOL   C46824568   2.972   7.020   6.253  0.8227  0.5028 -0.0369
   51MOL   C46924569   2.948   7.046   6.389 -0.0054 -0.0258 -0.5358
   51MOL   C47024570   3.053   7.084   6.478  0.0916 -0.3813  0.2504
   51MOL   C47124571   3.187   7.091   6.428  0.4522  0.2773  0.0267
   51MOL   C47224572   3.212   7.061   6.292 -0.4924  0.3142  0.6249
   51MOL   O47324573   3.028   7.110   6.612  0.3931 -0.1296 -0.6113
   51MOL   H47424574   3.134   7.508   6.014  0.0820 -0.6143  1.1564
   51MOL   H47524575   3.140   7.281   6.133  0.1105  1.2717  0.0928
   51MOL   H47624576   3.077   7.076   5.775  1.3750  0.0373  0.0773
   51MOL   H47724577   3.095   7.290   5.639  4.4626  1.4813  0.2648
   51MOL   H47824578   2.893   6.987   6.187 -0.8299  0.5851  1.8550
   51MOL   H47924579   2.853   7.036   6.438 -0.0479  1.2004 -0.3452
   51MOL   H48024580   3.270   7.113   6.494  0.1902 -1.8860  1.1525
   51MOL   H48124581   3.314   7.049   6.258 -0.8725  0.1386 -0.4689
   51MOL   H48224582   2.946   7.075   6.646  0.0497  0.4556 -0.8333
   52MOL     C124583   3.808   6.487   5.328 -0.7129 -0.5858  0.3733
   52MOL     C224584   3.888   6.397   5.402 -0.6967  0.7216  1.0299
   52MOL     C324585   3.969   6.308   5.326 -0.1024  0.6418 -0.5084
   52MOL     C424586   3.971   6.314   5.188 -0.2526 -0.4781 -0.1709
   52MOL     C524587   3.895   6.411   5.121  0.6864 -0.6059 -0.0715
   52MOL     C624588   3.807   6.491   5.190  0.2732 -0.1991  0.2659
   52MOL     S724589   4.073   6.191   5.416 -0.3804 -0.3043  0.0960
   52MOL     O824590   4.046   6.191   5.560 -0.1627  0.4177  0.3565
   52MOL     O924591   4.209   6.219   5.371 -0.3101  0.1496 -0.2251
   52MOL    C1024592   4.018   6.032   5.342 -0.3237  0.0800  0.0538
   52MOL    C1124593   3.880   6.003   5.347  0.0356  0.6808  0.5073
   52MOL    C1224594   3.838   5.887   5.281 -0.2580  0.2350 -0.0749
   52MOL    C1324595   3.925   5.796   5.213  0.3398  0.3826 -0.1080
   52MOL    C1424596   4.059   5.823   5.221 -0.3057 -0.0926 -0.4541
   52MOL    C1524597   4.106   5.940   5.289 -0.5002 -1.3683 -0.1067
   52MOL    O1624598   3.885   5.672   5.167  0.1685  0.8812 -0.7853
   52MOL    H1724599   3.752   6.557   5.388 -1.0665 -1.4579  1.0780
   52MOL    H1824600   3.905   6.403   5.508 -1.3489  1.5853  1.0901
   52MOL    H1924601   4.025   6.246   5.123 -0.8119  0.4253 -1.6110
   52MOL    H2024602   3.917   6.420   5.015 -1.2698 -2.8138 -0.7132
   52MOL    H2124603   3.816   6.077   5.394  1.6868  3.0357 -0.8319
   52MOL    H2224604   3.734   5.859   5.290 -0.5900  1.2602 -0.6368
   52MOL    H2324605   4.124   5.747   5.178  0.7910  0.7014 -0.2260
   52MOL    H2424606   4.209   5.971   5.298 -0.7479 -0.3950 -0.5865
   52MOL    H2524607   3.740   6.559   5.140  0.1473 -0.6584 -0.1773
   52MOL    C2624608   3.747   5.654   4.967  0.1076  0.7418 -0.0248
   52MOL    C2724609   3.628   5.606   4.914 -0.2828 -0.2290  0.0896
   52MOL    C2824610   3.530   5.563   4.999 -0.2338  0.9168  0.8951
   52MOL    C2924611   3.545   5.569   5.139  1.0764 -0.6506  0.2857
   52MOL    C3024612   3.661   5.613   5.193 -0.4902  0.5058 -0.0624
   52MOL    C3124613   3.764   5.658   5.110  0.2111 -0.4370 -0.1664
   52MOL    S3224614   3.373   5.493   4.926 -0.0112  0.0327  0.3237
   52MOL    O3324615   3.341   5.593   4.824  0.0350  0.7438 -0.2186
   52MOL    O3424616   3.285   5.463   5.039  0.0804 -0.8149 -0.3340
   52MOL    C3524617   3.413   5.336   4.848 -0.9654 -0.0086 -0.5475
   52MOL    C3624618   3.377   5.216   4.907  0.3093  0.5785 -0.3236
   52MOL    C3724619   3.419   5.098   4.845 -0.6462 -0.0212  1.4031
   52MOL    C3824620   3.480   5.093   4.720  0.2234 -0.1350  0.3588
   52MOL    C3924621   3.505   5.218   4.653 -0.3970  0.4632 -0.6083
   52MOL    C4024622   3.487   5.336   4.724 -0.5217 -0.5037 -0.7961
   52MOL    O4124623   3.509   4.972   4.668  0.1315  0.0786  0.4002
   52MOL    H4224624   3.824   5.701   4.908  1.2503  0.0831  0.9007
   52MOL    H4324625   3.624   5.597   4.807  0.5596 -2.3390  0.2196
   52MOL    H4424626   3.461   5.521   5.189 -0.8243  0.3849 -1.8185
   52MOL    H4524627   3.677   5.597   5.298  2.3952  0.5962 -0.4504
   52MOL    H4624628   3.315   5.221   4.996  1.9350 -0.3355  0.8890
   52MOL    H4724629   3.396   5.000   4.886 -0.8931 -0.4137  0.3470
   52MOL    H4824630   3.542   5.219   4.551 -2.1239 -2.2070 -1.3185
   52MOL    H4924631   3.511   5.432   4.682 -1.8257 -0.0523 -0.5306
   52MOL    C5024632   3.631   4.923   4.475 -0.1845  0.3293  0.8738
   52MOL    C5124633   3.642   4.899   4.339 -0.0694 -0.0616  0.9254
   52MOL    C5224634   3.528   4.899   4.258  0.4312 -0.6664  0.4961
   52MOL    C5324635   3.399   4.929   4.320  0.3855 -0.3131 -1.0106
   52MOL    C5424636   3.391   4.957   4.462  0.2071  0.4180  0.3624
   52MOL    C5524637   3.509   4.948   4.535  0.3172 -0.4202  0.1370
   52MOL    S5624638   3.550   4.896   4.080 -0.0531 -0.1152  0.2759
   52MOL    O5724639   3.418   4.915   4.015  0.2335  0.0255  0.3458
   52MOL    O5824640   3.639   4.781   4.039 -0.2395 -0.1526 -0.0006
   52MOL    C5924641   3.643   5.047   4.064 -0.5151  0.2963 -0.1491
   52MOL    C6024642   3.784   5.040   4.066 -0.4407  0.6043 -0.5092
   52MOL    C6124643   3.862   5.155   4.053  0.5776 -0.6384 -0.4350
   52MOL    C6224644   3.793   5.275   4.005 -0.4859  0.2363 -0.0782
   52MOL    C6324645   3.650   5.271   3.981 -0.2270  0.3768  0.0234
   52MOL    C6424646   3.574   5.160   4.017  0.0745 -0.1571 -0.6744
   52MOL    O6524647   3.870   5.381   3.957 -0.2073  0.6001 -0.2176
   52MOL    H6624648   3.707   4.919   4.552  1.8020  1.0933 -1.0049
   52MOL    H6724649   3.737   4.878   4.292 -1.3422 -2.8144 -0.5655
   52MOL    H6824650   3.310   4.932   4.258  0.6395  3.2318 -1.3210
   52MOL    H6924651   3.301   4.953   4.522 -1.1335 -0.5844 -1.6584
   52MOL    H7024652   3.832   4.952   4.106 -0.3608  1.1093  0.5469
   52MOL    H7124653   3.969   5.137   4.052  0.4178 -1.6124 -0.5827
   52MOL    H7224654   3.604   5.358   3.937 -1.4212 -0.2443  0.0340
   52MOL    H7324655   3.467   5.155   4.006 -0.2292 -0.3666  2.0445
   52MOL    C7424656   3.761   5.523   3.780  0.1892  1.1131 -0.2309
   52MOL    C7524657   3.692   5.636   3.745  0.6557  0.0188  0.7879
   52MOL    C7624658   3.675   5.740   3.846 -0.4941  0.0677 -0.3248
   52MOL    C7724659   3.714   5.712   3.980  0.5240  0.1528  0.4206
   52MOL    C7824660   3.784   5.596   4.012  0.4401 -1.0602  0.4325
   52MOL    C7924661   3.804   5.496   3.914  1.3078  0.4251 -0.0912
   52MOL    S8024662   3.579   5.888   3.789 -0.0250 -0.2069 -0.0956
   52MOL    O8124663   3.484   5.920   3.899  0.0815  0.2785  0.4854
   52MOL    O8224664   3.528   5.876   3.649  0.5559  0.2699 -0.1918
   52MOL    C8324665   3.694   6.036   3.794  0.0566 -0.5499 -0.0583
   52MOL    C8424666   3.691   6.106   3.914 -0.7021 -0.2342  0.2082
   52MOL    C8524667   3.752   6.232   3.914 -0.8688  0.0197 -0.7566
   52MOL    C8624668   3.835   6.274   3.804 -0.0269 -0.8362  1.0099
   52MOL    C8724669   3.848   6.197   3.686 -0.3229 -0.1824  0.1555
   52MOL    C8824670   3.771   6.079   3.679  0.0518  0.0592  0.7993
   52MOL    O8924671   3.896   6.398   3.816 -0.3279  0.5136  0.1354
   52MOL    H9024672   3.775   5.447   3.704 -1.4175 -0.2744  0.8134
   52MOL    H9124673   3.655   5.653   3.645  1.0906  0.1250  0.6455
   52MOL    H9224674   3.696   5.783   4.059  1.4163 -1.9489  2.5971
   52MOL    H9324675   3.811   5.579   4.115 -1.2297 -2.5449  0.6493
   52MOL    H9424676   3.626   6.072   3.994 -1.3524  0.6367  0.0585
   52MOL    H9524677   3.749   6.298   4.000 -3.3032 -1.1237  0.0731
   52MOL    H9624678   3.910   6.238   3.608 -1.7259 -1.4833 -1.6573
   52MOL    H9724679   3.763   6.029   3.584  2.3036  1.2181 -0.0296
   52MOL    C9824680   4.075   6.322   3.956  0.2465  0.3728  0.1695
   52MOL    C9924681   4.210   6.337   3.994  0.1011 -0.3164 -0.5996
   52MOL   C10024682   4.297   6.422   3.913 -0.3378 -0.2502 -0.5267
   52MOL   C10124683   4.253   6.485   3.798 -0.8805  0.9404  0.1059
   52MOL   C10224684   4.119   6.468   3.762  0.2309 -0.3683  0.3665
   52MOL   C10324685   4.027   6.394   3.844 -1.1152 -1.0805 -0.0581
   52MOL   S10424686   4.456   6.468   3.986 -0.1380  0.2545  0.1001
   52MOL   O10524687   4.503   6.347   4.062  0.1995 -0.4302  0.1122
   52MOL   O10624688   4.431   6.591   4.055  0.4559 -0.2295 -0.0067
   52MOL   C10724689   4.571   6.502   3.851  1.0873 -0.1776  0.0993
   52MOL   C10824690   4.645   6.398   3.800 -0.1056  0.7077 -0.1784
   52MOL   C10924691   4.752   6.423   3.711 -0.8158  0.2614  0.0337
   52MOL   C11024692   4.777   6.555   3.670 -0.3518 -0.0762  0.2902
   52MOL   C11124693   4.707   6.662   3.723  0.0426  0.7101  0.1095
   52MOL   C11224694   4.604   6.635   3.814 -0.0294 -0.6048  0.3363
   52MOL   O11324695   4.868   6.591   3.576 -0.4124 -0.0115  0.7985
   52MOL   H11424696   4.004   6.274   4.022  0.1491 -0.2917 -0.4209
   52MOL   H11524697   4.255   6.291   4.080 -1.4698 -3.7813 -1.5497
   52MOL   H11624698   4.321   6.550   3.745 -0.3744  0.0983 -0.2985
   52MOL   H11724699   4.075   6.522   3.680  0.1575 -3.0727 -1.4678
   52MOL   H11824700   4.629   6.297   3.835 -1.9295  0.7170 -0.9458
   52MOL   H11924701   4.802   6.334   3.673 -0.3496  0.3459  0.4365
   52MOL   H12024702   4.727   6.763   3.691 -0.4102  0.3377 -1.3922
   52MOL   H12124703   4.555   6.722   3.856  0.8917 -0.3584  0.9057
   52MOL   C12224704   4.709   6.587   3.391 -0.0500 -0.0579  0.3997
   52MOL   C12324705   4.660   6.655   3.273 -0.4357  0.1370  0.0786
   52MOL   C12424706   4.708   6.781   3.231  0.0618 -0.0540  0.5897
   52MOL   C12524707   4.804   6.841   3.309  0.7119  0.6930 -0.2358
   52MOL   C12624708   4.860   6.781   3.421 -0.3074 -0.0743  0.2046
   52MOL   C12724709   4.814   6.654   3.462  0.2903  0.1997  0.3757
   52MOL   S12824710   4.628   6.858   3.088 -0.2091  0.1546 -0.3656
   52MOL   O12924711   4.539   6.963   3.146 -0.0645 -0.5155  0.3808
   52MOL   O13024712   4.581   6.748   3.001  0.5696 -0.0647 -0.5727
   52MOL   C13124713   4.762   6.932   3.007 -0.1843 -0.5983  0.2650
   52MOL   C13224714   4.873   6.867   2.966  0.0088 -0.0985 -0.1965
   52MOL   C13324715   4.982   6.936   2.917 -0.7774  0.1594 -0.1462
   52MOL   C13424716   4.990   7.076   2.928  0.5827  0.3372 -0.1979
   52MOL   C13524717   4.872   7.144   2.966 -0.4936  0.2443  0.6719
   52MOL   C13624718   4.759   7.076   3.011  0.0675  0.2252  0.2799
   52MOL   O13724719   5.102   7.137   2.896 -0.0857  0.5394  0.4265
   52MOL   H13824720   4.682   6.487   3.422 -0.2299  0.2012  1.0880
   52MOL   H13924721   4.572   6.613   3.227 -0.1468  0.9052 -1.1808
   52MOL   H14024722   4.818   6.947   3.290 -0.0222  1.2392  2.0708
   52MOL   H14124723   4.929   6.833   3.486 -1.9738  1.6332  0.6505
   52MOL   H14224724   4.878   6.759   2.967 -0.4005 -0.1126  0.0674
   52MOL   H14324725   5.069   6.892   2.870 -0.6746  1.4576 -1.2116
   52MOL   H14424726   4.874   7.252   2.967 -1.3639  0.2911 -1.4787
   52MOL   H14524727   4.675   7.127   3.054  0.2985 -1.3028  2.6192
   52MOL   C14624728   5.244   7.058   3.074 -0.7096 -0.0843 -0.7966
   52MOL   C14724729   5.344   7.081   3.168  0.1183  0.1191  0.1353
   52MOL   C14824730   5.362   7.209   3.216 -0.4526  0.1426 -0.5091
   52MOL   C14924731   5.297   7.316   3.151 -0.2377  0.5435 -0.3498
   52MOL   C15024732   5.213   7.294   3.043 -0.2290 -0.2361  0.0308
   52MOL   C15124733   5.186   7.164   3.001 -0.9700  0.4300 -0.2445
   52MOL   S15224734   5.474   7.236   3.358 -0.1711 -0.1301 -0.1645
   52MOL   O15324735   5.592   7.308   3.305  0.1074  0.1687 -0.3405
   52MOL   O15424736   5.485   7.103   3.422 -0.7910 -0.5625  0.2753
   52MOL   C15524737   5.399   7.345   3.483  0.3118 -0.2530  0.8091
   52MOL   C15624738   5.444   7.477   3.486 -0.0719 -0.2604  0.3121
   52MOL   C15724739   5.386   7.561   3.580  0.0636 -0.3983 -1.2019
   52MOL   C15824740   5.297   7.518   3.680  0.0712 -0.2335 -0.6590
   52MOL   C15924741   5.259   7.382   3.681 -0.1835  0.3321 -0.1972
   52MOL   C16024742   5.307   7.294   3.578 -0.6651  0.6473 -0.2044
   52MOL   O16124743   5.257   7.613   3.771 -0.0766 -0.4090 -0.2017
   52MOL   H16224744   5.233   6.953   3.050 -0.2785 -0.9228  2.3804
   52MOL   H16324745   5.386   7.001   3.228  2.8948  3.1375  2.3748
   52MOL   H16424746   5.331   7.415   3.180  0.2544  0.9476 -2.2539
   52MOL   H16524747   5.175   7.383   2.994  0.2745  0.9778  1.8002
   52MOL   H16624748   5.512   7.520   3.414  0.3530 -0.8661  0.3464
   52MOL   H16724749   5.414   7.665   3.572 -1.2860 -0.0820 -2.0992
   52MOL   H16824750   5.199   7.349   3.765 -0.7031 -0.6414 -0.9456
   52MOL   H16924751   5.282   7.189   3.578 -0.0727  0.5019  0.0028
   52MOL   C17024752   5.145   7.628   3.973  0.1266  0.2189 -0.5844
   52MOL   C17124753   5.126   7.588   4.110  0.1737  0.2955  0.4018
   52MOL   C17224754   5.221   7.506   4.176 -1.0858  0.3146 -0.1865
   52MOL   C17324755   5.339   7.466   4.105  0.4886  0.2427  0.1848
   52MOL   C17424756   5.349   7.494   3.970  0.1941 -0.4657 -0.7146
   52MOL   C17524757   5.258   7.584   3.905 -0.2201 -0.6524 -0.0229
   52MOL   S17624758   5.198   7.472   4.356 -0.1399 -0.3738  0.0806
   52MOL   O17724759   5.053   7.485   4.375 -0.0231  0.1052  0.1694
   52MOL   O17824760   5.292   7.560   4.427  0.4329 -0.6276 -0.3651
   52MOL   C17924761   5.241   7.296   4.377 -0.1220  0.5470  0.5461
   52MOL   C18024762   5.193   7.195   4.292  0.4322 -0.6487  0.1619
   52MOL   C18124763   5.240   7.061   4.324 -0.3036  0.6023 -0.3799
   52MOL   C18224764   5.331   7.031   4.423 -0.8909  0.2377  0.2838
   52MOL   C18324765   5.389   7.137   4.494  0.7772  0.2090 -0.2343
   52MOL   C18424766   5.340   7.268   4.476  0.7965 -1.0695  0.6659
   52MOL   O18524767   5.376   6.901   4.443 -0.4042 -0.2758  0.5326
   52MOL   H18624768   5.074   7.682   3.911 -1.7853 -0.0686  1.3225
   52MOL   H18724769   5.043   7.623   4.170 -0.9977 -0.0695 -0.9915
   52MOL   H18824770   5.412   7.400   4.148  1.8642  0.4242 -1.8047
   52MOL   H18924771   5.438   7.461   3.920  1.4765  2.1552 -0.2348
   52MOL   H19024772   5.138   7.216   4.202 -0.4666  0.0260  0.8678
   52MOL   H19124773   5.201   6.978   4.267  2.1319 -1.0083  0.2284
   52MOL   H19224774   5.469   7.105   4.558  0.8581 -1.7299 -1.2845
   52MOL   H19324775   5.382   7.345   4.540 -0.7587  0.0944  0.2931
   52MOL   C19424776   5.289   6.681   4.505  0.1911  0.6962  0.2349
   52MOL   C19524777   5.204   6.603   4.591 -0.1663  0.2473  0.4796
   52MOL   C19624778   5.131   6.667   4.694  0.0530  0.0490 -0.3397
   52MOL   C19724779   5.151   6.797   4.729 -0.0829 -0.0292 -0.1458
   52MOL   C19824780   5.234   6.873   4.646  0.2332  0.0687 -0.3765
   52MOL   C19924781   5.305   6.819   4.532 -1.1018 -0.3175 -0.2060
   52MOL   S20024782   5.020   6.551   4.766  0.0339 -0.0873 -0.2089
   52MOL   O20124783   4.941   6.488   4.662 -0.4775 -0.7042  1.0915
   52MOL   O20224784   4.942   6.630   4.859  0.5578 -0.0301  0.2153
   52MOL   C20324785   5.112   6.427   4.855  0.2704 -0.1982 -0.5615
   52MOL   C20424786   5.157   6.452   4.983  0.6577 -0.2228 -0.2532
   52MOL   C20524787   5.199   6.346   5.073 -0.4229 -0.9079  0.5892
   52MOL   C20624788   5.192   6.212   5.024 -0.1207 -0.6174  1.0882
   52MOL   C20724789   5.153   6.186   4.895 -0.0648  0.1957  0.1067
   52MOL   C20824790   5.102   6.294   4.818  0.4601  0.4113  0.1097
   52MOL   O20924791   5.217   6.117   5.118 -0.4477  0.4925  0.1479
   52MOL   H21024792   5.342   6.624   4.431  2.0863 -0.3351  2.3688
   52MOL   H21124793   5.198   6.498   4.569  0.0576  0.4584 -0.6083
   52MOL   H21224794   5.097   6.836   4.814  0.7953  0.4332  0.1947
   52MOL   H21324795   5.255   6.973   4.680 -0.7585  1.2611 -3.1458
   52MOL   H21424796   5.133   6.553   5.015  0.0715  0.1962 -1.9446
   52MOL   H21524797   5.225   6.366   5.176  0.0275 -1.2725  0.5504
   52MOL   H21624798   5.147   6.084   4.860  0.3588  0.3933 -0.5512
   52MOL   H21724799   5.040   6.282   4.730  1.0953  0.6022 -0.3742
   52MOL   C21824800   5.454   6.124   5.085  0.2519  0.4595 -0.5874
   52MOL   C21924801   5.580   6.073   5.131  0.0078 -0.1132 -0.0335
   52MOL   C22024802   5.594   6.018   5.262  0.2856 -0.5700 -0.1916
   52MOL   C22124803   5.481   6.015   5.344 -0.2758 -0.3372 -0.1206
   52MOL   C22224804   5.360   6.069   5.301 -0.3318  0.2174  0.2428
   52MOL   C22324805   5.341   6.102   5.166  0.7209  0.0875  0.2642
   52MOL   S22424806   5.743   5.964   5.336  0.3267  0.1878  0.3939
   52MOL   O22524807   5.722   5.965   5.485 -0.5276 -0.3650 -0.1241
   52MOL   O22624808   5.854   6.039   5.286 -0.3421 -0.1251  0.4205
   52MOL   C22724809   5.766   5.799   5.280 -0.3199  0.0009  0.2685
   52MOL   C22824810   5.809   5.694   5.364  0.2680 -0.1308  0.4526
   52MOL   C22924811   5.818   5.563   5.332 -0.6102 -0.1474 -0.4416
   52MOL   C23024812   5.790   5.528   5.199 -0.4067  0.6959  0.3728
   52MOL   C23124813   5.759   5.628   5.108  0.4622 -0.4356 -0.6438
   52MOL   C23224814   5.748   5.763   5.143  0.1207 -0.3730 -0.0822
   52MOL   O23324815   5.790   5.393   5.171  0.1820  0.0986  0.6536
   52MOL   H23424816   5.443   6.160   4.984  1.1838 -0.4777 -1.0339
   52MOL   H23524817   5.660   6.066   5.059 -1.6307 -2.3184 -1.7171
   52MOL   H23624818   5.491   5.983   5.447  1.1073 -1.3837 -0.5568
   52MOL   H23724819   5.279   6.073   5.373  0.1396 -3.3605  1.0757
   52MOL   H23824820   5.834   5.715   5.467  4.1921 -0.0083 -0.4304
   52MOL   H23924821   5.846   5.489   5.405 -0.5200  1.1428  0.8334
   52MOL   H24024822   5.735   5.589   5.010 -1.0255  1.7126 -1.1717
   52MOL   H24124823   5.728   5.841   5.071  0.5134  0.6074  0.8462
   52MOL   C24224824   5.599   5.273   5.255  0.4298  0.1280  0.4078
   52MOL   C24324825   5.479   5.214   5.226 -0.0626 -0.3354  0.2629
   52MOL   C24424826   5.428   5.204   5.095 -0.6886 -0.5156  0.5587
   52MOL   C24524827   5.489   5.274   4.994 -0.0506  0.3942  0.3225
   52MOL   C24624828   5.618   5.331   5.019  0.6488 -0.5401  0.1869
   52MOL   C24724829   5.665   5.333   5.150 -0.0787 -0.0760 -0.2486
   52MOL   S24824830   5.288   5.102   5.058 -0.4295 -0.3306  0.2302
   52MOL   O24924831   5.316   4.963   5.100 -0.9640 -0.2583 -0.3321
   52MOL   O25024832   5.241   5.132   4.920  0.1912 -0.3391 -0.1300
   52MOL   C25124833   5.152   5.185   5.163  0.5533 -0.0916 -0.1195
   52MOL   C25224834   5.061   5.106   5.236  1.2171  0.1302 -0.0187
   52MOL   C25324835   4.946   5.167   5.298  0.3709 -0.0571 -0.3798
   52MOL   C25424836   4.919   5.304   5.261 -0.4048 -0.0055  0.2578
   52MOL   C25524837   5.009   5.387   5.186  0.8216 -0.7322  0.0031
   52MOL   C25624838   5.127   5.326   5.147 -0.0074  0.1373 -0.0289
   52MOL   O25724839   4.803   5.364   5.292 -0.0707  0.2397  0.1140
   52MOL   H25824840   5.639   5.293   5.354  1.2117  1.2088 -0.1088
   52MOL   H25924841   5.434   5.167   5.312  1.7261 -5.6840 -1.5268
   52MOL   H26024842   5.453   5.282   4.892  2.4695  0.4452 -0.6233
   52MOL   H26124843   5.681   5.368   4.940 -1.8993  1.1601 -1.0955
   52MOL   H26224844   5.082   5.002   5.254 -1.2976  0.0289  2.6965
   52MOL   H26324845   4.874   5.112   5.357  0.6565  2.0347  2.0292
   52MOL   H26424846   4.976   5.488   5.168 -0.9375 -1.3830 -0.5853
   52MOL   H26524847   5.195   5.386   5.088  0.7922  0.2612  0.9980
   52MOL   C26624848   4.687   5.419   5.087 -0.3246  0.0249  0.0384
   52MOL   C26724849   4.589   5.395   4.989 -0.7961 -0.1687 -0.1419
   52MOL   C26824850   4.508   5.281   4.999 -0.2608  0.1373 -0.3732
   52MOL   C26924851   4.520   5.197   5.114 -0.3965 -0.5179 -0.3124
   52MOL   C27024852   4.621   5.226   5.212  0.5512  0.5385 -0.0308
   52MOL   C27124853   4.708   5.338   5.195  0.1909  0.4197 -0.3495
   52MOL   S27224854   4.380   5.255   4.875  0.2548 -0.3728  0.3379
   52MOL   O27324855   4.300   5.377   4.861  0.0779  0.0052  0.1813
   52MOL   O27424856   4.315   5.128   4.905  0.0692  0.1026 -0.0239
   52MOL   C27524857   4.447   5.243   4.711 -0.6507 -0.2612  0.2396
   52MOL   C27624858   4.443   5.122   4.647 -0.4527 -0.6057  0.3858
   52MOL   C27724859   4.490   5.108   4.518 -0.0853 -0.2432  0.2159
   52MOL   C27824860   4.560   5.216   4.458  0.1326  0.1801  0.2483
   52MOL   C27924861   4.573   5.341   4.524  0.3775  0.3966 -0.3824
   52MOL   C28024862   4.516   5.350   4.655  0.5579 -0.1599 -0.8850
   52MOL   O28124863   4.601   5.215   4.332  0.7557  0.0765  1.2706
   52MOL   H28224864   4.744   5.510   5.079  0.8192 -0.6500  0.3803
   52MOL   H28324865   4.579   5.463   4.906  1.3689 -0.3390 -0.5775
   52MOL   H28424866   4.462   5.106   5.120 -1.5452  0.1582 -1.0278
   52MOL   H28524867   4.630   5.161   5.297 -1.2542  1.9041  1.2174
   52MOL   H28624868   4.393   5.031   4.677  1.8271 -1.8017  0.6450
   52MOL   H28724869   4.471   5.017   4.464 -1.2976 -0.6555  1.3170
   52MOL   H28824870   4.625   5.419   4.471  1.2735 -0.7116 -1.1729
   52MOL   H28924871   4.528   5.443   4.710 -0.0383  0.6365 -2.0889
   52MOL   C29024872   4.799   5.091   4.334  0.1979  0.0636 -0.3982
   52MOL   C29124873   4.881   4.981   4.287  0.4106  0.4955 -0.5729
   52MOL   C29224874   4.814   4.890   4.205 -0.2411  0.9180  0.2750
   52MOL   C29324875   4.686   4.912   4.152 -0.1952  0.4256  0.1356
   52MOL   C29424876   4.610   5.017   4.199 -1.0106 -1.5054 -0.3241
   52MOL   C29524877   4.667   5.102   4.291  0.0459 -0.0065 -0.2659
   52MOL   S29624878   4.900   4.745   4.158 -0.1574  0.5574 -0.3140
   52MOL   O29724879   4.802   4.655   4.090  0.2734 -1.0586  0.1883
   52MOL   O29824880   4.973   4.703   4.278  0.5471 -0.0164 -0.3934
   52MOL   C29924881   5.023   4.801   4.039 -0.0659 -0.0857  0.3980
   52MOL   C30024882   5.159   4.775   4.067 -0.2407  0.1955 -0.3363
   52MOL   C30124883   5.253   4.816   3.973  0.5670  0.4423  0.2775
   52MOL   C30224884   5.209   4.892   3.863 -0.2624  0.2355  0.5868
   52MOL   C30324885   5.077   4.923   3.841 -0.0708 -0.1404 -0.6176
   52MOL   C30424886   4.979   4.871   3.926  0.1528 -0.2649 -0.6195
   52MOL   O30524887   5.289   4.941   3.758 -0.7311  1.0551  0.0150
   52MOL   H30624888   4.850   5.164   4.394  0.8725 -0.9210  0.2381
   52MOL   H30724889   4.977   4.953   4.328 -1.2339 -0.6598  2.6318
   52MOL   H30824890   4.640   4.858   4.071 -1.9396 -0.5510  1.7323
   52MOL   H30924891   4.510   5.026   4.158 -0.5337  1.0222 -0.9659
   52MOL   H31024892   5.193   4.709   4.146  0.8494  0.1661 -0.8163
   52MOL   H31124893   5.357   4.786   3.980  0.4829  0.0286 -0.2365
   52MOL   H31224894   5.054   4.992   3.761  0.1321  1.5716  0.7613
   52MOL   H31324895   4.877   4.900   3.909  0.0919 -0.5879 -0.8129
   52MOL   C31424896   5.461   4.767   3.716 -0.5088  0.3729 -0.0102
   52MOL   C31524897   5.594   4.746   3.689 -0.4026 -0.9395 -0.3627
   52MOL   C31624898   5.693   4.843   3.720 -0.4957 -1.2724  0.6033
   52MOL   C31724899   5.660   4.968   3.778 -0.3450  0.7406  0.0840
   52MOL   C31824900   5.523   4.997   3.796 -0.0499 -0.0052 -0.2189
   52MOL   C31924901   5.425   4.902   3.749  0.2174 -0.4181 -0.4884
   52MOL   S32024902   5.866   4.803   3.686  0.2747  0.4025  0.2336
   52MOL   O32124903   5.942   4.928   3.673  0.4284  0.3468  0.0830
   52MOL   O32224904   5.863   4.704   3.572 -0.2271 -0.6436 -0.3340
   52MOL   C32324905   5.934   4.732   3.828 -0.3410 -0.6222 -0.0137
   52MOL   C32424906   6.007   4.610   3.822  0.0636  0.4675 -0.0516
   52MOL   C32524907   6.052   4.559   3.950 -0.1336  0.0504 -0.4478
   52MOL   C32624908   6.032   4.629   4.068 -0.0366 -0.3363 -0.3590
   52MOL   C32724909   5.963   4.752   4.066  0.0076  0.3929 -0.2090
   52MOL   C32824910   5.906   4.800   3.950  0.5093  1.2750  0.0546
   52MOL   O32924911   6.080   4.578   4.184  0.2877  0.3149  0.0153
   52MOL   H33024912   5.392   4.690   3.683 -0.1258  0.5974 -1.3799
   52MOL   H33124913   5.629   4.652   3.649  2.4275  0.2691 -0.8722
   52MOL   H33224914   5.740   5.040   3.791  1.5939 -1.1047 -1.2015
   52MOL   H33324915   5.504   5.097   3.832 -0.4885  0.0084 -0.4799
   52MOL   H33424916   6.011   4.546   3.735 -2.6642 -1.3575  1.1005
   52MOL   H33524917   6.093   4.459   3.945 -1.6457 -0.6082  0.0285
   52MOL   H33624918   5.967   4.817   4.152  0.0194  0.2154 -0.0776
   52MOL   H33724919   5.862   4.899   3.957 -2.2432  0.0829  0.4364
   52MOL   C33824920   6.147   4.738   4.343  0.2229  0.6030  0.5734
   52MOL   C33924921   6.247   4.800   4.415 -0.4244  0.0247  0.1351
   52MOL   C34024922   6.382   4.758   4.395  0.0439 -0.0450 -0.0564
   52MOL   C34124923   6.418   4.654   4.305 -0.8255 -0.2267 -0.0631
   52MOL   C34224924   6.312   4.593   4.233 -0.1321  0.7397 -0.2154
   52MOL   C34324925   6.183   4.636   4.251 -0.1086  0.4273 -0.2210
   52MOL   S34424926   6.514   4.815   4.511 -0.4483  0.1190  0.0144
   52MOL   O34524927   6.571   4.690   4.571  0.0317 -0.4535  0.4356
   52MOL   O34624928   6.447   4.902   4.608 -0.2371  0.1815 -0.6204
   52MOL   C34724929   6.634   4.910   4.419  0.2108 -0.2192  0.5780
   52MOL   C34824930   6.637   4.899   4.280 -0.4083 -0.2864  0.5774
   52MOL   C34924931   6.736   4.970   4.210 -0.1522  0.8182  0.4510
   52MOL   C35024932   6.826   5.056   4.272 -0.4723 -0.7608  0.2396
   52MOL   C35124933   6.818   5.066   4.410 -0.2552 -0.2486 -0.6737
   52MOL   C35224934   6.727   4.993   4.490 -0.4570  0.2747  0.2599
   52MOL   O35324935   6.922   5.126   4.202 -0.5750 -0.2606  0.2057
   52MOL   H35424936   6.046   4.772   4.359 -0.5342 -0.2152 -2.1925
   52MOL   H35524937   6.220   4.879   4.484 -0.4850 -0.4536  0.6680
   52MOL   H35624938   6.516   4.615   4.282  0.1457  2.7178 -1.1573
   52MOL   H35724939   6.338   4.515   4.163 -0.9470 -0.6452  0.9969
   52MOL   H35824940   6.567   4.834   4.229  2.7863 -1.1444 -3.0729
   52MOL   H35924941   6.746   4.957   4.103  1.1995  1.3668  0.4973
   52MOL   H36024942   6.893   5.119   4.467 -1.2922  1.1952 -0.6359
   52MOL   H36124943   6.715   4.993   4.597 -1.6461 -2.4360  0.1651
   52MOL   C36224944   7.144   5.091   4.275  0.0395  0.3522  0.6759
   52MOL   C36324945   7.274   5.038   4.265 -0.2276  0.2447  0.0428
   52MOL   C36424946   7.298   4.950   4.161 -0.6799  0.1077 -0.1961
   52MOL   C36524947   7.195   4.901   4.073  0.4128 -0.0744  0.5917
   52MOL   C36624948   7.066   4.956   4.084  0.0983  0.2897  0.8218
   52MOL   C36724949   7.043   5.055   4.186  0.2688 -0.2275 -0.3978
   52MOL   S36824950   7.476   4.923   4.130 -0.2711  0.1603  0.4785
   52MOL   O36924951   7.490   4.773   4.135  0.2542  0.0147 -0.2372
   52MOL   O37024952   7.555   5.019   4.208 -0.3181  0.3548  0.1091
   52MOL   C37124953   7.490   4.977   3.958 -0.2973 -0.3828 -0.4301
   52MOL   C37224954   7.568   4.894   3.878  0.6008 -0.2866 -0.6882
   52MOL   C37324955   7.587   4.936   3.744 -0.3490 -0.0370 -0.5204
   52MOL   C37424956   7.531   5.055   3.692 -0.2212  0.4466  0.0396
   52MOL   C37524957   7.454   5.131   3.785  0.0374 -0.3404 -0.4621
   52MOL   C37624958   7.428   5.095   3.916 -0.2102  0.2935  0.2206
   52MOL   O37724959   7.558   5.093   3.564  0.4771  0.5610  0.5899
   52MOL   H37824960   7.117   5.165   4.349 -4.2057 -2.3137  1.9831
   52MOL   H37924961   7.343   5.065   4.343  0.2247 -0.3598 -0.1451
   52MOL   H38024962   7.221   4.834   3.992 -1.8100 -0.2709 -0.0151
   52MOL   H38124963   6.988   4.926   4.016 -0.4879 -0.0036  1.6231
   52MOL   H38224964   7.613   4.803   3.915 -2.4617 -1.8829 -0.6959
   52MOL   H38324965   7.659   4.885   3.681  0.9295 -0.3266  1.1499
   52MOL   H38424966   7.408   5.219   3.743  0.1446 -0.9406 -1.8711
   52MOL   H38524967   7.377   5.161   3.985  1.1777  3.3038 -1.5350
   52MOL   C38624968   7.480   5.241   3.389  0.4960 -0.5003  0.9986
   52MOL   C38724969   7.378   5.282   3.300 -1.2797 -0.7129 -0.1510
   52MOL   C38824970   7.251   5.220   3.295 -0.0546 -0.3775 -0.0324
   52MOL   C38924971   7.229   5.110   3.381  0.3854  0.8489  0.8608
   52MOL   C39024972   7.333   5.066   3.469  0.1622 -0.2526 -0.2179
   52MOL   C39124973   7.460   5.128   3.476 -0.1909 -0.0494  0.6175
   52MOL   S39224974   7.102   5.288   3.227  0.3663 -0.1917  0.1059
   52MOL   O39324975   6.988   5.197   3.238  0.2219  0.1395  0.0431
   52MOL   O39424976   7.141   5.334   3.097 -0.0297 -0.5517  0.7171
   52MOL   C39524977   7.082   5.442   3.314  0.1995  0.9828 -0.1581
   52MOL   C39624978   7.134   5.451   3.450 -0.1833  0.2773  0.3321
   52MOL   C39724979   7.108   5.567   3.533  0.6531 -0.4000 -0.1568
   52MOL   C39824980   7.040   5.673   3.472  0.2592 -0.0307  0.4188
   52MOL   C39924981   6.987   5.668   3.341  0.2487 -0.9855 -0.2624
   52MOL   C40024982   7.013   5.556   3.262 -0.2273  0.2513  1.0653
   52MOL   O40124983   7.010   5.787   3.541  0.3655  0.5349 -0.6349
   52MOL   H40224984   7.575   5.292   3.390  1.0043 -1.4323  0.6847
   52MOL   H40324985   7.385   5.368   3.235  0.1000  0.5942  1.6871
   52MOL   H40424986   7.139   5.051   3.386  0.3076  0.7842 -0.9245
   52MOL   H40524987   7.326   4.978   3.532  1.2912  0.0873  0.3889
   52MOL   H40624988   7.181   5.365   3.495  0.7563  0.7255  0.2312
   52MOL   H40724989   7.153   5.575   3.631  1.7320  0.1095 -0.6826
   52MOL   H40824990   6.934   5.750   3.295 -1.1582 -0.9935  1.2918
   52MOL   H40924991   6.989   5.547   3.157  0.4041  3.7913  0.5428
   52MOL   C41024992   6.965   5.781   3.782  0.4247 -0.5285 -0.0804
   52MOL   C41124993   6.871   5.799   3.887 -0.1051 -0.2709  0.1654
   52MOL   C41224994   6.733   5.806   3.864  0.8444 -0.1870 -0.4837
   52MOL   C41324995   6.690   5.803   3.732 -0.1750  0.3595 -0.7514
   52MOL   C41424996   6.785   5.797   3.624 -0.5461 -0.7029  0.1336
   52MOL   C41524997   6.923   5.787   3.647  0.3562  0.2021  0.0457
   52MOL   S41624998   6.614   5.846   3.996  0.0576 -0.1512 -0.0501
   52MOL   O41724999   6.642   5.966   4.082 -0.4889 -0.1061  0.0498
   52MOL   O41825000   6.599   5.718   4.065  0.3710  0.2444  0.3268
   52MOL   C41925001   6.450   5.870   3.920 -0.2815  0.0735 -0.5020
   52MOL   C42025002   6.357   5.765   3.920  0.0115 -0.2200  0.0132
   52MOL   C42125003   6.235   5.780   3.849 -0.0918 -0.5728  0.7053
   52MOL   C42225004   6.214   5.903   3.774 -0.8302 -0.1225  1.0166
   52MOL   C42325005   6.310   6.009   3.779  0.2690  0.3691 -0.0589
   52MOL   C42425006   6.430   5.989   3.849 -0.2154  0.7182  0.0072
   52MOL   O42525007   6.104   5.920   3.686 -0.2385 -0.5232  0.5130
   52MOL   H42625008   7.069   5.768   3.807  0.8604 -1.7028 -2.3531
   52MOL   H42725009   6.910   5.796   3.988  0.7054  1.3742 -0.0759
   52MOL   H42825010   6.584   5.813   3.711 -0.6609  1.3550  1.9473
   52MOL   H42925011   6.744   5.808   3.525 -0.3692 -0.8819  0.0406
   52MOL   H43025012   6.380   5.680   3.981  0.8570  2.1508  3.1361
   52MOL   H43125013   6.155   5.707   3.853 -0.1242 -0.6905 -1.4766
   52MOL   H43225014   6.293   6.103   3.729 -0.3964  0.3898  0.1995
   52MOL   H43325015   6.503   6.069   3.853  2.1818 -1.4781  1.2830
   52MOL   C43425016   5.981   6.120   3.638  0.1371  0.5967  0.0228
   52MOL   C43525017   5.878   6.208   3.657 -0.4650  0.3889 -1.1330
   52MOL   C43625018   5.783   6.172   3.761 -0.4948 -0.1993  0.0457
   52MOL   C43725019   5.808   6.053   3.841 -0.3179 -0.0352  0.8304
   52MOL   C43825020   5.922   5.974   3.819  0.4410 -0.4955 -1.4897
   52MOL   C43925021   6.003   6.005   3.713 -0.6820  0.8776 -0.7802
   52MOL   S44025022   5.634   6.274   3.787  0.5315 -0.2083  0.3995
   52MOL   O44125023   5.688   6.411   3.808 -0.1722  0.0599 -0.3289
   52MOL   O44225024   5.553   6.203   3.891 -0.0137  0.3010 -0.2922
   52MOL   C44325025   5.540   6.283   3.636  0.0019  0.9480  0.5364
   52MOL   C44425026   5.476   6.165   3.589  0.1015  0.1453 -0.4121
   52MOL   C44525027   5.403   6.168   3.467 -1.1461  0.3810  0.1688
   52MOL   C44625028   5.403   6.287   3.396 -0.2941  0.5859 -0.2740
   52MOL   C44725029   5.474   6.404   3.434 -0.5509 -0.3700 -0.2702
   52MOL   C44825030   5.539   6.397   3.556  0.2145  0.9571  0.0367
   52MOL   O44925031   5.345   6.282   3.270  0.5317  0.4760  0.1494
   52MOL   H45025032   6.045   6.139   3.553  1.3411 -1.9136  0.3265
   52MOL   H45125033   5.866   6.294   3.592  0.3346  3.0041  2.0452
   52MOL   H45225034   5.737   6.025   3.917 -0.3263  1.3340  1.3276
   52MOL   H45325035   5.948   5.886   3.877 -2.0100 -0.6418 -0.5162
   52MOL   H45425036   5.468   6.082   3.657  0.5957 -0.9475 -1.6621
   52MOL   H45525037   5.336   6.093   3.429 -1.9413  0.3056  1.6933
   52MOL   H45625038   5.490   6.495   3.378 -2.1340  0.7323  1.0231
   52MOL   H45725039   5.584   6.487   3.596  1.1377 -1.3110  4.4732
   52MOL   C45825040   5.537   6.330   3.122  0.3459  0.1780 -0.5366
   52MOL   C45925041   5.606   6.293   3.004  0.5021 -0.8753  0.2817
   52MOL   C46025042   5.573   6.173   2.936  0.1357  0.0848  0.0659
   52MOL   C46125043   5.465   6.095   2.973  0.5163 -0.1038 -0.3065
   52MOL   C46225044   5.387   6.138   3.079  0.2757 -0.2437 -0.5149
   52MOL   C46325045   5.422   6.252   3.158  0.4508 -0.0122 -0.2096
   52MOL   S46425046   5.676   6.112   2.801 -0.1376 -0.2530 -0.2196
   52MOL   O46525047   5.635   5.978   2.754  0.1780  0.0701  0.2836
   52MOL   O46625048   5.813   6.130   2.843 -0.3828  0.1334 -0.4408
   52MOL   C46725049   5.657   6.220   2.648 -0.5885  0.4377 -0.0256
   52MOL   C46825050   5.660   6.161   2.520 -0.5084 -0.2327 -0.6555
   52MOL   C46925051   5.647   6.245   2.405  0.4970 -0.0205 -0.2871
   52MOL   C47025052   5.636   6.382   2.423  0.3260  0.0146 -1.0597
   52MOL   C47125053   5.644   6.439   2.551 -0.1456 -0.3219 -0.1421
   52MOL   C47225054   5.648   6.356   2.665 -0.5233 -0.3701  0.6230
   52MOL   O47325055   5.619   6.461   2.312 -0.4532 -0.1782  0.4076
   52MOL   H47425056   5.571   6.413   3.183 -0.2053 -0.4936  0.7021
   52MOL   H47525057   5.691   6.353   2.976 -2.0778  2.1026 -1.4423
   52MOL   H47625058   5.441   5.999   2.929  2.7882 -2.1333  2.6197
   52MOL   H47725059   5.301   6.082   3.111 -0.6280  2.1934  1.5327
   52MOL   H47825060   5.676   6.054   2.514  0.5021 -0.1937  1.1514
   52MOL   H47925061   5.623   6.198   2.310 -1.0434  1.3259 -0.5932
   52MOL   H48025062   5.634   6.545   2.567  2.6488  0.1650 -1.4544
   52MOL   H48125063   5.654   6.395   2.765 -1.9019 -0.4471  0.7521
   52MOL   H48225064   5.642   6.548   2.339  2.7812 -0.8372  0.0638
   53MOL     C125065   5.676   3.707   4.858  0.2872 -0.1841 -0.1349
   53MOL     C225066   5.664   3.583   4.917 -0.0134 -0.8082  0.0453
   53MOL     C325067   5.744   3.546   5.030 -0.5174  0.1709  0.8959
   53MOL     C425068   5.845   3.634   5.075  1.0147 -0.1896 -0.4229
   53MOL     C525069   5.850   3.763   5.015 -0.7971 -0.5388 -0.1495
   53MOL     C625070   5.770   3.801   4.903  0.2389  0.5201  0.2691
   53MOL     S725071   5.723   3.385   5.108 -0.3847 -0.2210 -0.0017
   53MOL     O825072   5.852   3.358   5.167 -0.0168 -0.1819  0.3697
   53MOL     O925073   5.658   3.295   5.015  0.0615  0.4750  0.5876
   53MOL    C1025074   5.610   3.414   5.249 -0.0350  0.5059  0.2464
   53MOL    C1125075   5.660   3.463   5.371  0.8640  0.5241  0.0042
   53MOL    C1225076   5.566   3.491   5.478 -0.2925 -0.3758  0.3326
   53MOL    C1325077   5.429   3.473   5.461 -0.3040 -0.0445 -0.0211
   53MOL    C1425078   5.379   3.442   5.333  0.5529 -0.5529  0.3224
   53MOL    C1525079   5.467   3.411   5.225  0.1464 -0.1957 -0.4932
   53MOL    O1625080   5.350   3.502   5.570 -0.4775 -0.2849  0.4032
   53MOL    H1725081   5.618   3.719   4.768  1.7598  0.1793 -1.0602
   53MOL    H1825082   5.599   3.512   4.868  1.0442 -0.3941 -2.0125
   53MOL    H1925083   5.906   3.613   5.161  0.8164  1.5863  0.1589
   53MOL    H2025084   5.917   3.839   5.052 -0.0663 -0.3317 -1.8410
   53MOL    H2125085   5.766   3.469   5.391  1.4830 -0.8231 -2.6058
   53MOL    H2225086   5.613   3.532   5.567 -1.5595 -0.5639  1.1029
   53MOL    H2325087   5.273   3.456   5.317  1.0405  1.3824 -1.4124
   53MOL    H2425088   5.429   3.388   5.127 -0.4387  1.1783 -0.5971
   53MOL    H2525089   5.790   3.891   4.848 -1.5447  0.1533 -1.0230
   53MOL    C2625090   5.281   3.732   5.577 -0.0993  0.3387  0.3437
   53MOL    C2725091   5.179   3.830   5.572 -0.9464  0.2347 -0.9721
   53MOL    C2825092   5.046   3.798   5.539 -0.0687  0.3504 -0.6180
   53MOL    C2925093   5.025   3.659   5.503  0.7752 -0.4742 -0.3287
   53MOL    C3025094   5.123   3.560   5.515 -0.2800  0.2794 -0.7264
   53MOL    C3125095   5.252   3.594   5.553 -0.3923 -0.5116  0.0320
   53MOL    S3225096   4.928   3.930   5.526  0.2444  0.1292 -0.0722
   53MOL    O3325097   4.891   3.934   5.384 -0.3240  0.0684 -0.6660
   53MOL    O3425098   4.983   4.048   5.598  0.4145  0.3485 -0.0862
   53MOL    C3525099   4.773   3.890   5.614 -0.1466  0.3959 -0.4642
   53MOL    C3625100   4.712   3.991   5.696  0.1968 -0.1182 -0.2148
   53MOL    C3725101   4.594   3.963   5.775 -0.4425 -0.4161 -0.5087
   53MOL    C3825102   4.528   3.839   5.753  0.6054  0.5374 -0.5613
   53MOL    C3925103   4.586   3.738   5.676 -0.1393 -0.4411 -0.2443
   53MOL    C4025104   4.708   3.762   5.614  0.3117  0.2194  0.0386
   53MOL    O4125105   4.396   3.805   5.796 -0.2640  0.0751 -0.2068
   53MOL    H4225106   5.382   3.767   5.595  1.0925 -2.6015 -0.2834
   53MOL    H4325107   5.207   3.930   5.603  0.2833  0.2946 -2.2602
   53MOL    H4425108   4.927   3.632   5.467  0.3996  1.0826 -0.5090
   53MOL    H4525109   5.100   3.457   5.491 -0.1897  0.1320 -0.1752
   53MOL    H4625110   4.757   4.088   5.713  0.8070 -0.0050 -2.2840
   53MOL    H4725111   4.554   4.035   5.845  0.0941 -0.2776 -0.3458
   53MOL    H4825112   4.525   3.650   5.663 -1.1471  0.2084  0.0153
   53MOL    H4925113   4.744   3.683   5.549  0.7919 -0.0674  0.6499
   53MOL    C5025114   4.410   3.831   6.035 -0.0634  0.1152 -0.8824
   53MOL    C5125115   4.346   3.879   6.151  0.2903 -0.1275  0.9720
   53MOL    C5225116   4.215   3.924   6.149 -0.1990 -0.5320 -0.3887
   53MOL    C5325117   4.151   3.940   6.026 -0.0654 -0.0733  0.4959
   53MOL    C5425118   4.217   3.897   5.905  0.2750  0.2498 -0.2481
   53MOL    C5525119   4.345   3.839   5.916  0.1273 -0.5408  0.5055
   53MOL    S5625120   4.144   3.979   6.302  0.3258  0.0403 -0.2997
   53MOL    O5725121   4.075   4.103   6.271  0.1388  0.7493 -0.2283
   53MOL    O5825122   4.250   3.970   6.405  0.8981  0.0729  0.4305
   53MOL    C5925123   4.019   3.857   6.357  0.3844 -0.8924 -0.5893
   53MOL    C6025124   3.937   3.795   6.263  0.9410  0.1040 -0.4855
   53MOL    C6125125   3.843   3.697   6.299  0.6012  0.0469 -0.4300
   53MOL    C6225126   3.827   3.666   6.441 -0.5237 -0.4488 -0.3719
   53MOL    C6325127   3.917   3.723   6.535  0.0424 -0.4000  0.7909
   53MOL    C6425128   4.004   3.824   6.495  0.1540 -0.1347  0.5872
   53MOL    O6525129   3.749   3.563   6.480  0.2578 -0.5516 -0.0979
   53MOL    H6625130   4.513   3.797   6.042  0.2735  1.3651  0.5112
   53MOL    H6725131   4.398   3.868   6.245  0.8781 -1.2501  0.5260
   53MOL    H6825132   4.053   3.984   6.021 -0.3619 -0.4966  2.4246
   53MOL    H6925133   4.167   3.916   5.811 -4.0929  1.6440  2.1819
   53MOL    H7025134   3.941   3.844   6.167  0.7687  0.3955 -0.3466
   53MOL    H7125135   3.767   3.654   6.236  0.2961 -0.9590  0.6097
   53MOL    H7225136   3.911   3.686   6.637  0.6686  3.0419  2.1684
   53MOL    H7325137   4.077   3.874   6.557  0.4721 -1.2527  1.1198
   53MOL    C7425138   3.846   3.404   6.627 -0.6126 -0.3800 -0.3264
   53MOL    C7525139   3.899   3.276   6.649 -0.9892  0.3897 -0.5168
   53MOL    C7625140   3.922   3.190   6.541 -0.0641  0.3254  0.0565
   53MOL    C7725141   3.882   3.230   6.412  0.3189  0.8491 -0.6680
   53MOL    C7825142   3.827   3.355   6.392 -0.2271  0.0762 -0.4946
   53MOL    C7925143   3.810   3.443   6.497  0.2501 -0.8109  0.2388
   53MOL    S8025144   4.007   3.026   6.567  0.3432 -0.0126 -0.1962
   53MOL    O8125145   3.926   2.963   6.674 -0.4425  0.4365 -0.0984
   53MOL    O8225146   4.152   3.058   6.577  0.0846 -0.0983  0.2436
   53MOL    C8325147   3.981   2.930   6.421 -0.6517 -0.6049  1.2379
   53MOL    C8425148   4.091   2.906   6.331  0.4949 -0.7351  0.0259
   53MOL    C8525149   4.066   2.843   6.205  0.0792  0.6656 -0.2182
   53MOL    C8625150   3.933   2.805   6.170 -0.2790 -0.1600  0.4058
   53MOL    C8725151   3.828   2.821   6.262 -0.2034  0.4469 -0.0013
   53MOL    C8825152   3.849   2.887   6.384  0.5842  0.1022 -0.5724
   53MOL    O8925153   3.911   2.753   6.046 -0.5834 -0.6411  0.3923
   53MOL    H9025154   3.837   3.470   6.712 -1.0573  0.4902 -1.0376
   53MOL    H9125155   3.928   3.244   6.748 -1.7181  0.8856 -0.1383
   53MOL    H9225156   3.882   3.154   6.336  0.3863 -1.3034  1.4047
   53MOL    H9325157   3.786   3.386   6.297 -0.3821  2.1001  0.2133
   53MOL    H9425158   4.189   2.943   6.358 -0.2801 -0.2029  2.2655
   53MOL    H9525159   4.150   2.835   6.138 -1.8214 -4.0489 -2.2734
   53MOL    H9625160   3.730   2.784   6.233  1.1650 -1.5228 -2.2911
   53MOL    H9725161   3.764   2.901   6.449  0.0752 -0.3641 -1.1368
   53MOL    C9825162   3.998   2.533   6.073 -0.1243  0.4474  0.4114
   53MOL    C9925163   4.083   2.437   6.021  0.4661  0.2325 -0.2658
   53MOL   C10025164   4.176   2.473   5.914  0.4897  0.8121  0.4230
   53MOL   C10125165   4.177   2.595   5.848 -0.6294  0.1346  0.0957
   53MOL   C10225166   4.084   2.698   5.902  0.5523 -0.1683 -0.7271
   53MOL   C10325167   3.997   2.657   6.006  0.2573  0.3125 -0.1141
   53MOL   S10425168   4.300   2.358   5.863  0.0479 -0.1880 -0.4063
   53MOL   O10525169   4.250   2.292   5.743  0.0878  0.1523  0.6205
   53MOL   O10625170   4.336   2.280   5.980 -0.2644  0.0349  0.2631
   53MOL   C10725171   4.439   2.461   5.805 -0.3337 -0.5791 -0.1503
   53MOL   C10825172   4.534   2.503   5.896 -0.0178 -0.2905 -0.1845
   53MOL   C10925173   4.652   2.566   5.847  0.3368 -0.1260 -0.5441
   53MOL   C11025174   4.682   2.558   5.709  0.4080  0.3940  0.2081
   53MOL   C11125175   4.582   2.512   5.620 -0.5641  0.0366 -0.1600
   53MOL   C11225176   4.457   2.473   5.667  0.2105  0.4916 -0.1321
   53MOL   O11325177   4.806   2.587   5.652 -0.8432 -0.0352  0.4756
   53MOL   H11425178   3.939   2.519   6.163  1.1109 -0.1759  1.1348
   53MOL   H11525179   4.102   2.341   6.067  3.3529  0.5303 -0.7199
   53MOL   H11625180   4.227   2.615   5.754  0.9348  0.7076  1.0305
   53MOL   H11725181   4.060   2.787   5.845  1.7826 -0.6519 -2.0263
   53MOL   H11825182   4.501   2.502   5.999  1.1750  0.1900  0.2072
   53MOL   H11925183   4.722   2.604   5.921 -1.9153  1.4824  0.8044
   53MOL   H12025184   4.594   2.513   5.512 -0.2671 -1.4268 -0.1464
   53MOL   H12125185   4.377   2.440   5.603  0.8427 -0.8380 -0.2598
   53MOL   C12225186   4.915   2.784   5.750 -0.7151 -0.5765  0.2097
   53MOL   C12325187   4.983   2.905   5.720  0.5897 -0.0759  0.2143
   53MOL   C12425188   4.995   2.954   5.587  0.4411  0.1027  0.5185
   53MOL   C12525189   4.927   2.886   5.482 -0.7121  0.2911  0.3708
   53MOL   C12625190   4.849   2.771   5.508  0.9842 -0.9842  0.0470
   53MOL   C12725191   4.851   2.715   5.642  0.4717  0.0840  0.6750
   53MOL   S12825192   5.087   3.104   5.566  0.3893 -0.0744 -0.1781
   53MOL   O12925193   5.178   3.120   5.683  0.3984 -0.6677 -0.4070
   53MOL   O13025194   4.993   3.209   5.528  0.5736  0.5737 -0.0222
   53MOL   C13125195   5.191   3.079   5.428  0.0734 -0.3965 -0.2393
   53MOL   C13225196   5.328   3.040   5.442 -0.5777 -0.4221 -0.0508
   53MOL   C13325197   5.411   3.048   5.326 -1.1744  0.1010 -0.4032
   53MOL   C13425198   5.360   3.075   5.198  0.0953  0.8179 -0.7338
   53MOL   C13525199   5.223   3.097   5.183  0.0968 -0.1143  0.5496
   53MOL   C13625200   5.140   3.101   5.296 -0.1765 -0.6106  0.4057
   53MOL   O13725201   5.443   3.056   5.090  0.7736 -0.8121  0.5978
   53MOL   H13825202   4.907   2.766   5.856  2.6260 -0.5601  0.5215
   53MOL   H13925203   5.022   2.957   5.806  0.6219  0.6472 -0.2380
   53MOL   H14025204   4.929   2.914   5.378  0.0954 -0.1904  0.2491
   53MOL   H14125205   4.793   2.720   5.431 -1.0302  0.9866  0.1336
   53MOL   H14225206   5.362   3.017   5.542  1.0579 -1.9453 -0.9347
   53MOL   H14325207   5.519   3.039   5.329 -1.1656 -0.5647 -2.0127
   53MOL   H14425208   5.174   3.124   5.091 -0.1557  2.4965  1.4226
   53MOL   H14525209   5.038   3.133   5.280  0.5585  2.1974  1.1445
   53MOL   C14625210   5.624   2.903   5.085  0.4467  0.6226 -0.3793
   53MOL   C14725211   5.671   2.770   5.062  0.1497 -0.4070 -0.3581
   53MOL   C14825212   5.580   2.670   5.027 -0.4658  1.0242  0.0895
   53MOL   C14925213   5.445   2.701   5.002 -0.2218 -0.5954  0.1676
   53MOL   C15025214   5.400   2.833   5.023 -0.4561  0.3811 -0.3603
   53MOL   C15125215   5.486   2.933   5.071 -0.4036 -0.7380 -0.1153
   53MOL   S15225216   5.645   2.501   5.002  0.0585 -0.2734  0.1520
   53MOL   O15325217   5.788   2.505   4.964  0.1026 -0.7990  0.5113
   53MOL   O15425218   5.553   2.414   4.929  0.5542  0.0712  0.1106
   53MOL   C15525219   5.642   2.437   5.171 -0.9499  0.5550 -0.0503
   53MOL   C15625220   5.524   2.381   5.222 -0.2757  0.6060 -0.3936
   53MOL   C15725221   5.520   2.355   5.360  0.3574 -0.7066  0.4096
   53MOL   C15825222   5.625   2.400   5.450  0.3330  0.2581  0.1601
   53MOL   C15925223   5.742   2.452   5.391  0.0009 -0.6845  0.8928
   53MOL   C16025224   5.754   2.467   5.254 -0.0365  0.5096  0.4871
   53MOL   O16125225   5.615   2.365   5.584 -0.2552 -0.3985 -0.0526
   53MOL   H16225226   5.701   2.977   5.103 -0.6434  1.1238  2.5427
   53MOL   H16325227   5.773   2.736   5.076 -0.0665 -0.5996  0.7944
   53MOL   H16425228   5.380   2.626   4.959 -2.2737  1.1686  0.1257
   53MOL   H16525229   5.294   2.849   5.013 -1.1677 -2.2475  2.1970
   53MOL   H16625230   5.441   2.354   5.158 -2.2524  0.9118  1.9532
   53MOL   H16725231   5.428   2.306   5.388 -0.6673 -0.6153 -2.6533
   53MOL   H16825232   5.828   2.465   5.454  1.4952  0.4375 -1.3079
   53MOL   H16925233   5.835   2.521   5.206  0.2476  0.9826  1.4946
   53MOL   C17025234   5.835   2.312   5.667 -0.3872 -0.6090  0.0128
   53MOL   C17125235   5.953   2.351   5.739 -0.4891  0.0496  0.5637
   53MOL   C17225236   5.948   2.453   5.829  0.0143 -0.5370  0.2176
   53MOL   C17325237   5.830   2.528   5.837 -0.1817  0.0299  0.0653
   53MOL   C17425238   5.713   2.496   5.763  0.7641  0.0754 -0.3726
   53MOL   C17525239   5.719   2.390   5.671 -0.5645  0.0220 -0.1801
   53MOL   S17625240   6.088   2.490   5.929  0.5529 -0.2717  0.2743
   53MOL   O17725241   6.111   2.629   5.902 -0.0787 -0.5591 -0.3643
   53MOL   O17825242   6.205   2.404   5.896  0.3241  0.0145 -0.1723
   53MOL   C17925243   6.042   2.475   6.111 -0.0557 -1.5771 -0.3381
   53MOL   C18025244   6.121   2.395   6.192 -0.4821 -0.3749  0.4207
   53MOL   C18125245   6.102   2.388   6.334  0.4865 -0.1410 -0.1800
   53MOL   C18225246   6.005   2.469   6.397 -0.0712  0.3919  0.0656
   53MOL   C18325247   5.922   2.550   6.313  0.1537 -0.4576  0.3951
   53MOL   C18425248   5.947   2.551   6.176  0.9459 -0.1781 -0.9080
   53MOL   O18525249   5.976   2.472   6.531  0.0572  0.0118  0.4164
   53MOL   H18625250   5.854   2.237   5.592 -1.1404  0.5150 -1.3399
   53MOL   H18725251   6.041   2.290   5.728 -0.3080  0.4048  0.0193
   53MOL   H18825252   5.827   2.608   5.910 -0.8596 -0.4439  0.5690
   53MOL   H18925253   5.618   2.547   5.773  1.0789  0.7423 -0.7470
   53MOL   H19025254   6.202   2.341   6.145  0.0554  0.3300  0.5258
   53MOL   H19125255   6.164   2.321   6.393 -0.1362 -1.6135 -1.1814
   53MOL   H19225256   5.850   2.621   6.353 -0.8190 -0.0302 -2.0338
   53MOL   H19325257   5.885   2.618   6.118  0.1843  0.8619  1.0800
   53MOL   C19425258   6.173   2.496   6.668  0.0242  0.0457 -0.5661
   53MOL   C19525259   6.262   2.580   6.746  0.1288 -0.1372  0.2791
   53MOL   C19625260   6.228   2.715   6.765  0.2593 -0.6965  0.9881
   53MOL   C19725261   6.097   2.763   6.722 -0.2178  0.1405 -0.5592
   53MOL   C19825262   6.012   2.681   6.648  0.8357  0.4590 -0.0751
   53MOL   C19925263   6.054   2.549   6.618  0.1139 -0.5656  0.6416
   53MOL   S20025264   6.326   2.829   6.858 -0.1070  0.0649 -0.8647
   53MOL   O20125265   6.294   2.968   6.815 -0.2108 -0.1946 -1.0633
   53MOL   O20225266   6.465   2.779   6.842  0.3709  0.0526 -0.4866
   53MOL   C20325267   6.271   2.807   7.025 -0.3742 -0.1204  0.0161
   53MOL   C20425268   6.346   2.753   7.131 -0.3750  0.0476 -0.5420
   53MOL   C20525269   6.297   2.765   7.268 -0.3105 -0.1874  0.4119
   53MOL   C20625270   6.165   2.803   7.290 -0.2498  0.1783 -0.0466
   53MOL   C20725271   6.092   2.864   7.187 -0.2666 -0.3055 -0.1369
   53MOL   C20825272   6.145   2.866   7.055  0.2919 -0.2366  0.0007
   53MOL   O20925273   6.121   2.798   7.416 -0.3818  0.1877  0.6328
   53MOL   H21025274   6.193   2.392   6.644 -0.5014 -0.4689  1.1517
   53MOL   H21125275   6.352   2.540   6.790 -1.0071  0.8859  3.7196
   53MOL   H21225276   6.068   2.863   6.750 -0.8987 -0.2928  0.3107
   53MOL   H21325277   5.916   2.713   6.609  1.0158  0.9215 -0.1369
   53MOL   H21425278   6.435   2.697   7.105 -0.1145  0.0456  0.3419
   53MOL   H21525279   6.354   2.720   7.348  2.7324  0.7891 -1.1555
   53MOL   H21625280   6.000   2.919   7.198  0.5406  0.8208  1.1840
   53MOL   H21725281   6.097   2.930   6.982 -1.9689 -3.7036 -1.6523
   53MOL   C21825282   5.902   2.782   7.488  0.6800  0.6773 -0.4083
   53MOL   C21925283   5.777   2.718   7.503 -0.3198 -0.5530 -0.1575
   53MOL   C22025284   5.769   2.578   7.480 -0.2570 -0.2670  0.9308
   53MOL   C22125285   5.884   2.514   7.426  0.7022  0.5390  0.6769
   53MOL   C22225286   6.006   2.581   7.411  0.3002 -0.0928 -0.1054
   53MOL   C22325287   6.010   2.720   7.432 -0.2089  0.0126  0.1201
   53MOL   S22425288   5.611   2.500   7.501  0.2334 -0.4517  0.0455
   53MOL   O22525289   5.514   2.594   7.441 -0.4194  0.4775 -0.3305
   53MOL   O22625290   5.592   2.457   7.642  0.2790 -0.1022  0.5819
   53MOL   C22725291   5.613   2.347   7.412  0.7819  0.8242  0.1182
   53MOL   C22825292   5.524   2.330   7.300  0.2229  0.4456 -0.1814
   53MOL   C22925293   5.515   2.198   7.245 -0.5272  0.1651 -0.2053
   53MOL   C23025294   5.584   2.087   7.302  0.0132  0.0483 -0.1519
   53MOL   C23125295   5.667   2.108   7.415  0.3039  0.3481  0.4681
   53MOL   C23225296   5.675   2.236   7.469 -0.3012 -0.2748  0.0440
   53MOL   O23325297   5.578   1.962   7.236  0.1655 -0.2365  0.2193
   53MOL   H23425298   5.900   2.887   7.512  1.1635  0.0768  2.4728
   53MOL   H23525299   5.691   2.771   7.541  0.0813  0.8399 -1.1523
   53MOL   H23625300   5.882   2.414   7.387  2.6032  1.4385 -1.8585
   53MOL   H23725301   6.091   2.529   7.368 -0.1965 -0.1560 -1.0163
   53MOL   H23825302   5.468   2.418   7.272  3.1977  2.6698  0.6247
   53MOL   H23925303   5.445   2.173   7.167  0.0579 -1.9373 -0.0875
   53MOL   H24025304   5.730   2.035   7.465 -1.9452 -2.0901 -0.1901
   53MOL   H24125305   5.728   2.250   7.562  0.4646 -1.2291 -0.2433
   53MOL   C24225306   5.387   1.887   7.114 -0.9417  0.7158  0.2313
   53MOL   C24325307   5.277   1.801   7.099  0.8691  0.0693 -0.0856
   53MOL   C24425308   5.242   1.719   7.209 -1.0196  0.4216 -0.0090
   53MOL   C24525309   5.307   1.733   7.332  0.6798  0.8018 -0.0458
   53MOL   C24625310   5.420   1.820   7.343  0.4788  0.0470  0.9209
   53MOL   C24725311   5.458   1.896   7.231 -0.0018 -0.2898 -0.1394
   53MOL   S24825312   5.091   1.619   7.198 -0.3807  0.0812 -0.0730
   53MOL   O24925313   5.085   1.529   7.315  0.0107 -0.2808  0.1340
   53MOL   O25025314   5.105   1.553   7.064 -0.2204 -0.4661 -0.2038
   53MOL   C25125315   4.953   1.732   7.192  0.1156 -0.1119 -0.6052
   53MOL   C25225316   4.929   1.817   7.079 -0.1371  0.2638 -0.0465
   53MOL   C25325317   4.811   1.899   7.083 -0.5143  0.3312 -0.0071
   53MOL   C25425318   4.727   1.904   7.196 -0.2937 -0.1570  0.3943
   53MOL   C25525319   4.756   1.824   7.308 -0.6997  0.4717  0.1975
   53MOL   C25625320   4.867   1.738   7.301  0.2652 -0.3639 -0.5073
   53MOL   O25725321   4.612   1.973   7.191  0.2122 -0.0933  0.4479
   53MOL   H25825322   5.420   1.940   7.025 -0.1652  0.9713  0.6734
   53MOL   H25925323   5.219   1.796   7.008 -0.7977  3.3646  0.7090
   53MOL   H26025324   5.289   1.663   7.412  1.3903 -0.5862 -1.0849
   53MOL   H26125325   5.477   1.822   7.435 -0.8383  0.5095  1.7318
   53MOL   H26225326   4.999   1.810   6.996 -0.4262  2.4826 -0.4858
   53MOL   H26325327   4.785   1.957   6.996 -0.5028 -0.8178 -0.7904
   53MOL   H26425328   4.689   1.815   7.392 -1.2178 -1.8778 -0.4396
   53MOL   H26525329   4.873   1.680   7.393 -0.7732 -1.5986 -1.2073
   53MOL   C26625330   4.688   2.196   7.127  0.2561  0.9483  0.0017
   53MOL   C26725331   4.682   2.336   7.144 -0.1517 -0.3179 -0.0632
   53MOL   C26825332   4.594   2.390   7.237  0.1787  1.2693 -0.6942
   53MOL   C26925333   4.506   2.310   7.306  0.3899  0.2843  0.1923
   53MOL   C27025334   4.508   2.168   7.287  0.3433 -0.8127  0.3688
   53MOL   C27125335   4.604   2.109   7.199 -0.1375 -0.7999  0.5645
   53MOL   S27225336   4.614   2.562   7.278 -0.5974  0.0605  0.0590
   53MOL   O27325337   4.754   2.612   7.272  0.2875 -0.5525  0.1239
   53MOL   O27425338   4.549   2.595   7.402  0.1230  0.3697 -0.0201
   53MOL   C27525339   4.527   2.661   7.154  0.0168  0.5137  0.1678
   53MOL   C27625340   4.575   2.674   7.020  0.5251 -0.1975 -1.1085
   53MOL   C27725341   4.501   2.745   6.921  0.0653  0.2771 -0.1352
   53MOL   C27825342   4.376   2.806   6.953 -0.4293  0.6788 -0.6122
   53MOL   C27925343   4.330   2.794   7.088  0.6167  0.6192  0.6075
   53MOL   C28025344   4.412   2.733   7.189  0.1673  0.1977  0.7199
   53MOL   O28125345   4.301   2.864   6.850  0.5338  0.0119 -0.3165
   53MOL   H28225346   4.766   2.154   7.066  0.1577  0.4155  0.2440
   53MOL   H28325347   4.762   2.398   7.106  0.5607 -0.6457  0.8836
   53MOL   H28425348   4.434   2.349   7.377 -0.7060 -1.0345 -0.1682
   53MOL   H28525349   4.439   2.109   7.347  0.6750 -2.3169 -0.7006
   53MOL   H28625350   4.668   2.627   6.992  0.3758 -0.9793 -0.3308
   53MOL   H28725351   4.539   2.753   6.820  0.3167  2.5873  0.1105
   53MOL   H28825352   4.237   2.842   7.115  2.0480  3.9319 -0.1591
   53MOL   H28925353   4.379   2.734   7.292 -0.8634 -2.0981  0.4606
   53MOL   C29025354   4.336   2.835   6.610  0.1424 -0.5228 -0.0315
   53MOL   C29125355   4.346   2.755   6.496 -0.7350  0.1620  0.4726
   53MOL   C29225356   4.307   2.623   6.512  0.3557  0.6334 -0.3533
   53MOL   C29325357   4.246   2.576   6.630 -0.1375 -0.0510  0.9847
   53MOL   C29425358   4.230   2.654   6.748 -0.5786  0.5675 -0.7714
   53MOL   C29525359   4.284   2.785   6.737 -0.6055  0.0831 -0.2220
   53MOL   S29625360   4.336   2.519   6.368 -0.5225  0.2513  0.1370
   53MOL   O29725361   4.465   2.452   6.394 -0.0001 -0.3549 -0.1332
   53MOL   O29825362   4.310   2.588   6.245  0.1014 -0.4699 -0.1444
   53MOL   C29925363   4.217   2.382   6.378  0.4497  0.8905 -0.9345
   53MOL   C30025364   4.085   2.405   6.404  0.4633 -0.6589 -0.4157
   53MOL   C30125365   3.997   2.297   6.428  0.1155 -0.4018 -0.5043
   53MOL   C30225366   4.043   2.165   6.405 -0.1922  0.5279 -0.2993
   53MOL   C30325367   4.172   2.143   6.356 -0.0137  0.2722  0.9095
   53MOL   C30425368   4.266   2.248   6.355 -1.0762  0.0740 -0.1011
   53MOL   O30525369   3.956   2.062   6.411 -1.0811  0.3089 -0.0142
   53MOL   H30625370   4.384   2.932   6.608  2.6186 -1.7183 -1.1639
   53MOL   H30725371   4.390   2.797   6.407 -0.6929 -0.5428  0.1616
   53MOL   H30825372   4.216   2.472   6.642 -1.1786  0.1426  0.1269
   53MOL   H30925373   4.205   2.610   6.843  2.1224 -0.0614 -0.3136
   53MOL   H31025374   4.052   2.505   6.425 -2.3827 -1.6746  0.1233
   53MOL   H31125375   3.896   2.316   6.459  0.1188 -1.5632  0.2199
   53MOL   H31225376   4.205   2.042   6.335  1.8044  0.2332  3.6919
   53MOL   H31325377   4.370   2.229   6.332 -0.5127  1.5927  1.0941
   53MOL   C31425378   3.979   1.838   6.482  0.0667  0.2652  0.2608
   53MOL   C31525379   3.984   1.750   6.592  0.3461 -0.1158  0.2046
   53MOL   C31625380   3.981   1.788   6.725 -0.2716 -0.6071  0.3257
   53MOL   C31725381   3.971   1.927   6.754 -0.6756 -0.1765 -1.2453
   53MOL   C31825382   3.959   2.022   6.650 -0.3598  0.3769  0.1659
   53MOL   C31925383   3.964   1.975   6.517 -0.6004 -0.1132  0.3708
   53MOL   S32025384   3.986   1.668   6.859  0.2762  0.2560 -0.3828
   53MOL   O32125385   3.969   1.737   6.992  0.3095 -0.2964 -0.0625
   53MOL   O32225386   4.098   1.581   6.834  0.4070 -0.5425  0.4310
   53MOL   C32325387   3.846   1.563   6.837 -0.4058  0.1239  0.3768
   53MOL   C32425388   3.724   1.608   6.787 -0.5520  0.5038  0.5201
   53MOL   C32525389   3.614   1.525   6.785 -0.1251  0.6601 -0.1250
   53MOL   C32625390   3.624   1.392   6.819  0.0205  0.5499 -0.0879
   53MOL   C32725391   3.748   1.339   6.856 -0.3734 -0.8482  0.4414
   53MOL   C32825392   3.863   1.424   6.861 -0.3380 -0.4433 -0.3173
   53MOL   O32925393   3.514   1.312   6.817  0.1619 -0.0970 -0.2111
   53MOL   H33025394   3.985   1.812   6.377 -0.3665  1.7915 -0.1582
   53MOL   H33125395   4.011   1.647   6.575 -0.6594 -0.4733  0.7210
   53MOL   H33225396   3.971   1.946   6.860 -4.4697 -2.4940 -0.7164
   53MOL   H33325397   3.955   2.127   6.674  0.8176  0.2610  0.8810
   53MOL   H33425398   3.719   1.713   6.761  0.0131 -0.0875 -2.1303
   53MOL   H33525399   3.516   1.566   6.766 -1.9162 -2.3685  2.2160
   53MOL   H33625400   3.752   1.235   6.887 -0.7555 -0.7101  0.9541
   53MOL   H33725401   3.959   1.379   6.884  0.5209  0.9904 -0.9923
   53MOL   C33825402   3.329   1.400   6.935 -0.1932  0.6606  0.0125
   53MOL   C33925403   3.240   1.398   7.047 -0.3195  0.0338  0.2580
   53MOL   C34025404   3.279   1.301   7.150 -1.3268 -0.9467 -0.0785
   53MOL   C34125405   3.387   1.215   7.142 -0.6126  0.5724  0.9040
   53MOL   C34225406   3.464   1.217   7.026  0.6953 -0.0504  0.8763
   53MOL   C34325407   3.438   1.310   6.926  0.0857  0.3971 -0.0157
   53MOL   S34425408   3.192   1.296   7.303  0.5181 -0.1952  0.0218
   53MOL   O34525409   3.262   1.198   7.383 -0.1900 -0.9308  0.2160
   53MOL   O34625410   3.049   1.272   7.278 -0.4254 -0.2378 -0.2832
   53MOL   C34725411   3.207   1.453   7.390 -0.2289 -0.4179  0.3108
   53MOL   C34825412   3.227   1.575   7.328 -0.3124  0.4108 -0.4884
   53MOL   C34925413   3.221   1.692   7.400 -0.7359  0.0409  0.8486
   53MOL   C35025414   3.199   1.693   7.540  0.0732 -0.7583 -1.1904
   53MOL   C35125415   3.180   1.568   7.608 -0.2980 -0.1794 -0.3234
   53MOL   C35225416   3.188   1.452   7.531 -0.2462 -0.3033  0.9075
   53MOL   O35325417   3.186   1.811   7.611  0.6895  0.2965  0.0078
   53MOL   H35425418   3.317   1.470   6.853 -1.7447 -0.2111 -0.5123
   53MOL   H35525419   3.152   1.460   7.057 -1.3271 -1.1508 -1.2374
   53MOL   H35625420   3.404   1.137   7.215  1.3337 -1.8886 -2.0300
   53MOL   H35725421   3.537   1.139   7.015  1.1105  0.4005  0.4291
   53MOL   H35825422   3.245   1.591   7.223 -1.0800  3.3569 -0.2324
   53MOL   H35925423   3.223   1.786   7.347  0.0192 -0.6203 -0.3102
   53MOL   H36025424   3.147   1.557   7.710 -0.5115  0.6278 -0.2954
   53MOL   H36125425   3.175   1.356   7.579 -0.2365 -0.2253  1.0654
   53MOL   C36225426   3.229   2.005   7.481  0.2804 -0.1738  0.4615
   53MOL   C36325427   3.313   2.107   7.440 -0.6647 -0.1836  0.3269
   53MOL   C36425428   3.442   2.115   7.507 -0.3542  0.2189  0.2911
   53MOL   C36525429   3.492   2.016   7.595 -0.3367 -0.1037  0.1395
   53MOL   C36625430   3.408   1.904   7.613 -0.1319  0.2764 -0.6491
   53MOL   C36725431   3.272   1.909   7.570  0.3386 -1.0135 -0.3897
   53MOL   S36825432   3.542   2.261   7.460 -0.1249  0.0473 -0.2228
   53MOL   O36925433   3.526   2.283   7.311  0.3452 -0.2360 -0.0586
   53MOL   O37025434   3.674   2.242   7.523  0.1340  0.1106  0.4511
   53MOL   C37125435   3.474   2.414   7.535 -0.1474  0.0608 -1.1582
   53MOL   C37225436   3.333   2.439   7.532 -0.2811  0.2909  0.3174
   53MOL   C37325437   3.289   2.549   7.603 -0.1754  0.0551  0.8653
   53MOL   C37425438   3.381   2.637   7.669 -0.2466 -0.0542 -0.9554
   53MOL   C37525439   3.521   2.623   7.662 -0.0279  0.1759  0.4919
   53MOL   C37625440   3.567   2.511   7.590 -0.3690 -0.5962 -0.0317
   53MOL   O37725441   3.335   2.746   7.741 -0.0080  0.5822 -0.4140
   53MOL   H37825442   3.128   1.989   7.444  0.5606  0.4817 -0.6183
   53MOL   H37925443   3.278   2.173   7.363  2.3058  0.8259 -0.2113
   53MOL   H38025444   3.593   2.027   7.631 -0.1454  0.5409 -0.5836
   53MOL   H38125445   3.445   1.827   7.679  2.2487  2.2992  0.4813
   53MOL   H38225446   3.269   2.366   7.486  0.7232  1.2212 -2.7391
   53MOL   H38325447   3.184   2.568   7.614 -0.3745  0.7513 -2.0507
   53MOL   H38425448   3.596   2.694   7.694  0.7952 -0.1112 -0.7737
   53MOL   H38525449   3.674   2.500   7.580 -0.4338 -1.4649  0.1758
   53MOL   C38625450   3.375   2.841   7.956 -0.0857  0.2969 -1.0998
   53MOL   C38725451   3.369   2.843   8.095 -0.2814  0.3798  0.0321
   53MOL   C38825452   3.301   2.735   8.160 -0.4180  1.0468  0.8090
   53MOL   C38925453   3.242   2.635   8.089  0.2328 -0.2420  0.0509
   53MOL   C39025454   3.262   2.631   7.945  0.3188 -0.2696  0.4522
   53MOL   C39125455   3.326   2.734   7.882  0.6588 -0.4626 -0.2536
   53MOL   S39225456   3.266   2.745   8.335  0.5474  0.0360  0.0070
   53MOL   O39325457   3.331   2.866   8.391 -0.0663 -0.6941 -0.0498
   53MOL   O39425458   3.298   2.610   8.390  0.5380 -0.2395 -0.1976
   53MOL   C39525459   3.091   2.760   8.335 -0.0655  0.0885 -0.2265
   53MOL   C39625460   3.005   2.658   8.373 -0.0740 -0.0535  0.0278
   53MOL   C39725461   2.869   2.687   8.387  0.4764 -0.6273  0.3082
   53MOL   C39825462   2.821   2.817   8.351  1.0104 -0.0414 -0.4542
   53MOL   C39925463   2.908   2.918   8.323 -0.1676  0.1245  0.0135
   53MOL   C40025464   3.042   2.889   8.321  0.4548  0.2684  0.0106
   53MOL   O40125465   2.683   2.843   8.335 -0.2711 -0.2057 -1.0704
   53MOL   H40225466   3.417   2.930   7.912  1.6161 -0.1447 -0.3946
   53MOL   H40325467   3.399   2.932   8.149  0.7663 -0.3013  0.5757
   53MOL   H40425468   3.185   2.560   8.140  2.6798 -0.3737  2.7075
   53MOL   H40525469   3.222   2.549   7.887  0.7793  0.0358 -0.3097
   53MOL   H40625470   3.057   2.567   8.399 -0.5944 -0.1900  0.5979
   53MOL   H40725471   2.792   2.615   8.411  0.6405  0.0083  2.8309
   53MOL   H40825472   2.874   3.017   8.297 -1.2254 -0.0480  0.7288
   53MOL   H40925473   3.113   2.966   8.297  0.5364  0.0883 -0.3298
   53MOL   C41025474   2.669   2.713   8.128  0.7269 -0.6503 -0.1914
   53MOL   C41125475   2.586   2.651   8.032  0.3527  0.3737  0.3221
   53MOL   C41225476   2.446   2.657   8.051  0.1319  0.2309  0.3265
   53MOL   C41325477   2.384   2.733   8.156  0.2403 -0.2034  0.3720
   53MOL   C41425478   2.465   2.799   8.249 -0.3229 -0.2220 -0.0385
   53MOL   C41525479   2.606   2.781   8.239 -0.2808  0.3385 -0.1417
   53MOL   S41625480   2.339   2.548   7.952 -0.4210  0.1871  0.1696
   53MOL   O41725481   2.276   2.453   8.047 -0.1733 -0.2096 -0.1325
   53MOL   O41825482   2.424   2.495   7.845 -0.2509  0.4298  0.0677
   53MOL   C41925483   2.209   2.654   7.888  0.3313  0.2691  0.2737
   53MOL   C42025484   2.074   2.636   7.918 -0.0992  0.1960  0.6668
   53MOL   C42125485   1.974   2.695   7.833 -0.2011 -1.0548 -0.0721
   53MOL   C42225486   2.011   2.778   7.724  0.1692  0.3819  0.0451
   53MOL   C42325487   2.145   2.810   7.706 -0.1258  0.1113 -0.3428
   53MOL   C42425488   2.247   2.749   7.790 -0.0861  0.2375  0.0962
   53MOL   O42525489   1.916   2.836   7.636  0.1676 -0.6568  0.3294
   53MOL   H42625490   2.776   2.697   8.122  0.5844 -0.5843 -4.0305
   53MOL   H42725491   2.630   2.600   7.948  1.0435 -2.9537  2.6307
   53MOL   H42825492   2.277   2.725   8.165  0.1722 -2.6512 -1.9085
   53MOL   H42925493   2.416   2.847   8.332 -1.8094 -2.2457  0.2801
   53MOL   H43025494   2.054   2.554   7.984 -0.5798  1.3258  1.9430
   53MOL   H43125495   1.869   2.674   7.850 -0.8826 -0.4600 -3.2036
   53MOL   H43225496   2.157   2.877   7.622  0.2140  1.2715  0.6130
   53MOL   H43325497   2.351   2.764   7.765 -0.2049 -0.6475 -0.9988
   53MOL   C43425498   1.873   2.645   7.496 -0.4195  0.7478  0.5464
   53MOL   C43525499   1.789   2.577   7.405 -0.7113 -0.6410 -0.1415
   53MOL   C43625500   1.655   2.622   7.386  0.0935  0.1408  0.7117
   53MOL   C43725501   1.611   2.733   7.465  0.6776  0.6827 -0.8511
   53MOL   C43825502   1.702   2.800   7.543 -0.9639 -0.6117  0.5587
   53MOL   C43925503   1.831   2.756   7.568 -0.2231  0.6632  0.5771
   53MOL   S44025504   1.548   2.536   7.275 -0.0744  0.2587 -0.4452
   53MOL   O44125505   1.467   2.446   7.362  0.0346  0.8149 -0.5078
   53MOL   O44225506   1.625   2.486   7.165 -0.4322  0.2805  0.2376
   53MOL   C44325507   1.436   2.654   7.211 -0.6615 -0.3697  0.4260
   53MOL   C44425508   1.487   2.785   7.185 -0.3627 -0.7876 -0.2702
   53MOL   C44525509   1.410   2.875   7.109  0.4692  0.6138 -0.6645
   53MOL   C44625510   1.284   2.835   7.056  0.8669  0.2315 -0.5793
   53MOL   C44725511   1.231   2.709   7.097 -0.5251  0.0195 -0.3917
   53MOL   C44825512   1.306   2.618   7.172  0.1345  0.5988 -0.5521
   53MOL   O44925513   1.216   2.924   6.980  0.7987  0.1188  0.4458
   53MOL   H45025514   1.976   2.614   7.501 -0.5792 -0.7493 -3.3213
   53MOL   H45125515   1.832   2.497   7.347  0.7638  0.1756 -0.2060
   53MOL   H45225516   1.511   2.772   7.460  1.1613  2.0553  0.0479
   53MOL   H45325517   1.669   2.896   7.582  1.4781  0.1509  0.8397
   53MOL   H45425518   1.591   2.797   7.211  0.4279 -1.2448 -3.0767
   53MOL   H45525519   1.451   2.972   7.084 -0.8890  1.2260 -0.5513
   53MOL   H45625520   1.133   2.673   7.070 -0.3769 -0.2381 -0.5800
   53MOL   H45725521   1.270   2.521   7.205  0.5373  1.6827  3.2574
   53MOL   C45825522   1.058   3.053   7.110 -0.0756 -0.1318 -0.0484
   53MOL   C45925523   0.924   3.085   7.142 -0.0064  0.8057 -1.1965
   53MOL   C46025524   0.820   3.005   7.091  0.5372  0.6936 -0.0145
   53MOL   C46125525   0.852   2.899   7.005  0.5330 -0.4963  0.1642
   53MOL   C46225526   0.981   2.881   6.949  0.2820 -0.1112  0.2950
   53MOL   C46325527   1.084   2.952   7.013 -0.0287 -0.2646  0.7509
   53MOL   S46425528   0.654   3.048   7.143 -0.0294  0.1746  0.0767
   53MOL   O46525529   0.558   2.987   7.050  0.1126 -0.3045 -0.0938
   53MOL   O46625530   0.648   3.193   7.152 -0.2831 -0.5240  0.2805
   53MOL   C46725531   0.631   2.974   7.300  0.3031 -0.2575 -0.5718
   53MOL   C46825532   0.566   3.050   7.400 -0.7220  0.6164  0.0292
   53MOL   C46925533   0.556   2.989   7.530 -0.3881  0.4563  0.2346
   53MOL   C47025534   0.602   2.858   7.553 -0.0944  0.2118  0.2084
   53MOL   C47125535   0.652   2.785   7.448  0.3076 -0.4357 -0.1250
   53MOL   C47225536   0.669   2.838   7.316 -0.4790 -0.1405 -0.2237
   53MOL   O47325537   0.581   2.796   7.671  0.7796 -0.0866 -0.3251
   53MOL   H47425538   1.134   3.115   7.155  1.7385 -2.3410  0.0158
   53MOL   H47525539   0.896   3.166   7.207 -1.1470  1.3662 -2.3626
   53MOL   H47625540   0.765   2.854   6.959 -0.6574  0.7756  1.1408
   53MOL   H47725541   1.004   2.810   6.871  4.1140 -0.8228  1.9595
   53MOL   H47825542   0.543   3.154   7.379  0.9401  0.5970 -2.0815
   53MOL   H47925543   0.517   3.043   7.614 -0.4383  1.8884 -0.6915
   53MOL   H48025544   0.688   2.685   7.462 -0.8582 -0.7402  0.6991
   53MOL   H48125545   0.715   2.776   7.241  1.1409  0.0374  0.6077
   53MOL   H48225546   0.617   2.709   7.678 -2.0202 -1.2369  0.5069
   54MOL     C125547   7.740   1.666   0.587  0.5391  0.3520 -0.4921
   54MOL     C225548   7.831   1.628   0.692 -0.3572  0.2706  0.0345
   54MOL     C325549   7.786   1.627   0.827 -0.1016  0.3784  0.3694
   54MOL     C425550   7.650   1.648   0.851 -0.1388  0.4893  0.0635
   54MOL     C525551   7.561   1.690   0.752  0.3027  0.7596 -0.2909
   54MOL     C625552   7.608   1.708   0.622 -0.4675  0.4029 -0.2179
   54MOL     S725553   7.891   1.588   0.974  0.0099  0.5235  0.5148
   54MOL     O825554   8.012   1.518   0.922  0.0069  0.2849  0.1815
   54MOL     O925555   7.810   1.522   1.077  0.3264 -0.5450  0.1010
   54MOL    C1025556   7.949   1.746   1.032  0.4870 -0.8256  0.2506
   54MOL    C1125557   8.045   1.753   1.131 -0.7230 -0.3547 -1.0574
   54MOL    C1225558   8.091   1.879   1.184  0.5772 -0.4210 -0.2370
   54MOL    C1325559   8.050   1.997   1.116  0.0559  0.3572 -0.2685
   54MOL    C1425560   7.963   1.990   1.009 -0.2302 -0.1256 -0.6530
   54MOL    C1525561   7.911   1.868   0.966  0.3848 -0.2995 -0.2667
   54MOL    O1625562   8.088   2.119   1.170  0.5641  0.4131 -0.1699
   54MOL    H1725563   7.775   1.670   0.485  0.1548 -0.7902 -0.6744
   54MOL    H1825564   7.934   1.602   0.676 -0.8747 -1.1375 -1.1414
   54MOL    H1925565   7.620   1.644   0.954 -0.6440  0.3535 -0.0851
   54MOL    H2025566   7.464   1.725   0.786 -0.3212 -0.4766 -0.7713
   54MOL    H2125567   8.075   1.664   1.184  1.0559  1.5692  1.2501
   54MOL    H2225568   8.159   1.888   1.267  0.5059 -0.2229 -0.2026
   54MOL    H2325569   7.940   2.082   0.958  0.3049 -0.0296 -0.7271
   54MOL    H2425570   7.843   1.873   0.883 -1.1115  1.2397  1.0070
   54MOL    H2525571   7.535   1.736   0.547  0.3405  1.3674 -0.6594
   54MOL    C2625572   8.322   2.184   1.184 -0.1783  0.0044 -2.2341
   54MOL    C2725573   0.017   2.251   1.136  0.5836 -0.3268 -1.2048
   54MOL    C2825574   0.009   2.314   1.013 -0.4083  0.4433  0.4349
   54MOL    C2925575   8.312   2.322   0.942 -0.0963 -0.6166 -0.4082
   54MOL    C3025576   8.194   2.270   1.002 -0.3153  0.2673 -0.0487
   54MOL    C3125577   8.200   2.191   1.115 -0.1299  0.0086 -0.2900
   54MOL    S3225578   0.155   2.383   0.935  0.4332  0.1033 -0.1389
   54MOL    O3325579   0.168   2.311   0.804 -0.0168  0.1991  0.1523
   54MOL    O3425580   0.266   2.368   1.031 -0.7019  0.7130  0.7753
   54MOL    C3525581   0.138   2.558   0.905  0.2886 -0.4302  0.0151
   54MOL    C3625582   0.084   2.636   1.006 -0.2372  0.1247  0.2659
   54MOL    C3725583   0.089   2.772   0.986 -0.4648  0.6976  0.1048
   54MOL    C3825584   0.143   2.833   0.868 -0.6547  0.0945 -0.7200
   54MOL    C3925585   0.193   2.753   0.769 -0.7168  0.0367 -0.7062
   54MOL    C4025586   0.184   2.614   0.786 -0.4327  0.0619 -0.0136
   54MOL    O4125587   0.160   2.970   0.858  0.6177 -0.0826 -0.3391
   54MOL    H4225588   8.305   2.135   1.278  0.4091  1.3063 -1.4403
   54MOL    H4325589   0.113   2.241   1.185 -0.7414 -2.3901  1.0864
   54MOL    H4425590   8.298   2.375   0.849 -1.1914 -0.8029 -0.3609
   54MOL    H4525591   8.100   2.276   0.949 -1.2571  0.6268  1.6158
   54MOL    H4625592   0.049   2.589   1.098 -1.4768  0.7428  0.1159
   54MOL    H4725593   0.051   2.836   1.065 -2.2830 -1.4853  1.0690
   54MOL    H4825594   0.236   2.796   0.680 -2.2581  2.9490 -0.1087
   54MOL    H4925595   0.228   2.551   0.710  0.6980  0.4757  0.2999
   54MOL    C5025596   0.173   3.147   0.703 -0.1469  0.7641  0.2731
   54MOL    C5125597   0.125   3.239   0.620 -0.5446  0.6584  0.5530
   54MOL    C5225598   8.414   3.235   0.588 -0.5723 -0.1255  0.6673
   54MOL    C5325599   8.333   3.123   0.630 -0.5486 -0.3379 -0.1476
   54MOL    C5425600   8.383   3.030   0.724 -0.0359 -0.5351 -0.0768
   54MOL    C5525601   0.096   3.044   0.762  0.1133  0.0089  0.2437
   54MOL    S5625602   8.360   3.349   0.464 -0.2511  0.1549  0.1243
   54MOL    O5725603   8.306   3.271   0.352 -0.0974  0.1385  0.0822
   54MOL    O5825604   0.033   3.456   0.441 -0.0205  0.4489  0.4802
   54MOL    C5925605   8.223   3.445   0.532 -0.5647 -0.2568 -0.6421
   54MOL    C6025606   8.210   3.470   0.675 -0.3119  0.1860 -0.1086
   54MOL    C6125607   8.113   3.561   0.717  0.1839  0.7976  0.1550
   54MOL    C6225608   8.018   3.607   0.628 -0.5998 -0.0376  0.3277
   54MOL    C6325609   8.022   3.567   0.487  0.1141 -0.4729  0.2882
   54MOL    C6425610   8.125   3.483   0.442 -0.1054 -0.1716 -0.4228
   54MOL    O6525611   7.928   3.707   0.666 -0.1390  0.0378  0.0444
   54MOL    H6625612   0.279   3.148   0.727 -0.3223 -0.7446  1.1718
   54MOL    H6725613   0.184   3.306   0.559 -1.3332  1.9699  1.2020
   54MOL    H6825614   8.232   3.112   0.591 -0.0123 -0.3605 -1.5736
   54MOL    H6925615   8.328   2.942   0.755  0.3065 -1.4484 -2.0269
   54MOL    H7025616   8.283   3.422   0.739 -0.5864  1.5539  1.2708
   54MOL    H7125617   8.108   3.591   0.821 -0.1476  0.1855  0.3169
   54MOL    H7225618   7.952   3.602   0.413 -1.4226 -0.1523  1.8490
   54MOL    H7325619   8.127   3.448   0.340  2.9999  0.7445 -0.7472
   54MOL    C7425620   7.925   3.875   0.835  0.7248  0.4344 -0.4216
   54MOL    C7525621   7.973   3.994   0.895 -0.1731  0.9449 -0.2560
   54MOL    C7625622   8.078   4.062   0.834  0.1382  0.1295 -0.6499
   54MOL    C7725623   8.139   4.011   0.712  0.3498  0.3326 -0.0267
   54MOL    C7825624   8.084   3.895   0.653 -0.3052  0.2622 -0.1373
   54MOL    C7925625   7.980   3.821   0.716  0.3311 -0.7809 -0.1115
   54MOL    S8025626   8.125   4.227   0.893  0.0471  0.2039 -0.1539
   54MOL    O8125627   8.212   4.303   0.806 -0.7493  0.4135  0.1162
   54MOL    O8225628   8.162   4.226   1.035  0.3126  0.9391  0.4276
   54MOL    C8325629   7.964   4.310   0.892  0.2022 -0.7432  0.4106
   54MOL    C8425630   7.869   4.293   0.993  0.4261 -0.2685 -0.0474
   54MOL    C8525631   7.747   4.359   0.986 -0.2550 -1.1735 -0.3088
   54MOL    C8625632   7.712   4.436   0.871  0.2826  0.2506 -0.2325
   54MOL    C8725633   7.803   4.444   0.764 -0.1234 -0.0678 -0.0306
   54MOL    C8825634   7.930   4.381   0.773 -0.0401  0.0189  0.2923
   54MOL    O8925635   7.602   4.512   0.878  0.0946 -0.2661  0.4698
   54MOL    H9025636   7.846   3.819   0.884  0.7391  0.5250 -0.2952
   54MOL    H9125637   7.937   4.029   0.991 -0.4236 -0.7214  0.2696
   54MOL    H9225638   8.214   4.069   0.661  1.4164 -2.5641 -1.8394
   54MOL    H9325639   8.135   3.866   0.562  1.4826  3.1030 -0.1290
   54MOL    H9425640   7.893   4.233   1.079 -0.4351 -0.7425 -0.1332
   54MOL    H9525641   7.680   4.342   1.068  0.0711  0.2797  0.2617
   54MOL    H9625642   7.771   4.504   0.680 -1.3588 -1.8444 -0.8556
   54MOL    H9725643   7.998   4.384   0.690 -1.0374 -0.7843 -0.5677
   54MOL    C9825644   7.445   4.370   0.733 -0.0476  0.3384 -0.3108
   54MOL    C9925645   7.337   4.365   0.637 -0.3228 -0.2548  0.0678
   54MOL   C10025646   7.293   4.489   0.587  0.2903 -0.0578 -0.4022
   54MOL   C10125647   7.350   4.614   0.628  0.5408 -0.0803 -0.1593
   54MOL   C10225648   7.458   4.614   0.722 -0.0731  1.0329  0.4987
   54MOL   C10325649   7.509   4.496   0.774  0.2512 -0.5074  0.1993
   54MOL   S10425650   7.175   4.499   0.453 -0.3546  0.2517  0.2895
   54MOL   O10525651   7.204   4.380   0.372 -0.1417  0.1991  0.5660
   54MOL   O10625652   7.177   4.637   0.399 -0.0701 -0.4303 -0.1336
   54MOL   C10725653   7.007   4.467   0.507  0.0524 -0.3286 -0.0970
   54MOL   C10825654   6.985   4.404   0.628 -0.3669  0.4159  0.1173
   54MOL   C10925655   6.850   4.370   0.662 -0.1504  0.3671  0.1286
   54MOL   C11025656   6.745   4.402   0.580  0.1814 -0.5532  0.2136
   54MOL   C11125657   6.775   4.468   0.457  0.0141  0.0074  0.3701
   54MOL   C11225658   6.906   4.497   0.424 -0.0681 -0.1910 -0.2726
   54MOL   O11325659   6.615   4.388   0.623 -0.2427  0.5905  0.1633
   54MOL   H11425660   7.472   4.272   0.768  0.5876  0.5270 -0.2705
   54MOL   H11525661   7.290   4.271   0.613 -0.5129 -0.0120 -0.5233
   54MOL   H11625662   7.329   4.711   0.586 -1.2029  1.1237  3.3622
   54MOL   H11725663   7.504   4.706   0.755  0.3791  0.8404  0.4180
   54MOL   H11825664   7.069   4.379   0.690  3.0351  2.1996 -3.5648
   54MOL   H11925665   6.817   4.318   0.751  0.6161  0.3850  0.4264
   54MOL   H12025666   6.692   4.482   0.389  1.1930 -1.2910 -1.3675
   54MOL   H12125667   6.930   4.535   0.325  2.1795  0.5335  0.5170
   54MOL   C12225668   6.497   4.196   0.535  0.1086 -0.0385 -0.9464
   54MOL   C12325669   6.406   4.144   0.440 -0.4900  0.3645  0.2746
   54MOL   C12425670   6.330   4.231   0.358  0.7366  0.2994  0.2946
   54MOL   C12525671   6.339   4.376   0.375 -0.0752 -0.4824 -0.0483
   54MOL   C12625672   6.436   4.428   0.464  0.1479  0.4613 -0.1728
   54MOL   C12725673   6.516   4.339   0.541 -0.1541 -0.7628 -0.0908
   54MOL   S12825674   6.230   4.161   0.226  0.2519  0.0987 -0.0179
   54MOL   O12925675   6.152   4.268   0.159  0.2868 -0.3026  0.1306
   54MOL   O13025676   6.151   4.047   0.272  0.2552  0.1044 -0.3457
   54MOL   C13125677   6.342   4.098   0.093  0.4492 -0.5060  0.1039
   54MOL   C13225678   6.294   4.078   8.390  0.3688 -0.1630  0.8115
   54MOL   C13325679   6.370   4.017   8.290 -0.1668 -0.0981 -0.2196
   54MOL   C13425680   6.503   3.972   8.327 -0.7280  0.5466 -0.5473
   54MOL   C13525681   6.551   4.003   0.027 -0.5582 -0.4968  0.3373
   54MOL   C13625682   6.473   4.053   0.123 -0.5648 -0.7658 -0.3037
   54MOL   O13725683   6.587   3.914   8.235  0.0119 -0.0702 -0.3115
   54MOL   H13825684   6.554   4.126   0.595 -1.3814 -0.0943  0.4489
   54MOL   H13925685   6.403   4.037   0.427  0.9844  0.3093  0.2499
   54MOL   H14025686   6.275   4.440   0.317  1.1908  0.2574 -0.6501
   54MOL   H14125687   6.449   4.535   0.470 -0.9079  0.6146 -0.3921
   54MOL   H14225688   6.194   4.111   8.363 -0.0562 -1.1688  1.1574
   54MOL   H14325689   6.338   4.008   8.187 -1.3067 -0.1319  0.1293
   54MOL   H14425690   6.649   3.982   0.066 -0.0399 -1.3518 -1.3439
   54MOL   H14525691   6.512   4.059   0.223 -1.2518  0.2425 -0.0896
   54MOL   C14625692   6.603   4.037   8.024  0.0781 -0.7471  0.2330
   54MOL   C14725693   6.689   4.108   7.936 -0.6479  0.1942 -0.1124
   54MOL   C14825694   6.828   4.132   7.971 -0.2136 -0.0028 -0.6308
   54MOL   C14925695   6.875   4.086   8.098 -0.0233  0.1682  0.3368
   54MOL   C15025696   6.787   4.020   8.183  0.2303  0.2590 -0.3271
   54MOL   C15125697   6.654   3.999   8.149  0.0960 -0.1616  0.3921
   54MOL   S15225698   6.927   4.239   7.860 -0.0718 -0.4444  0.1283
   54MOL   O15325699   6.834   4.328   7.783 -0.3537 -0.2075  0.1018
   54MOL   O15425700   7.019   4.150   7.783  0.6270 -0.3158 -0.3708
   54MOL   C15525701   7.032   4.345   7.962  0.2656 -0.1254 -0.8503
   54MOL   C15625702   6.977   4.458   8.021  0.1560  0.7339  0.5049
   54MOL   C15725703   7.063   4.546   8.085 -0.4108  0.3109  0.4382
   54MOL   C15825704   7.200   4.515   8.099  0.1025  0.2893  0.4022
   54MOL   C15925705   7.258   4.397   8.040  0.3385  0.2932 -0.3601
   54MOL   C16025706   7.170   4.313   7.973 -0.3059 -0.0116  0.2788
   54MOL   O16125707   7.278   4.597   8.172  0.0102  0.1281 -0.8573
   54MOL   H16225708   6.500   4.017   8.001  0.5210 -1.7956 -0.9189
   54MOL   H16325709   6.652   4.142   7.840  0.7377 -0.8551 -1.0347
   54MOL   H16425710   6.980   4.088   8.123  0.6723 -2.6520 -2.0349
   54MOL   H16525711   6.836   3.986   8.274 -0.6907 -1.0058 -0.2953
   54MOL   H16625712   6.872   4.481   8.020  0.2779  1.5005  2.8883
   54MOL   H16725713   7.023   4.627   8.145 -0.1320  0.5546  0.2914
   54MOL   H16825714   7.362   4.370   8.049  0.1767 -1.4424 -3.1638
   54MOL   H16925715   7.196   4.214   7.939 -0.1171  0.7240 -1.8132
   54MOL   C17025716   7.412   4.757   8.047  0.0873  0.6281  0.5244
   54MOL   C17125717   7.448   4.891   8.033  0.0643 -0.2257 -0.3084
   54MOL   C17225718   7.359   4.996   8.071 -1.0279 -0.4094 -0.3477
   54MOL   C17325719   7.236   4.959   8.128 -0.0830 -0.6946  0.4581
   54MOL   C17425720   7.197   4.828   8.153  0.2846  0.0858  0.4364
   54MOL   C17525721   7.293   4.724   8.124  0.1513 -0.0012  0.7823
   54MOL   S17625722   7.406   5.171   8.056  0.0716 -0.0179  0.2304
   54MOL   O17725723   7.553   5.168   8.041  0.2809 -0.7204  0.4914
   54MOL   O17825724   7.343   5.243   8.166  0.7070  0.0154  0.5806
   54MOL   C17925725   7.340   5.231   7.905 -0.8058  0.1814 -0.0599
   54MOL   C18025726   7.350   5.373   7.869  0.5166 -0.2919 -0.6521
   54MOL   C18125727   7.306   5.419   7.742  0.1460  0.1151 -0.4915
   54MOL   C18225728   7.253   5.327   7.647  0.3932 -0.2482 -0.2119
   54MOL   C18325729   7.251   5.190   7.684  0.5672 -0.7590 -0.3999
   54MOL   C18425730   7.281   5.146   7.811 -0.1100 -0.0094 -0.3510
   54MOL   O18525731   7.192   5.369   7.527  0.2288 -0.6799 -0.5388
   54MOL   H18625732   7.490   4.686   8.022 -0.9760 -0.8193  1.2137
   54MOL   H18725733   7.547   4.912   7.997 -0.6407  0.9153 -1.6198
   54MOL   H18825734   7.173   5.040   8.161 -0.8736 -0.4019 -1.6862
   54MOL   H18925735   7.108   4.807   8.209  1.2756 -1.1219  1.5728
   54MOL   H19025736   7.371   5.444   7.948 -0.7559  1.3387 -1.7584
   54MOL   H19125737   7.305   5.525   7.726 -0.1609  0.5013  1.8458
   54MOL   H19225738   7.204   5.124   7.613 -0.8005  1.3724 -1.5358
   54MOL   H19325739   7.288   5.039   7.826  1.7102 -0.0694 -1.5180
   54MOL   C19425740   7.186   5.337   7.299 -0.7441  0.1167  0.1920
   54MOL   C19525741   7.247   5.312   7.180 -0.7069  0.0221 -0.2762
   54MOL   C19625742   7.388   5.311   7.171 -0.9992  0.2060  0.8033
   54MOL   C19725743   7.467   5.320   7.287  0.7113 -0.3236  0.2084
   54MOL   C19825744   7.404   5.341   7.411  0.6907  0.2873  0.1492
   54MOL   C19925745   7.264   5.347   7.415 -0.5871 -0.3003 -0.1495
   54MOL   S20025746   7.471   5.272   7.010 -0.2329 -0.2272  0.3494
   54MOL   O20125747   7.598   5.207   7.049  0.1078  0.1291 -0.0957
   54MOL   O20225748   7.476   5.396   6.932  0.3431 -0.4074 -0.0661
   54MOL   C20325749   7.366   5.159   6.923 -0.2050 -0.7404 -0.4188
   54MOL   C20425750   7.360   5.025   6.954  0.1558  0.2417 -0.6449
   54MOL   C20525751   7.261   4.946   6.898  0.1457 -0.3273  0.2293
   54MOL   C20625752   7.164   4.999   6.804 -0.0993 -0.7718  0.1321
   54MOL   C20725753   7.174   5.132   6.766  0.1261 -0.0350 -0.1996
   54MOL   C20825754   7.275   5.216   6.826 -0.0428 -0.5400 -0.0300
   54MOL   O20925755   7.058   4.923   6.768  0.1551 -0.2283  0.2640
   54MOL   H21025756   7.080   5.349   7.315 -0.8780 -1.1311  0.2780
   54MOL   H21125757   7.196   5.285   7.088  0.0282  0.5151 -0.8385
   54MOL   H21225758   7.574   5.317   7.271  0.8674  1.6256  0.7932
   54MOL   H21325759   7.468   5.350   7.497 -0.4081  2.0593  0.7963
   54MOL   H21425760   7.421   4.994   7.038 -1.8367 -2.0639 -0.0041
   54MOL   H21525761   7.262   4.844   6.933 -1.9017 -0.0128  1.2522
   54MOL   H21625762   7.105   5.166   6.689  0.4342 -0.2675 -0.5828
   54MOL   H21725763   7.281   5.320   6.795  3.5306 -0.6106  0.2268
   54MOL   C21825764   7.088   4.687   6.749 -0.7290 -0.5864  0.2283
   54MOL   C21925765   7.124   4.575   6.672  1.5210  0.1183 -0.2042
   54MOL   C22025766   7.134   4.581   6.532  0.0562  0.1758 -0.4634
   54MOL   C22125767   7.124   4.707   6.465  0.3003 -0.3124 -0.6575
   54MOL   C22225768   7.101   4.825   6.542  0.2727 -0.0167  0.0105
   54MOL   C22325769   7.086   4.813   6.684  0.2774  0.8356  0.3950
   54MOL   S22425770   7.155   4.436   6.432 -0.2946 -0.0230  0.0796
   54MOL   O22525771   7.257   4.362   6.500 -0.0785  0.5759 -0.0502
   54MOL   O22625772   7.175   4.475   6.293 -0.0885 -0.6038  0.1666
   54MOL   C22725773   6.995   4.355   6.441  0.6686  0.1686  0.0995
   54MOL   C22825774   6.871   4.429   6.444 -0.3569 -0.3459  0.1477
   54MOL   C22925775   6.749   4.361   6.437  0.0998 -0.2185 -0.0632
   54MOL   C23025776   6.745   4.222   6.438 -0.2890  0.5363 -0.3765
   54MOL   C23125777   6.868   4.147   6.439  0.2128 -0.4937 -0.3099
   54MOL   C23225778   6.991   4.213   6.440  0.0397  0.6480  0.5062
   54MOL   O23325779   6.630   4.152   6.451  1.0257 -0.5596  0.1169
   54MOL   H23425780   7.060   4.680   6.853 -0.0157  0.6012  0.5178
   54MOL   H23525781   7.147   4.486   6.729 -0.4845  0.4139  1.0966
   54MOL   H23625782   7.139   4.717   6.359 -0.3742 -1.2078 -0.8415
   54MOL   H23725783   7.101   4.930   6.519 -0.4700 -0.6315 -3.0063
   54MOL   H23825784   6.868   4.536   6.456 -0.1281 -0.1573 -1.4576
   54MOL   H23925785   6.655   4.412   6.445  0.6873  1.4664 -3.0687
   54MOL   H24025786   6.865   4.039   6.444  0.5378 -0.5806 -2.0213
   54MOL   H24125787   7.078   4.150   6.448 -1.2746 -1.3004 -0.2550
   54MOL   C24225788   6.400   4.213   6.505  0.1191  0.4074  0.2753
   54MOL   C24325789   6.314   4.238   6.612  0.1047 -0.6186 -0.3467
   54MOL   C24425790   6.352   4.241   6.750  0.2235 -0.4391 -0.0454
   54MOL   C24525791   6.492   4.226   6.779 -0.6159  0.0893  0.0841
   54MOL   C24625792   6.580   4.202   6.676 -0.6601 -0.7081 -0.4903
   54MOL   C24725793   6.535   4.187   6.541 -0.0496 -0.3159  0.2939
   54MOL   S24825794   6.240   4.290   6.877 -0.2262  0.2972  0.1902
   54MOL   O24925795   6.107   4.241   6.830 -0.0253 -0.5750 -0.5412
   54MOL   O25025796   6.258   4.433   6.898  0.0285  0.2368  0.2639
   54MOL   C25125797   6.279   4.211   7.032 -0.3419 -0.3834  0.0423
   54MOL   C25225798   6.305   4.286   7.150  0.1697  0.3379 -0.5198
   54MOL   C25325799   6.344   4.212   7.268  0.1736 -0.4693 -0.1547
   54MOL   C25425800   6.364   4.072   7.262 -0.4649 -0.1436 -0.0090
   54MOL   C25525801   6.345   4.000   7.142 -0.1273 -0.4035  0.6177
   54MOL   C25625802   6.298   4.076   7.026 -0.3751  0.4433 -0.1624
   54MOL   O25725803   6.415   4.006   7.369  0.3233 -0.4612  0.2004
   54MOL   H25825804   6.369   4.198   6.403  0.3884  2.0469 -0.0650
   54MOL   H25925805   6.211   4.255   6.584  0.4640  1.3074 -0.5590
   54MOL   H26025806   6.527   4.247   6.879  0.0350 -0.1868 -0.0865
   54MOL   H26125807   6.683   4.186   6.701 -0.8026 -1.6960 -0.5413
   54MOL   H26225808   6.299   4.393   7.149  1.2592  0.4068 -1.6245
   54MOL   H26325809   6.354   4.265   7.362  1.0817  0.8368 -0.9633
   54MOL   H26425810   6.350   3.892   7.130 -3.7844 -1.0335  3.7198
   54MOL   H26525811   6.263   4.022   6.940  2.0512  0.0885 -0.9725
   54MOL   C26625812   6.274   3.954   7.552 -0.3620  0.3291 -0.1975
   54MOL   C26725813   6.189   3.865   7.620  0.1503 -0.6461  0.5278
   54MOL   C26825814   6.181   3.729   7.579  1.1186  0.1130 -1.0612
   54MOL   C26925815   6.267   3.687   7.473  0.6851  0.5556  0.1788
   54MOL   C27025816   6.339   3.776   7.401 -0.0128 -0.8978  0.6426
   54MOL   C27125817   6.340   3.916   7.435  0.9393 -0.1448  1.1341
   54MOL   S27225818   6.069   3.606   7.649 -0.0212  0.0401 -0.2822
   54MOL   O27325819   5.964   3.678   7.726 -0.0223  0.2048 -0.8400
   54MOL   O27425820   6.148   3.503   7.720 -0.7800  0.3665 -0.4790
   54MOL   C27525821   5.987   3.532   7.507 -0.6668  0.3168  0.0719
   54MOL   C27625822   6.027   3.400   7.456 -0.2985  0.3144  0.6030
   54MOL   C27725823   5.972   3.353   7.336 -0.1748 -0.6123 -0.5859
   54MOL   C27825824   5.871   3.428   7.279  0.9167 -0.4303 -0.5441
   54MOL   C27925825   5.828   3.558   7.331  0.1777 -0.2450 -0.2040
   54MOL   C28025826   5.883   3.604   7.445  0.4532  1.2722 -0.6341
   54MOL   O28125827   5.797   3.378   7.173 -0.6448  0.1290 -0.1384
   54MOL   H28225828   6.280   4.055   7.590 -2.2462  1.3879 -2.5485
   54MOL   H28325829   6.120   3.895   7.698  0.5420 -3.9691  2.2567
   54MOL   H28425830   6.273   3.582   7.446  1.4967  0.5037  0.5686
   54MOL   H28525831   6.387   3.739   7.312  0.0327  0.2703  0.1719
   54MOL   H28625832   6.100   3.341   7.509 -0.5374 -0.8983 -0.3977
   54MOL   H28725833   5.984   3.253   7.297  0.1418 -0.3801 -1.0964
   54MOL   H28825834   5.747   3.616   7.288 -0.3053  0.0065  1.0339
   54MOL   H28925835   5.856   3.696   7.494  0.8472  0.2110  1.6473
   54MOL   C29025836   5.844   3.494   6.961  0.2421 -0.2034  0.2817
   54MOL   C29125837   5.894   3.494   6.831 -0.4686 -0.5661  0.0703
   54MOL   C29225838   5.979   3.391   6.791 -0.4515  0.1852 -0.3672
   54MOL   C29325839   6.015   3.291   6.883  0.2431  0.5929 -0.2569
   54MOL   C29425840   5.955   3.286   7.011 -0.0187 -0.1831 -0.1447
   54MOL   C29525841   5.866   3.393   7.053  0.1765 -0.3014  0.9354
   54MOL   S29625842   6.063   3.396   6.630 -0.2838 -0.2926 -0.0214
   54MOL   O29725843   6.114   3.262   6.602  0.0719  0.2270  0.3286
   54MOL   O29825844   6.158   3.505   6.616  0.1978  0.0555 -0.3101
   54MOL   C29925845   5.936   3.438   6.505  0.5763  0.1346  0.5533
   54MOL   C30025846   5.984   3.481   6.384  0.5330 -0.2596  0.1589
   54MOL   C30125847   5.895   3.507   6.275  0.5011 -0.1672  0.8316
   54MOL   C30225848   5.758   3.494   6.292 -0.1188  0.7320  0.1849
   54MOL   C30325849   5.710   3.444   6.417  0.3601 -0.1906  0.3670
   54MOL   C30425850   5.795   3.430   6.528  0.1655  0.8398 -0.4179
   54MOL   O30525851   5.669   3.505   6.188 -0.3396 -0.5302  0.2032
   54MOL   H30625852   5.778   3.577   6.983  0.9188  0.9425 -1.8364
   54MOL   H30725853   5.874   3.579   6.767  3.8870  0.6048  0.1193
   54MOL   H30825854   6.079   3.209   6.852 -0.8893 -0.5256  0.3191
   54MOL   H30925855   5.979   3.199   7.071  1.6035  0.4633  0.1785
   54MOL   H31025856   6.090   3.487   6.365  1.0524 -1.7907  2.3374
   54MOL   H31125857   5.947   3.511   6.180  1.4162 -0.1931  1.3259
   54MOL   H31225858   5.604   3.426   6.425  0.4691 -1.5998 -1.0713
   54MOL   H31325859   5.751   3.395   6.621 -1.6290  0.2542 -1.4575
   54MOL   C31425860   5.756   3.678   6.042  0.2358 -0.3465  0.0113
   54MOL   C31525861   5.818   3.705   5.917 -0.1445 -0.4025 -0.0740
   54MOL   C31625862   5.830   3.603   5.819  0.2611  0.1099  0.3426
   54MOL   C31725863   5.789   3.468   5.841 -0.8184  0.1601  0.1714
   54MOL   C31825864   5.737   3.437   5.970 -0.0395  0.1125  0.2501
   54MOL   C31925865   5.717   3.541   6.068  0.4043  0.2029 -0.3822
   54MOL   S32025866   5.910   3.657   5.661  0.0743 -0.4276 -0.4919
   54MOL   O32125867   5.840   3.776   5.616 -0.0614  0.2707  0.3584
   54MOL   O32225868   5.922   3.538   5.575  0.3447  0.3050  0.0216
   54MOL   C32325869   6.072   3.717   5.713 -0.2333  0.9633 -0.1468
   54MOL   C32425870   6.131   3.828   5.654 -0.1742  0.6545 -0.6669
   54MOL   C32525871   6.261   3.863   5.681  0.7617  0.1690 -0.5293
   54MOL   C32625872   6.329   3.791   5.788  0.4973 -0.4692  0.5354
   54MOL   C32725873   6.267   3.686   5.861 -0.5137  0.3240  0.7151
   54MOL   C32825874   6.137   3.652   5.823  0.3382  0.0304  1.2095
   54MOL   O32925875   6.460   3.829   5.811 -0.8909  0.3489  0.7855
   54MOL   H33025876   5.751   3.759   6.113  0.7995  0.1642 -0.5279
   54MOL   H33125877   5.860   3.802   5.894 -0.9259  0.6698  2.8208
   54MOL   H33225878   5.793   3.401   5.756  0.8031  1.0111 -0.4320
   54MOL   H33325879   5.719   3.337   6.007  3.3757  0.4281  3.0454
   54MOL   H33425880   6.078   3.857   5.565 -0.5867  0.4964 -0.4780
   54MOL   H33525881   6.296   3.951   5.628  3.4203  0.9658  2.4106
   54MOL   H33625882   6.317   3.637   5.943  0.8136  1.3837  0.5498
   54MOL   H33725883   6.087   3.568   5.868 -0.9521 -1.5571 -2.9043
   54MOL   C33825884   6.503   3.944   6.018 -0.4696  0.6188  0.0286
   54MOL   C33925885   6.484   4.067   6.085 -0.1261  0.1660  0.2948
   54MOL   C34025886   6.445   4.185   6.016 -0.9867  0.1644 -0.3278
   54MOL   C34125887   6.429   4.190   5.877 -1.0188  0.2912 -0.7934
   54MOL   C34225888   6.457   4.070   5.809  0.2007  0.1528  0.2216
   54MOL   C34325889   6.471   3.946   5.876 -0.4475 -0.8661  0.3025
   54MOL   S34425890   6.419   4.335   6.115 -0.2798  0.2961  0.0687
   54MOL   O34525891   6.434   4.445   6.020  0.4362 -0.0340  0.5185
   54MOL   O34625892   6.511   4.317   6.231 -0.3141  0.0049  0.7075
   54MOL   C34725893   6.252   4.328   6.180  0.2038 -0.0586 -0.6950
   54MOL   C34825894   6.183   4.207   6.190  0.1408 -0.0235 -1.0069
   54MOL   C34925895   6.062   4.200   6.267 -0.5370 -0.7501  0.0897
   54MOL   C35025896   6.003   4.316   6.322 -0.6718 -0.5587 -0.2871
   54MOL   C35125897   6.066   4.437   6.297 -0.3196  0.1852  0.4290
   54MOL   C35225898   6.194   4.443   6.237 -0.4887  0.4602 -0.0999
   54MOL   O35325899   5.884   4.308   6.392 -0.0681  0.1687  0.0212
   54MOL   H35425900   6.517   3.852   6.072 -1.3822  0.0105 -0.7472
   54MOL   H35525901   6.517   4.076   6.188 -0.1092 -1.3821  0.4360
   54MOL   H35625902   6.397   4.276   5.820 -1.2623  0.9924  0.3879
   54MOL   H35725903   6.447   4.073   5.701 -1.8729 -0.1217  0.3863
   54MOL   H35825904   6.218   4.119   6.137 -1.3254 -0.0308 -1.9884
   54MOL   H35925905   6.020   4.101   6.275 -1.9675 -0.0768  1.1315
   54MOL   H36025906   6.033   4.538   6.320 -1.4612  0.9581 -3.9584
   54MOL   H36125907   6.249   4.535   6.222  0.9247 -0.3778 -0.1223
   54MOL   C36225908   5.935   4.433   6.593  0.0414 -0.3696 -0.0387
   54MOL   C36325909   5.890   4.533   6.683 -0.4445  0.5407  0.0908
   54MOL   C36425910   5.782   4.613   6.656  0.0876  0.2363 -0.1121
   54MOL   C36525911   5.700   4.585   6.545 -0.6251 -0.1251  0.1933
   54MOL   C36625912   5.735   4.484   6.453  0.1311 -0.4893 -0.0281
   54MOL   C36725913   5.855   4.409   6.478  0.5656 -0.6428 -0.3779
   54MOL   S36825914   5.736   4.752   6.765  0.4943 -0.0396  0.1163
   54MOL   O36925915   5.595   4.790   6.736  0.4105 -0.0290 -0.7484
   54MOL   O37025916   5.847   4.851   6.759  0.1714  0.0335 -0.4077
   54MOL   C37125917   5.745   4.692   6.931 -1.0207 -0.6750  0.2176
   54MOL   C37225918   5.626   4.675   7.003 -0.6715  0.2368  0.1048
   54MOL   C37325919   5.641   4.630   7.136 -0.1676  0.5858 -0.8163
   54MOL   C37425920   5.762   4.596   7.201 -0.2548 -0.5219 -0.4021
   54MOL   C37525921   5.878   4.625   7.126 -0.1491 -0.3668  0.3151
   54MOL   C37625922   5.875   4.674   6.993 -0.1625  0.3763  1.0241
   54MOL   O37725923   5.755   4.542   7.326 -0.0183 -0.1264 -0.7389
   54MOL   H37825924   6.023   4.371   6.592  0.5403  0.3230 -2.2306
   54MOL   H37925925   5.958   4.560   6.762  0.9736  1.8431 -1.5321
   54MOL   H38025926   5.619   4.651   6.515  1.5105  2.7406  0.5615
   54MOL   H38125927   5.666   4.459   6.373  0.8917  1.6165 -1.3733
   54MOL   H38225928   5.533   4.703   6.955 -1.6412 -0.1357  1.7104
   54MOL   H38325929   5.550   4.621   7.195  0.1541 -1.3209 -0.5582
   54MOL   H38425930   5.976   4.593   7.158  0.3201  1.8702  1.2162
   54MOL   H38525931   5.968   4.690   6.940 -0.7679  1.4530  0.2721
   54MOL   C38625932   5.901   4.362   7.389 -0.0713 -0.1721  0.3010
   54MOL   C38725933   5.917   4.222   7.400 -0.7226 -0.5565 -0.6433
   54MOL   C38825934   5.828   4.134   7.337  0.8583  0.0421  1.4285
   54MOL   C38925935   5.711   4.185   7.271 -0.0359 -0.1480  0.1831
   54MOL   C39025936   5.688   4.322   7.278 -0.7572 -0.6729  0.1464
   54MOL   C39125937   5.782   4.407   7.336 -0.0028 -0.9048 -0.1162
   54MOL   S39225938   5.850   3.955   7.343  0.2347 -0.3681 -0.4729
   54MOL   O39325939   5.719   3.897   7.315  0.2908 -0.6017  0.0924
   54MOL   O39425940   5.933   3.932   7.461  0.1889 -0.2196  0.6839
   54MOL   C39525941   5.953   3.905   7.207 -0.5885  0.3486  0.7124
   54MOL   C39625942   6.039   3.792   7.219  0.0791 -0.4004  0.3089
   54MOL   C39725943   6.107   3.745   7.107  0.4088 -0.2439  0.3191
   54MOL   C39825944   6.082   3.805   6.982  0.0662 -0.2920  0.0907
   54MOL   C39925945   6.003   3.920   6.972  0.2335  0.4296  0.0972
   54MOL   C40025946   5.929   3.962   7.086  0.4244 -0.0304  0.5673
   54MOL   O40125947   6.107   3.732   6.868 -0.8833 -0.2142  0.5948
   54MOL   H40225948   5.973   4.432   7.430  1.3148 -1.8942  0.8978
   54MOL   H40325949   6.001   4.185   7.456 -0.6662 -1.2450 -1.1840
   54MOL   H40425950   5.649   4.110   7.224  1.5476  0.9833 -3.9161
   54MOL   H40525951   5.608   4.376   7.230  0.3207  0.8635  0.0194
   54MOL   H40625952   6.052   3.739   7.312  2.0940 -0.9912 -0.2844
   54MOL   H40725953   6.163   3.652   7.113 -0.0320 -0.7438 -2.4561
   54MOL   H40825954   5.998   3.965   6.875 -2.1635  1.9432  0.8622
   54MOL   H40925955   5.860   4.044   7.074  0.9274  0.3232  0.0599
   54MOL   C41025956   6.322   3.618   6.867  0.6997  0.2717  0.3441
   54MOL   C41125957   6.449   3.615   6.820 -0.4987 -0.1769  0.2546
   54MOL   C41225958   6.503   3.704   6.723 -0.3306 -0.2005 -0.5250
   54MOL   C41325959   6.418   3.812   6.682 -0.6909  0.6701  0.1059
   54MOL   C41425960   6.293   3.827   6.738  0.2781 -0.0838  0.0966
   54MOL   C41525961   6.237   3.727   6.824 -0.3398 -0.4270 -0.3718
   54MOL   S41625962   6.674   3.683   6.667 -0.2970 -0.1460  0.0586
   54MOL   O41725963   6.677   3.717   6.524  0.0214 -0.7890  0.0722
   54MOL   O41825964   6.733   3.560   6.713 -0.5779 -0.1212  0.0786
   54MOL   C41925965   6.763   3.824   6.752 -0.5509  0.6328  0.0991
   54MOL   C42025966   6.875   3.875   6.683  0.3407  0.0573 -0.0343
   54MOL   C42125967   6.950   3.979   6.748 -0.5576  0.4091  0.3077
   54MOL   C42225968   6.896   4.044   6.863  0.1967 -0.3543 -0.9433
   54MOL   C42325969   6.787   3.989   6.933  0.5515 -0.2918  0.2904
   54MOL   C42425970   6.721   3.874   6.879  0.4034  0.4027 -0.3013
   54MOL   O42525971   6.959   4.148   6.924  0.1661  0.0736 -0.4870
   54MOL   H42625972   6.274   3.542   6.927  0.6665 -0.8732 -1.1088
   54MOL   H42725973   6.520   3.543   6.856  0.3252  0.7787  0.5542
   54MOL   H42825974   6.463   3.896   6.631  1.5731 -1.6717 -1.9473
   54MOL   H42925975   6.232   3.914   6.716  0.0762  0.2626  1.9930
   54MOL   H43025976   6.905   3.841   6.585 -0.8928  2.1398 -1.1876
   54MOL   H43125977   7.043   4.019   6.710 -1.3875  1.2086 -0.9159
   54MOL   H43225978   6.776   4.030   7.032 -1.3049  0.8912 -0.3904
   54MOL   H43325979   6.642   3.830   6.937 -0.2109  1.3287 -0.4262
   54MOL   C43425980   7.152   4.071   7.045 -0.3115 -0.1802 -0.1743
   54MOL   C43525981   7.287   4.078   7.071  0.0306 -0.5428 -0.3911
   54MOL   C43625982   7.372   4.149   6.983  0.0857  0.5817  0.1604
   54MOL   C43725983   7.324   4.209   6.870 -0.0264 -0.7621 -0.2516
   54MOL   C43825984   7.187   4.206   6.847  0.4543 -0.5743 -0.3251
   54MOL   C43925985   7.098   4.145   6.942 -0.5451 -0.0721  1.0248
   54MOL   S44025986   7.551   4.145   7.026 -0.2464  0.1537 -0.2728
   54MOL   O44125987   7.603   4.011   7.011  0.3173 -0.0462 -0.3508
   54MOL   O44225988   7.572   4.211   7.160 -0.4666  0.3347 -0.1041
   54MOL   C44325989   7.636   4.255   6.902 -0.1795 -0.4551 -0.0880
   54MOL   C44425990   7.675   4.385   6.925  0.1119 -0.0376 -0.4079
   54MOL   C44525991   7.730   4.466   6.822  1.0931  0.2304 -0.5428
   54MOL   C44625992   7.744   4.415   6.694 -0.5190  0.2432  0.1147
   54MOL   C44725993   7.713   4.277   6.672 -0.6911 -0.8014  0.7602
   54MOL   C44825994   7.657   4.200   6.772  0.1951 -0.8201  0.4580
   54MOL   O44925995   7.788   4.497   6.599  0.0002  0.1244  0.3166
   54MOL   H45025996   7.085   4.025   7.116 -1.0348  0.6383 -0.3237
   54MOL   H45125997   7.334   4.017   7.148  0.2848 -0.7016 -0.6696
   54MOL   H45225998   7.390   4.253   6.797  1.1515 -0.1824  1.1594
   54MOL   H45325999   7.145   4.247   6.757 -1.1697 -1.1832  0.1467
   54MOL   H45426000   7.677   4.432   7.022  1.1338  0.7191 -0.7770
   54MOL   H45526001   7.755   4.570   6.836  0.6443  0.4771 -1.5463
   54MOL   H45626002   7.732   4.244   6.571  0.4367  0.2899  0.5919
   54MOL   H45726003   7.625   4.097   6.758 -0.5984 -0.6383  0.8836
   54MOL   C45826004   7.606   4.483   6.440 -0.3350 -0.0323  0.4131
   54MOL   C45926005   7.565   4.484   6.304  0.1004  0.0581  0.0038
   54MOL   C46026006   7.651   4.445   6.197  0.5183  0.5947  0.9474
   54MOL   C46126007   7.791   4.436   6.231  0.3273 -0.4438  0.2710
   54MOL   C46226008   7.834   4.444   6.367  0.1161 -0.5474 -0.1314
   54MOL   C46326009   7.746   4.472   6.470 -0.9280 -0.4532 -0.4472
   54MOL   S46426010   7.595   4.419   6.032  0.0400  0.3157 -0.1533
   54MOL   O46526011   7.540   4.284   6.035  0.0720  0.3438  0.2270
   54MOL   O46626012   7.713   4.440   5.944 -0.2588 -0.7460  0.0538
   54MOL   C46726013   7.477   4.545   5.994  0.1748 -0.1495  0.4196
   54MOL   C46826014   7.504   4.661   5.914 -0.2154  0.3995 -0.2842
   54MOL   C46926015   7.404   4.746   5.868 -0.0003 -0.0129  0.0905
   54MOL   C47026016   7.274   4.718   5.920  0.6157  0.2193  0.2109
   54MOL   C47126017   7.246   4.607   6.002 -0.0228  0.0895  0.0378
   54MOL   C47226018   7.349   4.523   6.042 -0.2058  0.3222  0.4121
   54MOL   O47326019   7.175   4.803   5.888  0.3231  0.1078  0.6927
   54MOL   H47426020   7.538   4.501   6.522  2.4585  0.6874  2.6373
   54MOL   H47526021   7.463   4.491   6.269  0.8041 -1.8631 -2.6321
   54MOL   H47626022   7.864   4.425   6.152  0.4560  2.7925 -0.1202
   54MOL   H47726023   7.940   4.447   6.388  0.0407  2.8274  0.0205
   54MOL   H47826024   7.604   4.669   5.874 -0.1420  0.5057 -0.0788
   54MOL   H47926025   7.430   4.830   5.806 -2.4094 -0.0097 -0.9924
   54MOL   H48026026   7.147   4.585   6.038 -0.5868 -0.2854 -1.7024
   54MOL   H48126027   7.333   4.440   6.109 -1.7584  0.7351  0.5523
   54MOL   H48226028   7.090   4.767   5.910  0.3470 -0.1401  0.3889
   55MOL     C126029   5.825   7.436   5.025  0.1151 -0.4520 -0.0643
   55MOL     C226030   5.776   7.354   5.128 -0.0269 -0.7112  0.0317
   55MOL     C326031   5.862   7.323   5.233 -0.0931  0.1428  0.0460
   55MOL     C426032   5.979   7.393   5.258  1.4896 -0.9311  0.2077
   55MOL     C526033   6.015   7.497   5.168 -0.8566  0.5731  0.6052
   55MOL     C626034   5.942   7.510   5.052  0.4759 -0.5021 -0.0814
   55MOL     S726035   5.815   7.197   5.350  0.0772 -0.6766  0.0097
   55MOL     O826036   5.732   7.269   5.449 -0.0417 -0.2117  0.2494
   55MOL     O926037   5.943   7.134   5.377 -0.2233  0.6004  0.7506
   55MOL    C1026038   5.709   7.081   5.257  0.7530 -0.2558  0.1510
   55MOL    C1126039   5.568   7.103   5.255 -0.4756 -0.5937 -0.3755
   55MOL    C1226040   5.481   7.028   5.174  0.0293 -0.6684  0.6452
   55MOL    C1326041   5.535   6.925   5.093 -0.3195 -0.3353 -0.4703
   55MOL    C1426042   5.675   6.913   5.085 -0.2842  1.0557 -0.4514
   55MOL    C1526043   5.760   6.988   5.166  0.0828  0.4195  0.1010
   55MOL    O1626044   5.447   6.849   5.020  0.1517  0.3014 -0.5077
   55MOL    H1726045   5.766   7.460   4.937 -2.0966 -0.0419  1.4910
   55MOL    H1826046   5.684   7.301   5.109 -1.9211  2.1779  0.8387
   55MOL    H1926047   6.034   7.370   5.349 -1.3673 -3.4118  1.3905
   55MOL    H2026048   6.109   7.549   5.181 -0.6756 -0.0556  1.9662
   55MOL    H2126049   5.523   7.177   5.319 -1.7456 -0.1455 -1.7713
   55MOL    H2226050   5.375   7.044   5.184 -0.0335 -0.9099  0.3607
   55MOL    H2326051   5.712   6.835   5.020  1.9448 -0.6979  2.7924
   55MOL    H2426052   5.867   6.970   5.168  0.2947  1.7070  0.3987
   55MOL    H2526053   5.972   7.590   4.985  1.3731 -0.3495  0.4945
   55MOL    C2626054   5.458   6.653   4.890 -0.0736  0.7722 -0.1554
   55MOL    C2726055   5.506   6.575   4.780 -0.1561  0.5087  0.2617
   55MOL    C2826056   5.593   6.633   4.685 -0.0358 -0.0385 -0.6990
   55MOL    C2926057   5.627   6.766   4.699 -0.5004  0.2349 -1.0367
   55MOL    C3026058   5.574   6.842   4.802 -0.0494 -0.1127 -0.7404
   55MOL    C3126059   5.493   6.786   4.907  1.0207 -0.4210  0.4164
   55MOL    S3226060   5.659   6.536   4.545  0.0407 -0.5816  0.0100
   55MOL    O3326061   5.698   6.625   4.432  0.5530 -0.2293  0.3171
   55MOL    O3426062   5.566   6.424   4.522 -0.0079  0.5436  0.1929
   55MOL    C3526063   5.814   6.479   4.613  0.1425 -0.1346  0.0779
   55MOL    C3626064   5.812   6.427   4.742 -0.6714  0.2712 -0.0624
   55MOL    C3726065   5.939   6.395   4.800 -0.2802 -0.2847 -0.5711
   55MOL    C3826066   6.057   6.414   4.728 -0.0060  0.3502 -0.4800
   55MOL    C3926067   6.048   6.441   4.592  0.3936  0.0677  0.4114
   55MOL    C4026068   5.930   6.467   4.531 -0.0685  0.1425  0.3098
   55MOL    O4126069   6.180   6.391   4.789  0.4004  0.1112 -0.2740
   55MOL    H4226070   5.400   6.602   4.965  1.6511  0.0934  0.7380
   55MOL    H4326071   5.487   6.470   4.772 -2.1492  1.0783 -3.1599
   55MOL    H4426072   5.668   6.818   4.613  1.1755  0.7533  0.0459
   55MOL    H4526073   5.587   6.948   4.789 -0.0585  0.1500  1.1467
   55MOL    H4626074   5.722   6.416   4.800 -0.0827 -1.3411  0.5823
   55MOL    H4726075   5.942   6.378   4.907  1.4648 -0.2930 -0.6170
   55MOL    H4826076   6.139   6.423   4.537  0.6336  0.5769  0.6431
   55MOL    H4926077   5.927   6.481   4.424 -0.6313 -1.4714  0.1046
   55MOL    C5026078   6.304   6.503   4.961  0.3326  0.2960  0.3136
   55MOL    C5126079   6.389   6.605   5.005  0.0539 -0.0469 -0.5482
   55MOL    C5226080   6.414   6.719   4.927  0.4266 -0.1768  0.7040
   55MOL    C5326081   6.346   6.727   4.801 -0.2657 -0.3823  0.2307
   55MOL    C5426082   6.269   6.617   4.754 -0.8975  0.3242  0.5221
   55MOL    C5526083   6.246   6.506   4.838  0.0699 -0.4138 -0.5110
   55MOL    S5626084   6.550   6.847   4.957 -0.0745  0.2093  0.3799
   55MOL    O5726085   6.662   6.774   5.013 -0.8440  0.6721 -0.2628
   55MOL    O5826086   6.498   6.958   5.033  0.4726 -0.1292  0.5269
   55MOL    C5926087   6.601   6.910   4.797  0.3617 -0.4281 -0.0157
   55MOL    C6026088   6.628   6.815   4.696 -0.1967  0.1966 -0.2227
   55MOL    C6126089   6.669   6.855   4.563  0.5306 -0.3691 -0.0051
   55MOL    C6226090   6.684   6.992   4.528 -1.0988 -0.0711 -0.1589
   55MOL    C6326091   6.653   7.084   4.629 -0.2409  0.0854  0.3165
   55MOL    C6426092   6.614   7.046   4.760 -0.2388  0.5482 -0.4181
   55MOL    O6526093   6.731   7.031   4.407  0.3952  0.4912 -0.5306
   55MOL    H6626094   6.289   6.416   5.024  0.9888 -0.5219 -0.6521
   55MOL    H6726095   6.446   6.591   5.096  0.3410 -0.3442 -0.7725
   55MOL    H6826096   6.379   6.807   4.735  2.7822 -1.9511 -0.2345
   55MOL    H6926097   6.223   6.621   4.657 -0.5120 -0.7914  0.2885
   55MOL    H7026098   6.626   6.709   4.715 -1.0578  0.5413  1.7683
   55MOL    H7126099   6.699   6.778   4.494  0.5578  1.4549 -2.1153
   55MOL    H7226100   6.671   7.189   4.609  1.4988 -0.5044 -1.4645
   55MOL    H7326101   6.606   7.121   4.836  0.1771  1.4828 -1.2807
   55MOL    C7426102   6.610   6.950   4.222  0.5036  0.5914  0.1716
   55MOL    C7526103   6.512   6.975   4.118 -0.3271  0.2475 -0.5336
   55MOL    C7626104   6.447   7.097   4.106 -0.4083 -0.7314 -0.0065
   55MOL    C7726105   6.480   7.206   4.193 -0.3694  0.4636 -0.0319
   55MOL    C7826106   6.576   7.182   4.299  0.4432  1.1768  0.0537
   55MOL    C7926107   6.637   7.056   4.312 -0.6953 -0.4319  0.5791
   55MOL    S8026108   6.312   7.114   3.993 -0.3591  0.2644  0.0030
   55MOL    O8126109   6.197   7.176   4.069  0.2263  0.6928  0.3566
   55MOL    O8226110   6.298   6.990   3.912  0.3731 -0.3534 -0.1866
   55MOL    C8326111   6.353   7.243   3.875  0.1839 -0.1163  0.1664
   55MOL    C8426112   6.263   7.261   3.765  0.1919  0.1007 -0.2044
   55MOL    C8526113   6.291   7.373   3.686 -0.1535 -0.0768  0.5474
   55MOL    C8626114   6.399   7.462   3.710 -0.2689  0.5459  0.2669
   55MOL    C8726115   6.488   7.442   3.819 -0.4814 -0.1762  0.1922
   55MOL    C8826116   6.463   7.329   3.899  0.3527  0.2510 -0.5268
   55MOL    O8926117   6.412   7.567   3.623 -0.2026  0.0355  0.3395
   55MOL    H9026118   6.669   6.861   4.234 -1.5755 -0.5150  2.5357
   55MOL    H9126119   6.478   6.895   4.055  1.2223  0.3292 -1.5022
   55MOL    H9226120   6.431   7.300   4.177 -0.8545  0.5149  1.7004
   55MOL    H9326121   6.605   7.270   4.354  0.7466  1.9640 -1.3665
   55MOL    H9426122   6.188   7.185   3.751 -0.5358  0.6314  0.7927
   55MOL    H9526123   6.223   7.389   3.603 -2.4650 -3.1704  1.7388
   55MOL    H9626124   6.568   7.513   3.826 -0.8060  0.2221 -0.1019
   55MOL    H9726125   6.541   7.319   3.973  0.8037  1.5360 -0.8184
   55MOL    C9826126   6.627   7.491   3.540 -0.5005  0.6736 -0.0249
   55MOL    C9926127   6.758   7.529   3.512 -0.2186 -1.1360 -0.3838
   55MOL   C10026128   6.800   7.664   3.522 -0.0064 -0.4533 -0.1611
   55MOL   C10126129   6.700   7.761   3.533  0.1000 -0.1286  0.2046
   55MOL   C10226130   6.566   7.728   3.554 -0.2108  0.0386 -0.1732
   55MOL   C10326131   6.536   7.591   3.575  0.0603  0.3100  0.8844
   55MOL   S10426132   6.973   7.709   3.505  0.0062 -0.2680 -0.0202
   55MOL   O10526133   7.054   7.607   3.577 -0.0210 -0.1672 -1.0421
   55MOL   O10626134   6.990   7.849   3.548  0.2065  0.4019  0.0933
   55MOL   C10726135   7.021   7.697   3.335  0.0676 -0.1259 -0.2908
   55MOL   C10826136   6.970   7.603   3.242  0.7303 -0.0701  0.4646
   55MOL   C10926137   7.005   7.613   3.107 -0.7312 -0.7723  0.3754
   55MOL   C11026138   7.113   7.699   3.062 -0.0385 -0.2868 -0.1161
   55MOL   C11126139   7.167   7.778   3.163 -0.6653  0.3787  0.3240
   55MOL   C11226140   7.125   7.788   3.294 -0.3371 -0.4342  0.4594
   55MOL   O11326141   7.150   7.703   2.928 -0.1344  0.0539 -0.6574
   55MOL   H11426142   6.598   7.386   3.541 -2.4928  1.1860 -1.1044
   55MOL   H11526143   6.823   7.448   3.482  0.5617 -1.4444  2.0590
   55MOL   H11626144   6.746   7.859   3.532  0.8525 -0.4778 -1.1589
   55MOL   H11726145   6.488   7.798   3.579 -0.9912 -0.5361 -0.9932
   55MOL   H11826146   6.891   7.534   3.267  2.0356 -0.6694  3.0996
   55MOL   H11926147   6.960   7.545   3.036  0.4279 -0.2569 -0.9000
   55MOL   H12026148   7.227   7.859   3.124  2.3229 -1.4954  0.8192
   55MOL   H12126149   7.172   7.859   3.360  0.0433 -0.7897  0.5702
   55MOL   C12226150   7.338   7.558   2.933 -0.4843  0.0135  0.3772
   55MOL   C12326151   7.475   7.534   2.911  0.4856  0.0538  0.3246
   55MOL   C12426152   7.550   7.631   2.842  0.4609 -0.1728  0.4543
   55MOL   C12526153   7.500   7.754   2.808  0.0015  0.0855 -0.2186
   55MOL   C12626154   7.365   7.781   2.843 -0.4610 -0.5041 -0.5962
   55MOL   C12726155   7.283   7.680   2.906  0.0289 -0.0645 -0.4378
   55MOL   S12826156   7.724   7.606   2.822  0.1913  0.3256  0.2666
   55MOL   O12926157   7.795   7.654   2.938 -0.2678  0.3685 -0.3741
   55MOL   O13026158   7.757   7.657   2.685  0.0212 -0.2412  0.6532
   55MOL   C13126159   7.741   7.428   2.803  0.2013  0.2103 -0.2887
   55MOL   C13226160   7.736   7.354   2.681 -0.4070 -0.3342  0.4986
   55MOL   C13326161   7.756   7.214   2.691 -0.0020 -0.4593 -0.2497
   55MOL   C13426162   7.805   7.156   2.809 -0.6956  0.5541 -0.1278
   55MOL   C13526163   7.810   7.228   2.931 -0.6020 -0.3091 -0.1876
   55MOL   C13626164   7.784   7.366   2.923 -0.7445 -0.7181  0.2239
   55MOL   O13726165   7.829   7.019   2.805 -0.2582  0.3143  0.0786
   55MOL   H13826166   7.275   7.483   2.980  2.5290 -0.9773  2.9500
   55MOL   H13926167   7.509   7.436   2.942  0.4031 -0.5432 -1.4164
   55MOL   H14026168   7.552   7.838   2.763  0.5622  0.7982  1.6535
   55MOL   H14126169   7.324   7.879   2.823 -0.0078 -0.6657 -2.4020
   55MOL   H14226170   7.696   7.399   2.591 -2.4021  1.8228  2.3838
   55MOL   H14326171   7.749   7.155   2.601  0.2530  1.2727 -1.4356
   55MOL   H14426172   7.845   7.186   3.024 -2.8355 -2.8537 -0.4372
   55MOL   H14526173   7.789   7.425   3.014  4.4864 -1.0087  0.3033
   55MOL   C14626174   7.824   6.822   2.922  0.4922 -0.5322  0.7533
   55MOL   C14726175   7.761   6.710   2.979  0.2358 -0.0022  0.1470
   55MOL   C14826176   7.627   6.730   3.010 -0.1004  0.3504 -0.8821
   55MOL   C14926177   7.560   6.852   3.001 -0.1907  0.1192  0.4469
   55MOL   C15026178   7.622   6.959   2.931  0.1066 -0.1039  0.6862
   55MOL   C15126179   7.756   6.938   2.884  0.1959 -0.2720  0.8460
   55MOL   S15226180   7.544   6.585   3.086 -0.0028  0.1071  0.0617
   55MOL   O15326181   7.612   6.464   3.038  1.0283  0.1350  0.1211
   55MOL   O15426182   7.400   6.598   3.063  0.2542  0.0077 -0.2907
   55MOL   C15526183   7.570   6.603   3.261  0.4610 -0.2753 -0.3147
   55MOL   C15626184   7.628   6.716   3.321 -0.4044  0.2052  0.4689
   55MOL   C15726185   7.632   6.735   3.464  0.2838 -0.3950  0.4183
   55MOL   C15826186   7.565   6.647   3.547 -0.3904 -0.3699 -0.2101
   55MOL   C15926187   7.507   6.536   3.487  0.0281  0.4773  0.1605
   55MOL   C16026188   7.517   6.508   3.351 -0.0783 -0.4503  0.3168
   55MOL   O16126189   7.573   6.647   3.683  0.0003 -0.4024 -0.1568
   55MOL   H16226190   7.921   6.802   2.879  0.1558 -0.8250  0.1216
   55MOL   H16326191   7.811   6.616   2.998  1.0389  0.8810  2.7074
   55MOL   H16426192   7.459   6.865   3.038 -0.0112  0.1605  0.9210
   55MOL   H16526193   7.566   7.048   2.908  0.9210  0.5351  1.1402
   55MOL   H16626194   7.674   6.790   3.258  0.8976 -0.1803  0.9445
   55MOL   H16726195   7.674   6.828   3.501  2.1926 -2.1060  2.7104
   55MOL   H16826196   7.448   6.469   3.547 -3.3452  2.1691 -1.1319
   55MOL   H16926197   7.462   6.422   3.315 -0.1123  0.4689 -1.8682
   55MOL   C17026198   7.610   6.874   3.766  0.6788  0.2005 -0.1763
   55MOL   C17126199   7.556   6.996   3.812  0.2140  0.1432 -0.4471
   55MOL   C17226200   7.418   7.006   3.824 -0.5415  0.1132 -0.2848
   55MOL   C17326201   7.331   6.905   3.797  0.0460  0.2054  0.8872
   55MOL   C17426202   7.385   6.782   3.750  0.1230  0.4848 -0.2463
   55MOL   C17526203   7.527   6.763   3.734  0.4037 -0.0787 -0.0105
   55MOL   S17626204   7.345   7.163   3.849 -0.1706  0.2889  0.2692
   55MOL   O17726205   7.440   7.238   3.932  0.3644 -0.4681 -0.6412
   55MOL   O17826206   7.208   7.133   3.904  0.5333 -0.0723  0.1395
   55MOL   C17926207   7.327   7.240   3.693 -1.4007 -0.1873  0.2086
   55MOL   C18026208   7.201   7.295   3.656 -0.0786  0.2849  0.1875
   55MOL   C18126209   7.184   7.344   3.523  0.1154  0.0482 -0.7890
   55MOL   C18226210   7.293   7.344   3.429  0.8767  1.1869 -0.1023
   55MOL   C18326211   7.414   7.288   3.467  0.6464 -0.1420  0.6300
   55MOL   C18426212   7.435   7.235   3.594  0.0429  0.0318  0.1164
   55MOL   O18526213   7.285   7.405   3.305 -0.0278 -0.1617 -0.0537
   55MOL   H18626214   7.717   6.875   3.750  0.8598 -0.1688  0.9575
   55MOL   H18726215   7.619   7.084   3.820  2.3556 -1.5169  1.6063
   55MOL   H18826216   7.226   6.928   3.808 -0.2260 -0.8685  0.5145
   55MOL   H18926217   7.318   6.702   3.720 -0.4778 -0.2709  2.9414
   55MOL   H19026218   7.133   7.311   3.738 -0.4486 -1.0617  0.1505
   55MOL   H19126219   7.091   7.392   3.497 -0.0091  0.3596  0.2093
   55MOL   H19226220   7.499   7.291   3.400  2.1783  0.3503  2.5683
   55MOL   H19326221   7.530   7.188   3.615 -0.2104 -0.7806 -0.5186
   55MOL   C19426222   7.350   7.273   3.125  0.0530 -0.4229  0.0978
   55MOL   C19526223   7.320   7.197   3.011  0.4987  1.1786 -0.4043
   55MOL   C19626224   7.186   7.154   2.993 -0.3672  0.6493 -0.0827
   55MOL   C19726225   7.081   7.210   3.072 -0.3787 -0.3050  0.1146
   55MOL   C19826226   7.113   7.288   3.182 -0.2982  0.2859 -0.3352
   55MOL   C19926227   7.244   7.320   3.205 -0.5322 -0.0606 -0.2051
   55MOL   S20026228   7.142   7.048   2.848  0.1050  0.1048 -0.0063
   55MOL   O20126229   6.996   7.028   2.837  0.2866  0.0396  0.1759
   55MOL   O20226230   7.232   6.930   2.844  0.0171 -0.5444  0.0424
   55MOL   C20326231   7.184   7.167   2.718 -0.2808 -0.7694  1.1402
   55MOL   C20426232   7.113   7.288   2.696 -0.4968 -0.1629  0.2554
   55MOL   C20526233   7.135   7.368   2.584 -0.0343 -0.1018  0.7804
   55MOL   C20626234   7.240   7.324   2.496  0.1381 -0.4818 -0.0233
   55MOL   C20726235   7.307   7.203   2.518 -0.1697  0.4002 -0.2742
   55MOL   C20826236   7.282   7.125   2.628 -0.8330  0.1544 -0.4774
   55MOL   O20926237   7.279   7.402   2.392  0.6041 -0.4445 -0.4689
   55MOL   H21026238   7.448   7.311   3.148 -0.2872 -1.3930  3.5519
   55MOL   H21126239   7.401   7.171   2.945 -0.1505 -1.6046 -0.1634
   55MOL   H21226240   6.977   7.195   3.048 -0.4743  3.0821 -1.8760
   55MOL   H21326241   7.032   7.343   3.228 -0.1190  1.2019 -1.0956
   55MOL   H21426242   7.040   7.326   2.765 -0.2170  0.3823  0.2541
   55MOL   H21526243   7.086   7.463   2.572  1.6038  0.7247  0.4633
   55MOL   H21626244   7.390   7.170   2.458  0.1279 -1.4304  1.0802
   55MOL   H21726245   7.339   7.034   2.644 -1.9325 -0.2782  1.1169
   55MOL   C21826246   7.467   7.548   2.466 -0.5067  0.4652 -0.6137
   55MOL   C21926247   7.582   7.616   2.425  0.7103 -0.3746  0.3368
   55MOL   C22026248   7.646   7.581   2.305  0.3156 -0.2816  0.2021
   55MOL   C22126249   7.601   7.466   2.235 -0.6569 -0.5167 -0.1499
   55MOL   C22226250   7.482   7.399   2.274  0.7692 -0.3312  0.0825
   55MOL   C22326251   7.406   7.446   2.385 -0.2289  0.6570  0.4259
   55MOL   S22426252   7.788   7.657   2.227 -0.1087  0.1650  0.0843
   55MOL   O22526253   7.746   7.781   2.156  0.0663  0.0986 -0.4106
   55MOL   O22626254   7.856   7.555   2.143 -0.5806  0.6163  0.3000
   55MOL   C22726255   7.896   7.701   2.363  0.2573  0.4514  0.5619
   55MOL   C22826256   7.919   7.839   2.408  0.1432  0.7989 -0.7691
   55MOL   C22926257   7.979   7.857   2.532 -0.4731  0.0806 -0.1058
   55MOL   C23026258   8.044   7.748   2.596 -0.3671  0.1459  0.3751
   55MOL   C23126259   8.031   7.618   2.546  0.7686  0.3251 -0.5306
   55MOL   C23226260   7.962   7.591   2.427  0.1048  0.4784 -0.0270
   55MOL   O23326261   8.114   7.774   2.711  0.0966  0.4969  0.1766
   55MOL   H23426262   7.420   7.584   2.556 -1.1413 -1.4721 -0.1475
   55MOL   H23526263   7.615   7.697   2.488 -2.0688 -1.6713  3.5819
   55MOL   H23626264   7.646   7.435   2.143 -1.1356 -2.4806  0.2535
   55MOL   H23726265   7.423   7.336   2.210 -0.2333  0.3322  0.3374
   55MOL   H23826266   7.872   7.922   2.358 -0.4084  0.2443 -1.1880
   55MOL   H23926267   7.979   7.955   2.579 -0.9705 -0.3789  0.8713
   55MOL   H24026268   8.070   7.538   2.607  0.8026  0.8360  0.1309
   55MOL   H24126269   7.941   7.493   2.388  0.8476 -0.4494  1.8179
   55MOL   C24226270   8.349   7.743   2.732 -0.4813 -0.2205 -0.2944
   55MOL   C24326271   0.057   7.784   2.723 -0.6325  0.2976  0.0363
   55MOL   C24426272   0.086   7.911   2.675  0.8889 -0.4639 -0.5795
   55MOL   C24526273   8.404   7.996   2.634  0.3257  0.5960 -0.1159
   55MOL   C24626274   8.271   7.947   2.641  0.0709 -0.2750  0.2001
   55MOL   C24726275   8.241   7.822   2.694  0.3028  0.3883  0.0718
   55MOL   S24826276   0.254   7.973   2.664 -0.3008  0.3374 -0.3371
   55MOL   O24926277   0.239   8.101   2.587 -0.3443  0.2277  0.0361
   55MOL   O25026278   0.338   7.871   2.599  0.0237  0.1627 -0.5171
   55MOL   C25126279   0.310   8.004   2.823 -0.5087 -0.4159 -0.0368
   55MOL   C25226280   0.409   7.919   2.885  0.4437 -1.1586 -0.3745
   55MOL   C25326281   0.447   7.939   3.016  0.4157  0.7414 -0.3401
   55MOL   C25426282   0.392   8.043   3.089 -0.3820 -0.9772 -0.1942
   55MOL   C25526283   0.292   8.125   3.028  0.3974  1.0012  0.4484
   55MOL   C25626284   0.252   8.105   2.896  0.0584  0.4722 -0.7041
   55MOL   O25726285   0.435   8.062   3.219 -0.0301 -0.5165 -0.2109
   55MOL   H25826286   8.314   7.653   2.781 -0.8445 -0.1998 -0.5154
   55MOL   H25926287   0.147   7.727   2.744 -1.1281  0.5835  3.3045
   55MOL   H26026288   8.422   8.096   2.598 -1.7948  1.0377 -0.0588
   55MOL   H26126289   8.184   8.007   2.619 -0.0495 -0.4396  0.2279
   55MOL   H26226290   0.449   7.842   2.820  0.9217 -0.4982 -0.8705
   55MOL   H26326291   0.520   7.874   3.062  1.1182  0.1274 -2.2801
   55MOL   H26426292   0.246   8.205   3.084 -2.0858  0.1168 -0.2462
   55MOL   H26526293   0.186   8.173   2.843 -3.1499  0.5216  3.0620
   55MOL   C26626294   0.332   7.862   3.327 -0.1199 -0.6472  0.4311
   55MOL   C26726295   0.332   7.757   3.425 -0.4241 -0.4680 -0.0235
   55MOL   C26826296   0.446   7.754   3.510  0.3577 -0.6010 -0.8081
   55MOL   C26926297   0.550   7.842   3.494  0.6077 -0.3524  0.1353
   55MOL   C27026298   0.554   7.940   3.400  0.6501  0.5460  0.1811
   55MOL   C27126299   0.442   7.954   3.315  0.1816 -0.0636 -0.2047
   55MOL   S27226300   0.452   7.618   3.638 -0.3893 -0.0426  0.1569
   55MOL   O27326301   0.589   7.556   3.637  0.3124  0.5580 -0.2048
   55MOL   O27426302   0.335   7.530   3.629 -0.4645 -0.7660  0.4097
   55MOL   C27526303   0.429   7.705   3.794 -0.5765  0.1835 -0.4256
   55MOL   C27626304   0.545   7.754   3.860 -0.3875  0.0649 -0.4675
   55MOL   C27726305   0.532   7.833   3.977  0.0635 -0.4881  0.1867
   55MOL   C27826306   0.409   7.861   4.029  0.3269 -0.2390 -0.0030
   55MOL   C27926307   0.290   7.806   3.971 -0.1136  0.0928 -0.0020
   55MOL   C28026308   0.302   7.725   3.856  0.3836  0.2770 -1.0180
   55MOL   O28126309   0.410   7.945   4.136  0.1585 -0.2262 -0.2173
   55MOL   H28226310   0.242   7.876   3.269  0.4713  3.4835  0.3393
   55MOL   H28326311   0.246   7.696   3.448 -0.0361 -1.5001 -1.2455
   55MOL   H28426312   0.633   7.836   3.562  1.7762 -0.0317 -1.2370
   55MOL   H28526313   0.644   8.000   3.405  1.5192 -0.6840 -0.3600
   55MOL   H28626314   0.644   7.742   3.819  1.3128  2.4528  2.6494
   55MOL   H28726315   0.620   7.889   4.006  0.9098 -1.1353 -1.0701
   55MOL   H28826316   0.195   7.840   4.009 -0.2128  1.8399 -1.7316
   55MOL   H28926317   0.221   7.689   3.795  0.4435  1.1615 -1.6259
   55MOL   C29026318   0.247   7.846   4.288  0.2551 -0.3242 -0.6360
   55MOL   C29126319   0.139   7.859   4.376  0.0425 -0.0213  0.3565
   55MOL   C29226320   0.098   7.989   4.411 -0.0629 -0.0751  0.0301
   55MOL   C29326321   0.160   8.099   4.346  0.5825  0.4481  0.1122
   55MOL   C29426322   0.265   8.086   4.256  0.0860  0.1115  0.0529
   55MOL   C29526323   0.307   7.954   4.225  0.2730  0.0778 -0.2092
   55MOL   S29626324   8.405   8.019   4.546  0.6199  0.0724 -0.0134
   55MOL   O29726325   8.277   7.994   4.487  0.0728  0.4551  0.5452
   55MOL   O29826326   0.012   8.146   4.608  0.3026  0.5764 -0.4600
   55MOL   C29926327   0.006   7.890   4.663 -0.5115  0.3992 -0.2463
   55MOL   C30026328   0.129   7.884   4.732  0.1994 -0.0620  0.2643
   55MOL   C30126329   0.156   7.794   4.837  0.0820 -0.1149 -0.6418
   55MOL   C30226330   0.056   7.694   4.864  0.4633  0.6212  0.8030
   55MOL   C30326331   8.366   7.684   4.779  0.3988 -0.5362  0.1674
   55MOL   C30426332   8.337   7.783   4.681  0.0751  0.1802 -0.0795
   55MOL   O30526333   0.076   7.598   4.967 -0.9398  0.2110  0.3160
   55MOL   H30626334   0.269   7.745   4.257  2.9357  0.7444 -2.3741
   55MOL   H30726335   0.099   7.772   4.427 -1.4633 -0.4416 -1.5103
   55MOL   H30826336   0.120   8.195   4.372  0.5776  0.7600 -0.9890
   55MOL   H30926337   0.300   8.174   4.204  1.2049  0.3490  1.1625
   55MOL   H31026338   0.204   7.960   4.718 -1.6759  1.9918  1.0784
   55MOL   H31126339   0.239   7.817   4.902  0.6701 -0.5174 -1.2429
   55MOL   H31226340   8.293   7.607   4.800 -1.2423  0.2305 -2.6028
   55MOL   H31326341   8.240   7.795   4.635 -0.4974  0.8588  1.2500
   55MOL   C31426342   0.121   7.380   5.027 -0.2780  0.1247 -0.3366
   55MOL   C31526343   0.179   7.253   5.012 -0.4373 -0.3401 -0.4618
   55MOL   C31626344   0.242   7.225   4.893 -0.3852 -0.3900  0.2585
   55MOL   C31726345   0.243   7.317   4.781 -0.2186 -0.8186 -0.0238
   55MOL   C31826346   0.179   7.444   4.800  0.1116  0.5080  0.4401
   55MOL   C31926347   0.114   7.474   4.924 -0.4111 -0.3027 -0.2038
   55MOL   S32026348   0.318   7.057   4.869 -0.4052 -0.4037 -0.3154
   55MOL   O32126349   0.214   6.973   4.810  0.6013 -0.3550  0.3283
   55MOL   O32226350   0.382   7.018   4.991  0.3291  0.1883 -0.7150
   55MOL   C32326351   0.453   7.072   4.756 -0.6553  0.0595  0.5481
   55MOL   C32426352   0.443   7.015   4.622  0.0605 -0.1355  0.7502
   55MOL   C32526353   0.556   7.023   4.544 -0.3029  0.4226  0.0390
   55MOL   C32626354   0.671   7.091   4.588  0.4446 -1.1543 -0.3992
   55MOL   C32726355   0.686   7.141   4.719  0.4652  0.3414 -0.1878
   55MOL   C32826356   0.574   7.130   4.805  0.8759 -0.9040  0.6965
   55MOL   O32926357   0.778   7.098   4.508  0.2954 -0.0549  0.3677
   55MOL   H33026358   0.079   7.411   5.122  0.5980  1.0477 -0.2425
   55MOL   H33126359   0.185   7.182   5.093  2.2695  1.1366  0.7396
   55MOL   H33226360   0.285   7.294   4.685 -2.8385 -0.6972 -1.2387
   55MOL   H33326361   0.186   7.508   4.713 -0.6656  1.6393  1.1952
   55MOL   H33426362   0.354   6.963   4.590 -0.1196 -0.0894  1.1650
   55MOL   H33526363   0.558   6.979   4.446 -0.8964 -1.7489  0.9687
   55MOL   H33626364   0.781   7.170   4.762 -0.8319  0.6263  2.6102
   55MOL   H33726365   0.576   7.175   4.903 -0.3052  3.7952 -1.3055
   55MOL   C33826366   0.754   7.319   4.406 -0.2317 -0.0016 -0.0984
   55MOL   C33926367   0.748   7.412   4.297 -0.3161  0.4170  0.4214
   55MOL   C34026368   0.749   7.356   4.169 -0.1840  0.4544  0.3911
   55MOL   C34126369   0.762   7.218   4.156  0.1043  0.4426 -0.5997
   55MOL   C34226370   0.767   7.127   4.266 -0.2097 -0.8920 -0.3971
   55MOL   C34326371   0.758   7.177   4.399 -0.2920  0.6400 -0.1279
   55MOL   S34426372   0.703   7.459   4.028  0.0862  0.0491 -0.1942
   55MOL   O34526373   0.767   7.405   3.908  0.2625  0.4438  0.5911
   55MOL   O34626374   0.742   7.595   4.066 -0.0138 -0.0751 -0.9056
   55MOL   C34726375   0.524   7.449   4.011  0.0152  0.2960 -0.2472
   55MOL   C34826376   0.473   7.380   3.904 -0.4524 -0.6391  0.2044
   55MOL   C34926377   0.334   7.356   3.892  1.0111 -0.1686 -0.3209
   55MOL   C35026378   0.242   7.408   3.986  0.1589 -0.2105  0.0671
   55MOL   C35126379   0.297   7.482   4.091 -0.0407  0.1930  0.1590
   55MOL   C35226380   0.435   7.503   4.103 -0.1252  0.2139 -0.8921
   55MOL   O35326381   0.109   7.374   3.982 -0.1208 -0.5026  0.9627
   55MOL   H35426382   0.774   7.345   4.509 -0.6543  0.3209 -0.0972
   55MOL   H35526383   0.758   7.517   4.319  0.4176  0.0378  2.0410
   55MOL   H35626384   0.759   7.181   4.055  0.8725  1.0499 -0.8524
   55MOL   H35726385   0.779   7.021   4.248  1.2943 -0.8601  0.3485
   55MOL   H35826386   0.543   7.354   3.826 -1.7026 -0.0067 -1.1791
   55MOL   H35926387   0.306   7.297   3.806  0.9305  0.4544 -0.7214
   55MOL   H36026388   0.227   7.535   4.155  0.6609  1.0012  0.2632
   55MOL   H36126389   0.481   7.550   4.189  0.8320 -0.5385 -0.9847
   55MOL   C36226390   0.033   7.224   3.813  0.3942 -0.7343 -0.5789
   55MOL   C36326391   8.393   7.194   3.689 -0.4164  0.1871 -0.9333
   55MOL   C36426392   8.343   7.305   3.612 -0.5710  0.2787 -0.3060
   55MOL   C36526393   8.345   7.432   3.668  0.4022 -0.6770  0.0280
   55MOL   C36626394   8.415   7.458   3.792  0.3168  0.0762 -0.5059
   55MOL   C36726395   0.047   7.354   3.863  0.5768  0.4864  0.2347
   55MOL   S36826396   8.282   7.278   3.448 -0.0898  0.0901  0.4259
   55MOL   O36926397   8.136   7.296   3.461 -0.2510  0.2790  0.6957
   55MOL   O37026398   8.340   7.151   3.398  0.1104 -0.0947 -0.1609
   55MOL   C37126399   8.362   7.405   3.348 -0.4012  0.7135 -0.2095
   55MOL   C37226400   0.077   7.427   3.361 -0.3382 -0.7323 -0.4925
   55MOL   C37326401   0.146   7.505   3.269  0.0802 -0.4560  0.0142
   55MOL   C37426402   0.073   7.565   3.164 -0.1649 -0.1628  1.0544
   55MOL   C37526403   8.356   7.543   3.151 -0.1692  0.1184 -0.7102
   55MOL   C37626404   8.288   7.460   3.241  0.7277  0.4454 -0.3305
   55MOL   O37726405   0.141   7.643   3.068  0.0746  0.5193 -0.1135
   55MOL   H37826406   0.079   7.145   3.870 -0.2829 -0.1748  0.7882
   55MOL   H37926407   8.401   7.093   3.652 -0.0306  0.5957 -1.9698
   55MOL   H38026408   8.290   7.513   3.621  2.2433  1.2047  1.0444
   55MOL   H38126409   0.000   7.564   3.813  1.0313  0.2098 -1.4611
   55MOL   H38226410   0.136   7.374   3.434 -0.3059  0.5987  0.4502
   55MOL   H38326411   0.253   7.517   3.275  0.1557 -0.8937 -0.4218
   55MOL   H38426412   8.320   7.598   3.065 -3.2626 -0.6698  0.0118
   55MOL   H38526413   8.182   7.441   3.228 -0.0608  3.2942  1.3385
   55MOL   C38626414   0.177   7.499   2.876 -0.2981  0.0525 -0.2039
   55MOL   C38726415   0.268   7.416   2.804  0.8632 -0.1790  0.0671
   55MOL   C38826416   0.405   7.427   2.833 -0.3215  0.0809  0.5877
   55MOL   C38926417   0.453   7.521   2.923 -0.2831  0.2583 -0.3847
   55MOL   C39026418   0.361   7.597   2.997  0.0798  0.6287 -0.4300
   55MOL   C39126419   0.226   7.579   2.980  0.2993  0.4946  0.0396
   55MOL   S39226420   0.505   7.292   2.770 -0.1624 -0.0299  0.1495
   55MOL   O39326421   0.640   7.289   2.829  0.3056  0.1675 -0.0603
   55MOL   O39426422   0.488   7.294   2.623 -0.3020  1.2646  0.0098
   55MOL   C39526423   0.418   7.147   2.828  0.4306  0.7074  0.0960
   55MOL   C39626424   0.343   7.061   2.745 -0.2323 -0.6176 -0.6550
   55MOL   C39726425   0.250   6.974   2.805  0.2048  0.0850 -0.5613
   55MOL   C39826426   0.233   6.960   2.942 -0.0133  0.3243 -0.2927
   55MOL   C39926427   0.308   7.047   3.019 -0.3325  0.3220 -0.0627
   55MOL   C40026428   0.392   7.145   2.970 -0.3590  0.2909  0.4611
   55MOL   O40126429   0.137   6.874   2.991 -0.3402  0.3053 -0.3333
   55MOL   H40226430   0.071   7.480   2.866 -0.2951  0.5806 -1.3299
   55MOL   H40326431   0.221   7.351   2.732 -3.2303  0.6973  1.7925
   55MOL   H40426432   0.560   7.526   2.936 -0.1451 -1.3456 -0.7423
   55MOL   H40526433   0.383   7.662   3.080 -0.5093  2.1447 -1.4373
   55MOL   H40626434   0.351   7.076   2.638  0.4778  0.8120 -0.4076
   55MOL   H40726435   0.194   6.903   2.745 -0.0008 -1.7620  1.7442
   55MOL   H40826436   0.286   7.054   3.124  2.2375 -0.0829  0.5469
   55MOL   H40926437   0.437   7.220   3.034  1.4236  0.3961 -0.8892
   55MOL   C41026438   0.185   6.826   3.222 -0.2262 -0.1466  0.7080
   55MOL   C41126439   0.229   6.735   3.318  0.2093 -0.9190  0.0604
   55MOL   C41226440   0.280   6.614   3.279 -0.4932  0.1073  0.0034
   55MOL   C41326441   0.279   6.573   3.146  0.9543  0.0972  0.6615
   55MOL   C41426442   0.208   6.658   3.053 -0.6757  0.6298  0.3468
   55MOL   C41526443   0.179   6.787   3.086 -0.0904 -0.5260 -0.4113
   55MOL   S41626444   0.356   6.506   3.394 -0.1793  0.0682 -0.1454
   55MOL   O41726445   0.327   6.368   3.346  0.1052  0.0263  0.2740
   55MOL   O41826446   0.316   6.544   3.531 -0.3932 -0.4291 -0.2492
   55MOL   C41926447   0.534   6.541   3.374 -0.3637 -0.1699  0.7316
   55MOL   C42026448   0.617   6.484   3.473  0.3131  0.0220 -0.2982
   55MOL   C42126449   0.758   6.499   3.466 -0.0494  0.2683  0.5272
   55MOL   C42226450   0.815   6.553   3.350 -0.0052  0.2564 -0.1343
   55MOL   C42326451   0.733   6.595   3.245 -0.5810  0.0404  0.3389
   55MOL   C42426452   0.593   6.598   3.256  0.7102 -0.2929  0.3286
   55MOL   O42526453   0.949   6.559   3.340 -0.4560  0.5204 -0.4381
   55MOL   H42626454   0.164   6.929   3.250  0.6458  0.4503 -0.7734
   55MOL   H42726455   0.213   6.758   3.422 -0.2671 -2.0021  0.2294
   55MOL   H42826456   0.321   6.478   3.118  3.2765  1.7975 -1.9196
   55MOL   H42926457   0.194   6.624   2.951  1.0775  3.2150 -0.8317
   55MOL   H43026458   0.567   6.438   3.556 -3.5431  1.3798 -1.7720
   55MOL   H43126459   0.820   6.462   3.547 -0.2171 -0.4518  0.3361
   55MOL   H43226460   0.772   6.636   3.153 -3.7171  0.4525 -0.8571
   55MOL   H43326461   0.530   6.639   3.178 -0.3585 -0.7398  0.9441
   55MOL   C43426462   1.059   6.459   3.154 -0.2753  0.4121  0.7381
   55MOL   C43526463   1.141   6.358   3.099  0.0430 -0.3249  0.0248
   55MOL   C43626464   1.172   6.248   3.181 -0.0180  0.3699  0.4651
   55MOL   C43726465   1.128   6.246   3.314 -0.1022 -0.3412 -0.1848
   55MOL   C43826466   1.057   6.352   3.372  0.7753 -0.1552 -0.1723
   55MOL   C43926467   1.015   6.453   3.286  0.5260 -0.2807 -0.6008
   55MOL   S44026468   1.271   6.116   3.114  0.0764 -0.3251 -0.2418
   55MOL   O44126469   1.307   6.035   3.234  0.3056 -0.4361 -0.1870
   55MOL   O44226470   1.376   6.173   3.029  0.7790  0.3288 -0.6126
   55MOL   C44326471   1.168   6.008   3.018  0.0662  0.2900  0.9060
   55MOL   C44426472   1.123   5.890   3.077  0.4385  0.8709  0.2399
   55MOL   C44526473   1.052   5.803   2.997 -0.2249 -0.3017  0.3782
   55MOL   C44626474   1.013   5.836   2.866  0.5131 -0.4828  0.7830
   55MOL   C44726475   1.062   5.957   2.803  0.5000 -0.2522 -0.4086
   55MOL   C44826476   1.141   6.045   2.886 -0.0811  0.3804  1.0603
   55MOL   O44926477   0.956   5.743   2.786  0.0751  0.2621  0.2079
   55MOL   H45026478   1.021   6.543   3.098 -0.5375 -0.3877 -0.2853
   55MOL   H45126479   1.174   6.368   2.996 -1.6570  0.1427 -0.4862
   55MOL   H45226480   1.150   6.163   3.378 -3.1626 -0.3740  0.8919
   55MOL   H45326481   1.015   6.341   3.471  2.1692 -2.1037  0.2204
   55MOL   H45426482   1.143   5.858   3.178  0.8507  3.9188  1.1813
   55MOL   H45526483   1.032   5.703   3.034  0.2999 -0.2645  0.7745
   55MOL   H45626484   1.040   5.986   2.701  0.4028 -0.7205 -0.5200
   55MOL   H45726485   1.190   6.132   2.846  0.2915  0.5328  1.8431
   55MOL   C45826486   0.735   5.764   2.884  0.3662  0.3255  0.5823
   55MOL   C45926487   0.610   5.711   2.916 -0.6356  0.4933 -0.4357
   55MOL   C46026488   0.592   5.569   2.901 -0.2659  0.5789 -0.5796
   55MOL   C46126489   0.689   5.487   2.846 -0.8299  0.7400  0.9547
   55MOL   C46226490   0.817   5.543   2.806  0.8638 -0.0118  0.1607
   55MOL   C46326491   0.842   5.683   2.827 -0.1845 -0.2357  0.2046
   55MOL   S46426492   0.444   5.486   2.968  0.4010 -0.1055 -0.2869
   55MOL   O46526493   0.398   5.400   2.856 -0.1694 -0.4296  0.0100
   55MOL   O46626494   0.356   5.595   3.014  0.4535  0.2562  0.6576
   55MOL   C46726495   0.479   5.383   3.114  0.1143 -0.2624 -0.2615
   55MOL   C46826496   0.604   5.322   3.132 -0.2564  0.6725  0.3052
   55MOL   C46926497   0.616   5.238   3.248 -0.3966  0.3505  0.8916
   55MOL   C47026498   0.509   5.223   3.336  0.2833  0.4330  0.1732
   55MOL   C47126499   0.382   5.292   3.318 -0.0293 -0.1644 -0.4630
   55MOL   C47226500   0.373   5.383   3.212  0.5004  0.5130  0.3278
   55MOL   O47326501   0.534   5.147   3.444 -0.2254 -0.6098 -0.3587
   55MOL   H47426502   0.751   5.869   2.903  0.6662  0.3465  0.2196
   55MOL   H47526503   0.535   5.771   2.966 -0.9091  0.8617 -1.2871
   55MOL   H47626504   0.670   5.381   2.842  0.7548  0.4588  0.6400
   55MOL   H47726505   0.896   5.477   2.773  2.8455  1.6041  1.5380
   55MOL   H47826506   0.674   5.338   3.052 -2.5119  1.1988 -1.6248
   55MOL   H47926507   0.713   5.194   3.266 -0.2050  0.7740  0.9055
   55MOL   H48026508   0.306   5.291   3.395  0.9707  1.5705  0.6116
   55MOL   H48126509   0.287   5.446   3.197  0.7590  0.7599 -0.1080
   55MOL   H48226510   0.621   5.110   3.443  0.8443  1.7509 -0.4194
   56MOL     C126511   1.254   3.328   2.539 -0.2685 -0.9690  0.2482
   56MOL     C226512   1.337   3.215   2.514  0.0763 -0.6214 -0.1518
   56MOL     C326513   1.331   3.106   2.604  0.1963  0.2020  0.1650
   56MOL     C426514   1.247   3.113   2.713  1.1939  0.3785 -0.7012
   56MOL     C526515   1.182   3.230   2.740  0.0787 -0.1719  0.1213
   56MOL     C626516   1.180   3.347   2.654  0.1984  0.2801 -0.2818
   56MOL     S726517   1.436   2.958   2.558 -0.4992 -0.0835 -0.0211
   56MOL     O826518   1.532   2.933   2.668 -0.2816  0.5088  0.2179
   56MOL     O926519   1.494   2.978   2.425 -0.1766 -0.0896  0.0298
   56MOL    C1026520   1.332   2.812   2.556  0.0469  0.3481  0.8038
   56MOL    C1126521   1.376   2.694   2.490  0.4904  0.5147 -0.6366
   56MOL    C1226522   1.298   2.589   2.452 -0.7827  0.0862 -0.1442
   56MOL    C1326523   1.160   2.594   2.489 -0.4178  0.4350  0.7078
   56MOL    C1426524   1.107   2.712   2.545 -0.0111  0.3443  0.3651
   56MOL    C1526525   1.190   2.818   2.578 -0.8528 -0.8534 -0.2700
   56MOL    O1626526   1.078   2.487   2.465  0.6667 -0.4742 -0.2277
   56MOL    H1726527   1.261   3.406   2.464 -0.0442 -0.1669  1.0965
   56MOL    H1826528   1.394   3.221   2.422  0.2694  1.4282  0.0938
   56MOL    H1926529   1.260   3.026   2.776 -1.0979 -0.0640 -0.7918
   56MOL    H2026530   1.136   3.243   2.837 -1.4440 -1.0192 -0.4553
   56MOL    H2126531   1.481   2.689   2.467  0.1820  2.6309 -2.6410
   56MOL    H2226532   1.334   2.499   2.406  1.3213  0.4131  0.7837
   56MOL    H2326533   1.007   2.711   2.585 -0.0157  1.1008  0.3914
   56MOL    H2426534   1.151   2.908   2.621 -2.4502 -0.6832 -2.0202
   56MOL    H2526535   1.142   3.446   2.673  0.8175  0.4766 -0.0438
   56MOL    C2626536   1.094   2.394   2.694  0.0545  0.7069  0.1574
   56MOL    C2726537   1.079   2.279   2.775  0.1742  0.1971  0.4093
   56MOL    C2826538   1.035   2.160   2.717  0.1188  0.2223 -0.3185
   56MOL    C2926539   1.025   2.147   2.578 -0.1059 -0.4060 -0.3930
   56MOL    C3026540   1.048   2.252   2.492 -0.0779 -0.2292  0.0648
   56MOL    C3126541   1.079   2.380   2.549  0.1694  0.6691  0.3206
   56MOL    S3226542   0.992   2.023   2.812 -0.0199  0.1140 -0.3343
   56MOL    O3326543   1.112   2.002   2.896  0.1148 -0.0684 -0.2124
   56MOL    O3426544   0.941   1.915   2.732  0.1591  0.4494  0.2377
   56MOL    C3526545   0.848   2.075   2.908  0.3569 -0.2237 -0.3148
   56MOL    C3626546   0.833   2.041   3.047  0.1215  0.2642  0.2180
   56MOL    C3726547   0.725   2.095   3.114 -0.2755  0.2194  0.8562
   56MOL    C3826548   0.629   2.173   3.055 -0.2217  0.0156  0.1397
   56MOL    C3926549   0.642   2.211   2.918  0.6205 -0.0281  0.2049
   56MOL    C4026550   0.749   2.158   2.844  0.1687 -0.1857  0.5657
   56MOL    O4126551   0.526   2.234   3.124 -0.3580 -0.0731 -0.7493
   56MOL    H4226552   1.106   2.488   2.745 -1.7966  1.6263 -1.0940
   56MOL    H4326553   1.103   2.273   2.880 -1.3217 -0.3015  0.7493
   56MOL    H4426554   0.991   2.053   2.537  0.0427 -1.1344  1.0915
   56MOL    H4526555   1.024   2.238   2.388  0.2030 -1.0746  0.1041
   56MOL    H4626556   0.907   1.981   3.098  0.9975 -0.6439 -2.0598
   56MOL    H4726557   0.708   2.056   3.214  2.4351  0.3644  1.4083
   56MOL    H4826558   0.576   2.280   2.868 -0.9755 -2.7842 -1.5919
   56MOL    H4926559   0.766   2.174   2.738  2.5633  1.0037  1.1072
   56MOL    C5026560   0.450   2.125   3.317 -0.0493 -0.4799 -0.8029
   56MOL    C5126561   0.355   2.041   3.387  0.1735 -0.0208  0.3648
   56MOL    C5226562   0.245   1.990   3.316 -0.0358  1.2827  0.0360
   56MOL    C5326563   0.223   2.028   3.185  0.6503 -0.9289 -0.6814
   56MOL    C5426564   0.311   2.112   3.117 -0.1845 -0.4698 -0.0107
   56MOL    C5526565   0.429   2.158   3.182 -0.3132  0.3829 -0.2184
   56MOL    S5626566   0.124   1.904   3.418 -0.4619 -0.1938 -0.3724
   56MOL    O5726567   0.008   1.991   3.424  0.4158 -0.1849  0.4087
   56MOL    O5826568   0.174   1.852   3.545  0.3351 -0.3198  0.2573
   56MOL    C5926569   0.069   1.762   3.317 -0.4595 -0.2315  0.1634
   56MOL    C6026570   0.161   1.695   3.240  0.0328 -0.4905 -0.3297
   56MOL    C6126571   0.111   1.590   3.162 -0.0994  0.1590 -0.0497
   56MOL    C6226572   8.403   1.542   3.175  0.0951 -0.1878 -0.8886
   56MOL    C6326573   8.315   1.609   3.259  0.2406 -0.0681 -0.0155
   56MOL    C6426574   8.363   1.720   3.328  0.9471 -0.1059  0.0494
   56MOL    O6526575   8.369   1.434   3.099  0.1210  0.0321  0.0557
   56MOL    H6626576   0.535   2.163   3.372  1.1284 -2.6284 -1.0866
   56MOL    H6726577   0.370   2.018   3.491 -2.7030 -0.2077  0.8000
   56MOL    H6826578   0.126   1.990   3.153  0.1059  0.4774 -0.7313
   56MOL    H6926579   0.288   2.140   3.015 -1.9453 -3.6235 -0.5365
   56MOL    H7026580   0.268   1.714   3.242  0.0813 -0.5941 -1.7344
   56MOL    H7126581   0.175   1.539   3.091  0.1789 -0.8896  0.9309
   56MOL    H7226582   8.212   1.577   3.255  0.3378 -0.5943  1.3740
   56MOL    H7326583   8.292   1.760   3.399 -1.0788 -2.9594 -0.2623
   56MOL    C7426584   0.024   1.238   3.202 -0.1964 -0.0393  0.5399
   56MOL    C7526585   0.002   1.114   3.269 -0.0764 -0.0874  0.0375
   56MOL    C7626586   8.294   1.085   3.299  0.1767  0.4482 -0.4067
   56MOL    C7726587   8.184   1.176   3.282  0.1083 -0.0192  0.1387
   56MOL    C7826588   8.207   1.287   3.199  0.0760 -0.4799  0.0508
   56MOL    C7926589   8.340   1.321   3.163  0.2936  0.3955 -0.2755
   56MOL    S8026590   8.266   0.947   3.409 -0.1499 -0.4553 -0.5917
   56MOL    O8126591   8.335   0.839   3.351  0.5242 -0.1783  0.7168
   56MOL    O8226592   8.127   0.931   3.440 -0.1525  0.2868  0.2184
   56MOL    C8326593   8.366   0.981   3.562  0.1892 -0.3247 -0.1442
   56MOL    C8426594   8.314   1.072   3.666 -0.5437 -0.9165 -0.5715
   56MOL    C8526595   8.391   1.091   3.782 -0.2755  0.6132  0.5969
   56MOL    C8626596   0.089   1.029   3.793 -0.0372 -0.2869 -0.1540
   56MOL    C8726597   0.134   0.944   3.695 -0.5643  0.3563 -0.1790
   56MOL    C8826598   0.059   0.910   3.583 -0.5064 -0.6317  0.1640
   56MOL    O8926599   0.184   1.067   3.886  0.2379  0.1740  0.3349
   56MOL    H9026600   0.118   1.274   3.162 -1.1790  0.2206 -1.5840
   56MOL    H9126601   0.082   1.043   3.281 -0.1854 -0.0617  0.9476
   56MOL    H9226602   8.091   1.146   3.328  0.4853 -2.5327 -0.6742
   56MOL    H9326603   8.125   1.354   3.180 -0.1472 -0.7126  0.1963
   56MOL    H9426604   8.212   1.107   3.667  0.2775  1.7606 -2.9325
   56MOL    H9526605   8.364   1.160   3.861 -3.1607 -0.7541  0.8719
   56MOL    H9626606   0.230   0.895   3.697 -1.6142 -1.7525  0.3798
   56MOL    H9726607   0.070   0.842   3.501  1.3096  0.1580 -0.2748
   56MOL    C9826608   0.190   1.204   4.086 -0.4376  0.4885  0.8173
   56MOL    C9926609   0.162   1.230   4.221  0.1624 -0.3945  0.4027
   56MOL   C10026610   0.076   1.140   4.288  0.6452 -0.4806 -0.5050
   56MOL   C10126611   0.030   1.024   4.218 -0.4559  0.8499 -0.0375
   56MOL   C10226612   0.061   1.003   4.081 -0.1641 -0.3375 -0.1108
   56MOL   C10326613   0.145   1.093   4.017 -0.7317 -0.6868 -0.3795
   56MOL   S10426614   0.043   1.152   4.461  0.1202 -0.0617 -0.2002
   56MOL   O10526615   8.323   1.139   4.471  0.3506  0.1125  0.0536
   56MOL   O10626616   0.116   1.267   4.511  0.2830 -0.0117  0.7669
   56MOL   C10726617   0.114   1.005   4.536  0.2440  0.0198 -0.2755
   56MOL   C10826618   0.250   1.012   4.574  0.1552  0.2433  0.0418
   56MOL   C10926619   0.308   0.900   4.631 -0.1476 -0.1699  0.3374
   56MOL   C11026620   0.237   0.781   4.645 -0.4571 -0.2146 -0.2388
   56MOL   C11126621   0.103   0.776   4.605  0.1799  0.2099 -0.0238
   56MOL   C11226622   0.034   0.890   4.554  0.2133 -0.1659 -0.2753
   56MOL   O11326623   0.294   0.677   4.705 -0.0364  0.3731 -0.0962
   56MOL   H11426624   0.254   1.272   4.031  0.6931  1.4132  3.1812
   56MOL   H11526625   0.209   1.315   4.268 -0.7027 -0.7475  1.9357
   56MOL   H11626626   8.391   0.957   4.273 -0.0990  0.6605  0.1460
   56MOL   H11726627   0.019   0.923   4.022  0.7663 -0.2042 -0.9623
   56MOL   H11826628   0.302   1.106   4.569  1.4029 -0.4387 -0.0879
   56MOL   H11926629   0.412   0.907   4.658 -0.6122  1.0923  1.8589
   56MOL   H12026630   0.050   0.682   4.619  1.9083 -0.7752  0.0537
   56MOL   H12126631   8.358   0.893   4.516  0.1215  1.8341  0.0724
   56MOL   C12226632   0.233   0.483   4.846  0.5521 -0.4626 -0.6969
   56MOL   C12326633   0.178   0.430   4.966 -0.1071  0.2000 -0.3805
   56MOL   C12426634   0.150   0.522   5.067 -0.3628 -0.1938 -0.1062
   56MOL   C12526635   0.157   0.660   5.044  0.2850 -0.0910 -0.3940
   56MOL   C12626636   0.203   0.710   4.925 -0.2988 -0.4221  0.0344
   56MOL   C12726637   0.244   0.624   4.822  0.1324  0.4003 -0.7766
   56MOL   S12826638   0.096   0.457   5.222  0.1265 -0.3091 -0.3164
   56MOL   O12926639   0.014   0.335   5.186  0.1219 -0.7284 -0.3667
   56MOL   O13026640   0.037   0.570   5.295  0.1644  0.0802  0.3401
   56MOL   C13126641   0.232   0.411   5.336 -0.4034 -0.4817  0.5192
   56MOL   C13226642   0.218   0.411   5.475 -0.0358  0.5429  0.4306
   56MOL   C13326643   0.324   0.383   5.560 -0.4393  0.5571 -0.5128
   56MOL   C13426644   0.455   0.372   5.509  0.7275 -0.3271  0.1860
   56MOL   C13526645   0.474   0.379   5.368 -0.8655  0.6646 -0.6189
   56MOL   C13626646   0.360   0.392   5.282 -1.0941  0.0834  0.1918
   56MOL   O13726647   0.554   0.344   5.598 -0.1586  0.6075  0.1085
   56MOL   H13826648   0.258   0.418   4.764 -0.5741  0.9054 -2.1627
   56MOL   H13926649   0.159   0.324   4.976  0.6700 -0.3530 -4.0393
   56MOL   H14026650   0.135   0.731   5.122  0.4412  0.7172 -1.0812
   56MOL   H14126651   0.226   0.815   4.916  1.0111 -0.7684 -0.6362
   56MOL   H14226652   0.119   0.427   5.517 -0.6240  0.8995 -1.0663
   56MOL   H14326653   0.293   0.379   5.663 -0.2279 -0.7300 -0.4904
   56MOL   H14426654   0.571   0.351   5.330 -0.9077  1.6534 -1.5124
   56MOL   H14526655   0.365   0.379   5.175  1.5758  0.5127  0.2236
   56MOL   C14626656   0.611   0.105   5.577  0.4678 -0.5313 -0.5723
   56MOL   C14726657   0.598   8.397   5.625  0.1902 -0.0190  0.7116
   56MOL   C14826658   0.545   8.373   5.757 -0.5529  0.0864  0.7801
   56MOL   C14926659   0.492   0.053   5.833 -0.5132 -0.6731  0.6195
   56MOL   C15026660   0.498   0.181   5.778  0.2727 -0.5517  0.9689
   56MOL   C15126661   0.554   0.212   5.650  0.9302 -0.4280  0.3316
   56MOL   S15226662   0.533   8.216   5.828 -0.3292  0.0667 -0.1225
   56MOL   O15326663   0.408   8.213   5.903  0.0306  0.0551 -0.3346
   56MOL   O15426664   0.653   8.201   5.904  0.0052  0.5877  0.3251
   56MOL   C15526665   0.519   8.091   5.699 -0.3212  0.3301  0.4573
   56MOL   C15626666   0.625   8.004   5.668  0.1089 -0.9592 -0.2738
   56MOL   C15726667   0.609   7.906   5.567  0.0335 -0.0862  0.1848
   56MOL   C15826668   0.499   7.918   5.481 -0.5381 -0.2359 -0.7108
   56MOL   C15926669   0.393   8.004   5.511  0.4690  0.1913  0.4667
   56MOL   C16026670   0.401   8.091   5.620  0.7364  0.2274 -0.0846
   56MOL   O16126671   0.497   7.846   5.373  0.3350  0.1129  0.5826
   56MOL   H16226672   0.670   0.124   5.489  0.3632  1.8587 -0.1644
   56MOL   H16326673   0.647   8.320   5.567 -1.3076  0.5684 -1.3733
   56MOL   H16426674   0.457   0.027   5.932 -2.5535 -1.0644 -0.2012
   56MOL   H16526675   0.483   0.271   5.835 -1.0514  1.0345 -1.7886
   56MOL   H16626676   0.714   8.004   5.730  1.3161 -1.7581 -1.9539
   56MOL   H16726677   0.696   7.845   5.542 -1.6217 -2.5052  0.1677
   56MOL   H16826678   0.305   8.004   5.448  0.4272  1.2852  0.5087
   56MOL   H16926679   0.320   8.158   5.642 -1.1632 -2.0192  0.0125
   56MOL   C17026680   0.464   7.948   5.153 -0.1347 -0.4093  0.0065
   56MOL   C17126681   0.518   8.010   5.042 -0.4378  0.0711  0.1737
   56MOL   C17226682   0.656   8.014   5.028 -0.3739  0.3137 -0.2529
   56MOL   C17326683   0.746   7.973   5.126 -0.5645  0.2157  0.2080
   56MOL   C17426684   0.690   7.916   5.246  0.3361 -0.0935  0.2746
   56MOL   C17526685   0.549   7.902   5.258  0.2141  1.2897  0.8377
   56MOL   S17626686   0.723   8.082   4.879 -0.3086 -0.1837 -0.2899
   56MOL   O17726687   0.634   8.035   4.769 -0.1903  0.1907 -0.0947
   56MOL   O17826688   0.871   8.064   4.868 -0.8098 -0.1504  0.4868
   56MOL   C17926689   0.700   8.260   4.896 -0.8994 -0.5069 -0.7775
   56MOL   C18026690   0.788   8.336   4.974  0.1452  0.9876  0.2032
   56MOL   C18126691   0.769   0.053   4.974  0.2450 -0.5802  0.3421
   56MOL   C18226692   0.672   0.117   4.894  0.0416 -0.2769 -0.3953
   56MOL   C18326693   0.580   0.042   4.817 -0.3584  0.2714  1.1206
   56MOL   C18426694   0.602   8.328   4.815 -0.0726  0.7245  0.7270
   56MOL   O18526695   0.667   0.254   4.891 -0.0235  0.3619 -0.2711
   56MOL   H18626696   0.357   7.942   5.166 -0.2093  0.5514 -0.1461
   56MOL   H18726697   0.454   8.053   4.967 -0.2136 -0.1241 -0.1311
   56MOL   H18826698   0.852   7.973   5.103 -1.2306  1.3041 -3.1794
   56MOL   H18926699   0.755   7.869   5.319 -0.6205  0.4147  1.4629
   56MOL   H19026700   0.870   8.283   5.020 -0.2731 -0.9605 -1.2479
   56MOL   H19126701   0.839   0.107   5.036 -0.0029 -0.8038  0.8191
   56MOL   H19226702   0.498   0.089   4.765  0.2715 -0.0245 -0.1840
   56MOL   H19326703   0.540   8.267   4.752 -0.0926  1.1146  0.3716
   56MOL   C19426704   0.810   0.357   4.731  0.3033 -0.0283  0.2652
   56MOL   C19526705   0.822   0.430   4.610 -0.2492  0.3187  0.6443
   56MOL   C19626706   0.713   0.466   4.532  0.0708 -0.1335 -0.4557
   56MOL   C19726707   0.587   0.427   4.574  0.3574  0.1096  0.5980
   56MOL   C19826708   0.572   0.362   4.698  0.3913  0.0979  0.1364
   56MOL   C19926709   0.685   0.322   4.780 -0.0824 -0.3250 -0.5979
   56MOL   S20026710   0.741   0.576   4.388 -0.4981 -0.1707  0.2408
   56MOL   O20126711   0.617   0.584   4.309 -0.3828 -0.7048 -0.0158
   56MOL   O20226712   0.863   0.549   4.315 -0.3068  0.1667  0.3047
   56MOL   C20326713   0.751   0.746   4.444  0.4687  0.2546  0.0918
   56MOL   C20426714   0.824   0.827   4.361  0.1333 -0.7323  0.6143
   56MOL   C20526715   0.839   0.967   4.389  0.0843 -0.2275  0.2414
   56MOL   C20626716   0.776   1.018   4.506 -0.1795 -0.4111 -0.8025
   56MOL   C20726717   0.712   0.928   4.599 -0.6757 -0.0984 -0.1706
   56MOL   C20826718   0.696   0.792   4.565 -0.3523  0.1915 -0.3397
   56MOL   O20926719   0.775   1.156   4.523  0.2728 -0.0023  0.0551
   56MOL   H21026720   0.899   0.319   4.779  0.2990  2.1341  2.0536
   56MOL   H21126721   0.925   0.455   4.591  0.1181 -0.8406  1.0644
   56MOL   H21226722   0.504   0.440   4.506 -0.0507 -1.2694  0.8255
   56MOL   H21326723   0.474   0.327   4.726  0.4013  0.4723  0.6509
   56MOL   H21426724   0.876   0.790   4.274  1.8457  0.9731  0.8855
   56MOL   H21526725   0.898   1.032   4.325 -0.2254 -0.5396 -0.3706
   56MOL   H21626726   0.673   0.948   4.698 -2.6745  1.2747 -1.2256
   56MOL   H21726727   0.652   0.725   4.637  1.5338 -0.9356 -0.1953
   56MOL   C21826728   0.715   1.240   4.743 -0.1951  0.0496 -0.1953
   56MOL   C21926729   0.617   1.289   4.831  0.2136 -0.2794 -0.1374
   56MOL   C22026730   0.482   1.300   4.794  0.0673  0.0341  0.0415
   56MOL   C22126731   0.448   1.275   4.664  0.6243 -0.3965 -1.2750
   56MOL   C22226732   0.545   1.227   4.580 -0.6065  0.4139 -0.0496
   56MOL   C22326733   0.680   1.206   4.613  0.2090  0.2270  0.4445
   56MOL   S22426734   0.354   1.378   4.905  0.0104  0.2846  0.1722
   56MOL   O22526735   0.423   1.449   5.016  0.1398 -0.1037 -0.2379
   56MOL   O22626736   0.255   1.276   4.933  0.3479 -0.3583 -0.1562
   56MOL   C22726737   0.262   1.493   4.798  0.6414  0.8507  0.2734
   56MOL   C22826738   0.331   1.571   4.697  0.4620  0.2489  1.4047
   56MOL   C22926739   0.251   1.640   4.596 -0.1718 -0.8320 -0.3993
   56MOL   C23026740   0.114   1.641   4.608 -0.1199  0.8226  0.2316
   56MOL   C23126741   0.048   1.565   4.710  0.1234  0.7896 -1.0236
   56MOL   C23226742   0.123   1.501   4.805 -0.0941 -0.7197  0.6419
   56MOL   O23326743   0.034   1.709   4.522  0.2086 -0.0219 -0.4312
   56MOL   H23426744   0.814   1.225   4.785 -1.7192 -1.9856  2.9071
   56MOL   H23526745   0.644   1.311   4.934  0.5506  1.1319 -0.5207
   56MOL   H23626746   0.347   1.295   4.631  1.1293  1.9214 -1.4883
   56MOL   H23726747   0.516   1.214   4.476 -0.1272  3.5305 -0.6232
   56MOL   H23826748   0.439   1.560   4.691  0.3328  0.0940 -2.1254
   56MOL   H23926749   0.300   1.693   4.516  0.2579 -1.6071 -0.6638
   56MOL   H24026750   8.365   1.571   4.717  0.0896  0.8625 -1.6682
   56MOL   H24126751   0.066   1.451   4.882  0.3295  0.8438  1.9995
   56MOL   C24226752   8.372   1.519   4.403 -0.1683 -0.4528 -0.1833
   56MOL   C24326753   8.267   1.440   4.342  0.3813  0.0967 -0.1841
   56MOL   C24426754   8.141   1.499   4.351  0.1034 -0.2877 -0.4895
   56MOL   C24526755   8.121   1.626   4.409  0.0934  0.2993 -0.0379
   56MOL   C24626756   8.225   1.696   4.466 -0.5730 -0.8850 -0.4801
   56MOL   C24726757   8.357   1.646   4.465  0.6258  0.5859  0.4863
   56MOL   S24826758   7.991   1.426   4.298 -0.5087  0.6101 -0.3626
   56MOL   O24926759   7.962   1.473   4.161  0.2951  0.0099  0.5607
   56MOL   O25026760   7.894   1.451   4.405 -0.4093 -0.4379 -0.4216
   56MOL   C25126761   8.025   1.250   4.286  0.2842 -0.5816 -0.7761
   56MOL   C25226762   8.088   1.201   4.170  0.1477  0.1916  0.1027
   56MOL   C25326763   8.120   1.062   4.160 -0.4251  0.0710 -0.8876
   56MOL   C25426764   8.063   0.976   4.254 -0.0049  0.5715  0.1279
   56MOL   C25526765   7.995   1.029   4.362 -0.5172 -0.1410  0.6454
   56MOL   C25626766   7.971   1.165   4.381  0.3488 -0.4412  0.3805
   56MOL   O25726767   8.073   0.842   4.247 -0.1826  0.4614  0.2752
   56MOL   H25826768   0.050   1.488   4.413  0.8160  2.5968 -0.1663
   56MOL   H25926769   8.288   1.347   4.292  0.6174  0.6414 -1.1102
   56MOL   H26026770   8.018   1.660   4.415 -0.4898 -1.4958  0.2287
   56MOL   H26126771   8.196   1.791   4.509  0.2326 -1.0717  0.4836
   56MOL   H26226772   8.115   1.274   4.096  0.1736 -0.7177 -0.8031
   56MOL   H26326773   8.177   1.024   4.077 -1.0538  0.6614 -1.5951
   56MOL   H26426774   7.960   0.964   4.441 -1.0151 -1.0147 -0.2797
   56MOL   H26526775   7.907   1.197   4.462 -2.1887 -0.8777 -1.4115
   56MOL   C26626776   8.227   0.711   4.124 -0.0603  0.3949  0.1557
   56MOL   C26726777   8.266   0.643   4.005  0.0519  0.2226  0.5200
   56MOL   C26826778   8.185   0.655   3.892  0.0015 -0.1053 -0.3916
   56MOL   C26926779   8.067   0.734   3.895 -0.1539  0.3403  0.2020
   56MOL   C27026780   8.029   0.796   4.016 -0.5240 -0.2490  0.0509
   56MOL   C27126781   8.111   0.787   4.127 -0.0131  0.6642 -0.0657
   56MOL   S27226782   8.224   0.562   3.741  0.3044  0.4960 -0.2672
   56MOL   O27326783   8.310   0.650   3.658  0.5158  0.2500 -0.0091
   56MOL   O27426784   8.090   0.517   3.692  0.4283 -0.2826  0.1018
   56MOL   C27526785   8.310   0.412   3.787 -0.8439  0.7266 -0.3864
   56MOL   C27626786   0.029   0.426   3.808  0.1818  0.1204  0.3032
   56MOL   C27726787   0.097   0.317   3.868  0.1289  0.5481 -0.0003
   56MOL   C27826788   0.031   0.195   3.904 -0.9476 -0.3038 -0.9515
   56MOL   C27926789   8.323   0.185   3.879 -0.3117 -0.0473 -0.6215
   56MOL   C28026790   8.252   0.286   3.810 -0.1415  0.2126 -0.3737
   56MOL   O28126791   0.097   0.088   3.970 -0.2015 -0.5196  0.2033
   56MOL   H28226792   8.295   0.701   4.206 -0.6419  0.5879  0.6639
   56MOL   H28326793   8.356   0.584   4.010 -0.0950 -0.0805 -0.2236
   56MOL   H28426794   8.017   0.745   3.800 -0.6395  2.0680  0.6503
   56MOL   H28526795   7.940   0.857   4.019 -0.5075 -0.0783 -2.0226
   56MOL   H28626796   0.074   0.520   3.778  2.5277 -0.2014  2.6686
   56MOL   H28726797   0.205   0.322   3.878 -0.0105  1.8928  0.9877
   56MOL   H28826798   8.272   0.096   3.913 -0.3555 -0.7050 -2.3970
   56MOL   H28926799   8.148   0.265   3.790  0.4745 -0.1028 -3.3795
   56MOL   C29026800   0.043   0.177   4.193 -0.1946 -0.2072  0.5380
   56MOL   C29126801   0.069   0.172   4.333 -0.3240  0.3184 -1.2093
   56MOL   C29226802   0.183   0.107   4.387 -0.1420 -0.0366 -0.0905
   56MOL   C29326803   0.271   0.044   4.292 -0.0911 -0.4009  0.6887
   56MOL   C29426804   0.243   0.034   4.155  0.0152  0.5856  0.0794
   56MOL   C29526805   0.127   0.102   4.105  0.1351 -0.6094 -0.3757
   56MOL   S29626806   0.240   0.113   4.559  0.4276 -0.0030  0.7529
   56MOL   O29726807   0.286   0.252   4.582  0.0884  0.2451 -0.3312
   56MOL   O29826808   0.338   0.006   4.579 -0.1450 -0.2141  0.4094
   56MOL   C29926809   0.099   0.078   4.674 -0.4063 -0.2617 -0.1048
   56MOL   C30026810   0.112   0.115   4.810  0.4702  0.4927  0.0751
   56MOL   C30126811   0.010   0.086   4.902 -0.9504  0.3178  0.1076
   56MOL   C30226812   8.312   0.038   4.851  0.1885 -0.3351 -0.8867
   56MOL   C30326813   8.297   0.007   4.716  0.0208  0.5113  0.4935
   56MOL   C30426814   8.402   0.019   4.629  0.0134  0.2637 -0.3467
   56MOL   O30526815   8.212   0.009   4.936  0.5802  0.1128  0.0791
   56MOL   H30626816   8.384   0.229   4.149  1.7331  1.3373 -1.4180
   56MOL   H30726817   0.015   0.229   4.407 -2.7801 -1.7747 -1.3201
   56MOL   H30826818   0.360   8.420   4.327 -0.5704 -0.9241  1.1953
   56MOL   H30926819   0.305   8.394   4.095 -0.7896  1.0340 -1.2607
   56MOL   H31026820   0.212   0.142   4.840  0.4135 -0.3463  1.0340
   56MOL   H31126821   0.015   0.105   5.008  0.3595  0.3189  0.0533
   56MOL   H31226822   8.209   8.377   4.685 -1.2185  3.0802 -0.7220
   56MOL   H31326823   8.389   8.408   4.528 -0.8307 -1.7535  0.4506
   56MOL   C31426824   8.086   0.218   4.957 -0.2340  0.4506 -0.3169
   56MOL   C31526825   7.980   0.303   4.916  0.3045  0.0181 -0.6254
   56MOL   C31626826   7.881   0.244   4.825 -0.4946  0.1493  0.1708
   56MOL   C31726827   7.894   0.112   4.783  0.5643  0.3526 -0.6166
   56MOL   C31826828   8.004   0.037   4.823 -0.3949  0.9480  0.0194
   56MOL   C31926829   8.100   0.086   4.911 -0.2658  0.1376 -0.0270
   56MOL   S32026830   7.761   0.357   4.754  0.1195 -0.3055  0.5387
   56MOL   O32126831   7.765   0.483   4.832  0.1799  0.4705 -0.3741
   56MOL   O32226832   7.630   0.288   4.743  0.4107  0.4740 -0.1465
   56MOL   C32326833   7.830   0.400   4.595  0.7509 -0.6363  0.5186
   56MOL   C32426834   7.941   0.489   4.578 -0.6781 -0.2281 -0.2218
   56MOL   C32526835   7.979   0.530   4.447 -0.2240  0.2847  0.0478
   56MOL   C32626836   7.917   0.474   4.327 -0.3064 -0.2841  0.1525
   56MOL   C32726837   7.814   0.383   4.349  0.6323 -0.4552 -0.7249
   56MOL   C32826838   7.767   0.358   4.481  0.4090  0.2570  0.2338
   56MOL   O32926839   7.954   0.517   4.204 -0.2594  0.1822  0.4315
   56MOL   H33026840   8.167   0.251   5.021  0.0696 -0.1569 -0.3819
   56MOL   H33126841   7.986   0.409   4.938  1.7113  0.0263 -1.0050
   56MOL   H33226842   7.827   0.072   4.708  1.4993  0.7405 -1.6649
   56MOL   H33326843   8.021   8.365   4.778 -0.5261  1.3299 -0.8589
   56MOL   H33426844   7.992   0.538   4.660 -0.6643  1.2483 -1.1139
   56MOL   H33526845   8.063   0.598   4.439  0.6574 -0.8645 -0.5186
   56MOL   H33626846   7.759   0.344   4.264  1.1783 -0.6115 -1.0070
   56MOL   H33726847   7.687   0.285   4.491  0.4401  0.1510 -0.3027
   56MOL   C33826848   7.997   0.291   4.110 -0.1450  0.5328 -0.4820
   56MOL   C33926849   7.960   0.202   4.008  0.2934  0.1104 -0.6856
   56MOL   C34026850   7.883   0.247   3.897  0.2044 -0.4671 -0.0225
   56MOL   C34126851   7.827   0.373   3.903  0.4175  0.0148  0.7793
   56MOL   C34226852   7.857   0.459   4.004  0.1885 -0.2056 -0.0530
   56MOL   C34326853   7.940   0.422   4.106 -0.3123  0.5330 -0.5876
   56MOL   S34426854   7.867   0.144   3.760 -0.5946  0.1554  0.0971
   56MOL   O34526855   7.737   0.072   3.777 -0.6906 -0.5617  0.0200
   56MOL   O34626856   7.988   0.061   3.747 -0.6884 -0.1830 -0.3024
   56MOL   C34726857   7.848   0.267   3.625 -0.4695 -0.3507  0.2364
   56MOL   C34826858   7.720   0.304   3.590 -0.3996  0.4440  0.9590
   56MOL   C34926859   7.692   0.406   3.496  0.3615 -0.4353  0.8640
   56MOL   C35026860   7.810   0.474   3.436  0.0680  0.3145  0.3326
   56MOL   C35126861   7.943   0.422   3.463  0.2572 -0.0945  0.2963
   56MOL   C35226862   7.961   0.317   3.556 -0.6383  0.4189 -0.6017
   56MOL   O35326863   7.793   0.588   3.366 -0.1193  0.3365 -0.3590
   56MOL   H35426864   8.069   0.251   4.180  1.2870  1.6799 -1.2585
   56MOL   H35526865   8.011   0.107   4.008  0.4676  0.1864  1.8408
   56MOL   H35626866   7.760   0.398   3.822  0.9181  2.1573  0.9932
   56MOL   H35726867   7.805   0.553   3.997 -0.5775 -0.4910  1.5363
   56MOL   H35826868   7.634   0.265   3.644 -0.7124  0.8795  0.7867
   56MOL   H35926869   7.589   0.433   3.479  0.6438  1.0990  1.5076
   56MOL   H36026870   8.031   0.458   3.412  0.5139  0.7736  1.3273
   56MOL   H36126871   8.057   0.272   3.575 -0.9787  0.1165  0.4540
   56MOL   C36226872   7.892   0.750   3.513  0.1962  0.2652  0.6014
   56MOL   C36326873   7.880   0.858   3.606  0.1197  0.1788 -0.2740
   56MOL   C36426874   7.752   0.904   3.634  1.1082  0.0089  0.3808
   56MOL   C36526875   7.637   0.854   3.563  0.1729  0.7259  0.6116
   56MOL   C36626876   7.651   0.748   3.469 -0.4647 -0.0443 -0.0402
   56MOL   C36726877   7.777   0.694   3.451  0.2126  0.0201  0.0189
   56MOL   S36826878   7.733   1.020   3.773 -0.1001 -0.2522  0.4750
   56MOL   O36926879   7.759   0.938   3.890 -0.1794  0.6905  0.1755
   56MOL   O37026880   7.602   1.078   3.753 -0.1810 -0.2724 -0.2361
   56MOL   C37126881   7.852   1.152   3.762  0.1649 -0.6066  0.2807
   56MOL   C37226882   7.863   1.253   3.868  0.1160  0.3478  0.1710
   56MOL   C37326883   7.947   1.363   3.855  0.4469 -0.4562 -0.1614
   56MOL   C37426884   8.016   1.385   3.734  0.1147  0.8582 -0.3822
   56MOL   C37526885   8.003   1.294   3.630  0.3629 -0.3348 -0.2016
   56MOL   C37626886   7.927   1.179   3.645 -0.1219 -0.5092  0.4032
   56MOL   O37726887   8.098   1.494   3.715  0.0776 -0.1043  0.2328
   56MOL   H37826888   7.992   0.713   3.498 -0.0208  0.2373 -0.8994
   56MOL   H37926889   7.963   0.903   3.657  1.3480  0.2303 -2.2872
   56MOL   H38026890   7.536   0.886   3.582  0.4364  1.9135  0.0282
   56MOL   H38126891   7.565   0.706   3.418 -0.6299  0.7396 -0.4114
   56MOL   H38226892   7.805   1.233   3.957  0.1602 -2.1829 -0.3263
   56MOL   H38326893   7.961   1.433   3.936 -0.7551 -2.0866  1.4744
   56MOL   H38426894   8.048   1.307   3.533  1.7448 -2.1037  0.1786
   56MOL   H38526895   7.909   1.115   3.560  0.9646 -1.3432  0.7931
   56MOL   C38626896   8.301   1.461   3.580  0.1023 -0.3420  0.5002
   56MOL   C38726897   0.014   1.451   3.571 -0.3246  0.1745 -0.1678
   56MOL   C38826898   0.089   1.427   3.685  0.1584 -0.1107 -0.0063
   56MOL   C38926899   0.024   1.421   3.812 -0.3647  0.6011  0.2137
   56MOL   C39026900   8.313   1.453   3.822  0.4887 -0.0494 -0.2366
   56MOL   C39126901   8.236   1.471   3.704 -0.1787 -0.2929 -0.6936
   56MOL   S39226902   0.257   1.383   3.681 -0.1499 -0.3755 -0.0165
   56MOL   O39326903   0.279   1.261   3.601  0.1780 -0.2887 -0.0975
   56MOL   O39426904   0.317   1.397   3.815 -0.4424  0.5057  0.3761
   56MOL   C39526905   0.334   1.511   3.584  0.2208  0.9704  0.4891
   56MOL   C39626906   0.350   1.491   3.446 -0.0296  0.4529  0.1778
   56MOL   C39726907   0.432   1.574   3.369  0.5619  0.1370 -0.3273
   56MOL   C39826908   0.497   1.683   3.428 -0.3712  0.2086  0.4455
   56MOL   C39926909   0.478   1.708   3.564  0.6932 -0.7877  0.0581
   56MOL   C40026910   0.397   1.622   3.641  0.1902  0.4758  0.3927
   56MOL   O40126911   0.583   1.766   3.356  0.1979  0.5492 -0.3311
   56MOL   H40226912   8.239   1.463   3.491 -0.0270 -0.9254  0.5742
   56MOL   H40326913   0.058   1.455   3.472  1.6431  0.1452  0.6858
   56MOL   H40426914   0.081   1.418   3.904 -2.0608  2.1297  1.3523
   56MOL   H40526915   8.271   1.469   3.920  1.6731 -1.2502  0.4890
   56MOL   H40626916   0.299   1.407   3.401 -1.7663  1.9366 -0.6782
   56MOL   H40726917   0.444   1.555   3.263 -0.0197 -0.5013 -0.2846
   56MOL   H40826918   0.529   1.793   3.606  0.3905 -0.9812  0.8167
   56MOL   H40926919   0.384   1.643   3.746 -0.6754  0.5573  0.2791
   56MOL   C41026920   0.781   1.659   3.434  0.1584 -0.8208  0.8322
   56MOL   C41126921   0.906   1.599   3.411  0.1932 -0.7768 -0.0336
   56MOL   C41226922   0.957   1.599   3.278 -0.2196  0.2803  0.2689
   56MOL   C41326923   0.883   1.660   3.177  0.2962 -0.1097  0.3409
   56MOL   C41426924   0.748   1.704   3.198 -0.1192  0.7958 -0.2217
   56MOL   C41526925   0.708   1.717   3.328 -0.0922 -0.4190  0.5094
   56MOL   S41626926   1.113   1.509   3.250  0.1327  0.1123  0.0976
   56MOL   O41726927   1.158   1.554   3.114 -0.5165 -0.9068  0.0620
   56MOL   O41826928   1.083   1.368   3.279  0.3896 -0.0105  0.5679
   56MOL   C41926929   1.215   1.588   3.381 -0.0254 -0.1968 -0.1470
   56MOL   C42026930   1.267   1.513   3.487 -0.1059 -0.5792  0.3629
   56MOL   C42126931   1.346   1.567   3.587 -0.1607 -0.6661 -0.0992
   56MOL   C42226932   1.358   1.709   3.591 -0.3939 -0.7685  0.1861
   56MOL   C42326933   1.302   1.789   3.489  0.1722  0.2487 -0.2343
   56MOL   C42426934   1.233   1.724   3.383 -0.4636  0.0686 -0.2768
   56MOL   O42526935   1.421   1.768   3.697 -0.0124 -0.5127  0.0874
   56MOL   H42626936   0.730   1.654   3.530 -0.2182  0.1373  0.6880
   56MOL   H42726937   0.943   1.544   3.496  1.7989  1.6953  0.9263
   56MOL   H42826938   0.940   1.652   3.086  1.2191 -1.9354  1.0413
   56MOL   H42926939   0.679   1.719   3.117  0.4205  1.6375 -0.5341
   56MOL   H43026940   1.246   1.408   3.502 -1.8688 -0.2593  0.2059
   56MOL   H43126941   1.365   1.501   3.670 -1.9721  0.6049  1.3597
   56MOL   H43226942   1.286   1.894   3.502 -0.4675  0.2622 -1.0515
   56MOL   H43326943   1.186   1.785   3.307  1.3509  2.4738  0.4539
   56MOL   C43426944   1.260   1.814   3.870 -0.7798 -0.1308  0.0828
   56MOL   C43526945   1.180   1.914   3.929  0.4804  0.0589 -0.2134
   56MOL   C43626946   1.195   2.056   3.900  0.7790  0.0582 -0.3978
   56MOL   C43726947   1.279   2.090   3.794  0.5353 -1.1263  0.0172
   56MOL   C43826948   1.354   1.995   3.734 -0.5812 -0.7083 -0.0321
   56MOL   C43926949   1.346   1.857   3.768 -0.1395  0.4343  0.3484
   56MOL   S44026950   1.077   2.179   3.968 -0.2523  0.2993  0.0562
   56MOL   O44126951   0.943   2.123   3.935  0.2886  0.0434 -0.4281
   56MOL   O44226952   1.106   2.313   3.918 -0.4947  0.1542  0.3025
   56MOL   C44326953   1.081   2.189   4.147  0.2605  0.3176  0.0367
   56MOL   C44426954   1.039   2.079   4.224 -0.5368 -0.1471  0.5580
   56MOL   C44526955   1.058   2.087   4.365  0.3367 -0.1660 -0.3137
   56MOL   C44626956   1.113   2.213   4.424  0.4219 -0.1537 -0.7688
   56MOL   C44726957   1.149   2.318   4.339 -0.3435  0.0339 -0.1336
   56MOL   C44826958   1.132   2.307   4.205  0.6426 -0.0850  0.8498
   56MOL   O44926959   1.137   2.229   4.566 -1.4468 -1.0812 -0.0981
   56MOL   H45026960   1.257   1.709   3.895 -1.4769 -0.5271 -1.5662
   56MOL   H45126961   1.108   1.881   4.002  0.0533  0.9470 -0.2187
   56MOL   H45226962   1.284   2.196   3.775  0.1416 -0.9532  0.8704
   56MOL   H45326963   1.428   2.024   3.661  0.1589 -1.6396  0.3361
   56MOL   H45426964   0.975   2.006   4.177 -1.2917  1.4789 -1.0039
   56MOL   H45526965   1.004   2.012   4.423  1.2834 -0.1101  0.6577
   56MOL   H45626966   1.177   2.411   4.386 -0.5806 -0.7780  1.6623
   56MOL   H45726967   1.157   2.393   4.144 -1.0336 -2.1169 -2.8803
   56MOL   C45826968   1.290   2.034   4.590 -0.5329  0.8358  0.3241
   56MOL   C45926969   1.325   1.918   4.659  0.1500 -0.0116 -0.2340
   56MOL   C46026970   1.260   1.876   4.777  0.1081  0.3004 -0.3915
   56MOL   C46126971   1.141   1.948   4.814 -0.3360 -0.3386  0.1775
   56MOL   C46226972   1.102   2.060   4.739 -0.0337 -0.0807  1.1260
   56MOL   C46326973   1.179   2.115   4.635  0.2531 -0.1599 -0.4349
   56MOL   S46426974   1.305   1.725   4.867  0.1675  0.1831 -0.0977
   56MOL   O46526975   1.360   1.631   4.764 -0.0465  0.1841  0.2414
   56MOL   O46626976   1.197   1.683   4.958  0.0229  0.7246  0.3140
   56MOL   C46726977   1.441   1.764   4.971 -0.1396  0.5755  0.2102
   56MOL   C46826978   1.532   1.871   4.945  0.0154 -0.1461 -0.6680
   56MOL   C46926979   1.644   1.885   5.036  0.6160 -0.3858 -0.1606
   56MOL   C47026980   1.672   1.793   5.140  0.6661 -0.6108  0.5565
   56MOL   C47126981   1.577   1.691   5.163 -0.1832 -0.3577 -0.9017
   56MOL   C47226982   1.466   1.677   5.079  0.2897  0.5214 -0.2874
   56MOL   O47326983   1.789   1.809   5.211  0.4996 -0.3477  0.3054
   56MOL   H47426984   1.347   2.065   4.504  0.6183 -1.8992  0.0746
   56MOL   H47526985   1.416   1.865   4.638 -0.9990 -0.7239 -3.5725
   56MOL   H47626986   1.084   1.910   4.897 -1.0184 -1.7238 -0.8949
   56MOL   H47726987   1.006   2.104   4.765 -0.0067  0.3562  0.5120
   56MOL   H47826988   1.522   1.932   4.856  0.1094  0.7739 -0.0534
   56MOL   H47926989   1.708   1.970   5.018 -2.4478  1.5845 -2.1104
   56MOL   H48026990   1.600   1.624   5.244  0.3310  0.5658 -0.2767
   56MOL   H48126991   1.407   1.588   5.098 -0.7904  1.2456 -0.1685
   56MOL   H48226992   1.785   1.765   5.295 -0.5535  0.6334  0.7781
   57MOL     C126993   5.226   4.280   5.709 -0.5133 -0.1372  0.0916
   57MOL     C226994   5.301   4.377   5.782 -0.2672  0.7035  0.0997
   57MOL     C326995   5.391   4.464   5.716  0.8774  0.0434 -0.1771
   57MOL     C426996   5.405   4.453   5.580 -0.4255 -0.6272  0.3240
   57MOL     C526997   5.324   4.371   5.500 -0.0753  1.0432  0.1723
   57MOL     C626998   5.241   4.277   5.567  0.1356 -0.5172 -0.1072
   57MOL     S726999   5.504   4.578   5.799  0.0505  0.0244 -0.3027
   57MOL     O827000   5.631   4.563   5.724 -0.1605  0.7118  0.8791
   57MOL     O927001   5.505   4.552   5.941  0.4785 -0.3935 -0.5949
   57MOL    C1027002   5.453   4.748   5.770  0.5913 -0.4764  0.3700
   57MOL    C1127003   5.352   4.773   5.672 -0.0742 -0.3320 -0.2900
   57MOL    C1227004   5.340   4.911   5.635 -0.7376 -0.5322 -0.2021
   57MOL    C1327005   5.417   5.015   5.685  0.1572  0.5351  0.2554
   57MOL    C1427006   5.515   4.989   5.779 -0.3354 -0.1657 -0.0385
   57MOL    C1527007   5.531   4.853   5.822  0.0917 -0.6173  0.3484
   57MOL    O1627008   5.393   5.145   5.643 -0.4971  0.3747  0.7559
   57MOL    H1727009   5.148   4.217   5.750 -2.1859  0.9030 -1.4752
   57MOL    H1827010   5.284   4.369   5.888  1.3849  1.6302  0.4491
   57MOL    H1927011   5.472   4.518   5.526 -0.8890  0.0366  0.5516
   57MOL    H2027012   5.333   4.364   5.392 -0.5591 -1.8954  0.2751
   57MOL    H2127013   5.289   4.695   5.631  0.3661 -1.2667  0.7802
   57MOL    H2227014   5.273   4.949   5.560 -0.8129 -1.3970 -0.5699
   57MOL    H2327015   5.585   5.064   5.814  2.3148 -2.4441 -0.3106
   57MOL    H2427016   5.611   4.821   5.887  0.1882 -0.6797  0.1982
   57MOL    H2527017   5.170   4.220   5.509  0.1975 -0.1088 -0.5856
   57MOL    C2627018   5.300   5.273   5.831 -0.0195 -0.3541  0.2378
   57MOL    C2727019   5.303   5.380   5.925 -0.5626 -0.5479 -0.1027
   57MOL    C2827020   5.425   5.461   5.924  0.9981 -0.4038  0.5055
   57MOL    C2927021   5.529   5.438   5.832  0.7877  0.4463  0.0572
   57MOL    C3027022   5.520   5.335   5.734  0.0315  0.3783  0.5689
   57MOL    C3127023   5.408   5.247   5.737 -0.4626 -0.4451 -0.4908
   57MOL    S3227024   5.443   5.606   6.025  0.1705  0.0393  0.1275
   57MOL    O3327025   5.578   5.615   6.076  0.0934 -0.4593  0.2277
   57MOL    O3427026   5.329   5.605   6.122 -0.5901 -0.4617  0.1720
   57MOL    C3527027   5.416   5.742   5.913 -0.0339 -0.2621  0.1885
   57MOL    C3627028   5.297   5.816   5.913 -0.4345 -0.8193 -0.0368
   57MOL    C3727029   5.282   5.933   5.836  0.1205  0.6739 -0.2485
   57MOL    C3827030   5.383   5.974   5.751 -0.4355  1.0845  0.3472
   57MOL    C3927031   5.499   5.892   5.738  0.7276 -0.6476  1.0279
   57MOL    C4027032   5.520   5.783   5.823 -0.1728 -0.2905  0.2419
   57MOL    O4127033   5.367   6.094   5.686 -0.4590 -0.2442  0.3787
   57MOL    H4227034   5.221   5.200   5.823  0.8416 -1.1103 -1.7117
   57MOL    H4327035   5.233   5.386   6.007 -1.2779 -1.0926 -0.6684
   57MOL    H4427036   5.615   5.502   5.846 -0.5022  2.1359  0.2935
   57MOL    H4527037   5.601   5.316   5.665 -0.0947 -1.2134  0.8358
   57MOL    H4627038   5.220   5.790   5.984 -0.2001 -0.7521  0.2458
   57MOL    H4727039   5.199   6.002   5.842  0.7098  1.2685  1.2197
   57MOL    H4827040   5.571   5.918   5.662 -1.1115 -1.8850 -1.1894
   57MOL    H4927041   5.610   5.725   5.809  0.9319  1.1095  1.2510
   57MOL    C5027042   5.427   6.278   5.835  0.1667  0.7249  0.0900
   57MOL    C5127043   5.489   6.404   5.847  0.4673 -0.2986  0.8067
   57MOL    C5227044   5.588   6.431   5.752  0.0668 -0.1978 -0.0776
   57MOL    C5327045   5.620   6.346   5.647 -0.2730  1.1880  0.0263
   57MOL    C5427046   5.540   6.233   5.626  0.4141 -0.4127 -0.4985
   57MOL    C5527047   5.448   6.195   5.723  0.2360 -0.1268 -0.6069
   57MOL    S5627048   5.661   6.589   5.770 -0.4210  0.0610 -0.2429
   57MOL    O5727049   5.556   6.691   5.779 -0.5361  0.3109  0.6566
   57MOL    O5827050   5.764   6.593   5.662 -0.5330 -0.1811  0.1610
   57MOL    C5927051   5.743   6.593   5.928  0.3385 -0.4166 -0.2074
   57MOL    C6027052   5.834   6.491   5.949  0.5459  0.1439  0.1451
   57MOL    C6127053   5.914   6.496   6.066  0.3321  0.1934 -0.5741
   57MOL    C6227054   5.885   6.590   6.170  0.1999  0.1087 -0.1313
   57MOL    C6327055   5.797   6.704   6.135 -0.1731 -0.4999 -1.0710
   57MOL    C6427056   5.726   6.710   6.014  0.9180  0.8909  0.0373
   57MOL    O6527057   5.948   6.579   6.288  0.4799  0.6622  0.0058
   57MOL    H6627058   5.345   6.257   5.901  0.4138  1.8698  0.7689
   57MOL    H6727059   5.456   6.479   5.917 -1.4620  0.7509 -1.1597
   57MOL    H6827060   5.691   6.362   5.567 -1.4713  0.9893 -1.0935
   57MOL    H6927061   5.540   6.170   5.538 -1.4068 -2.1348  0.6814
   57MOL    H7027062   5.837   6.410   5.877 -3.6971  0.9612 -1.1331
   57MOL    H7127063   5.980   6.412   6.082 -1.2658 -1.0345 -0.2627
   57MOL    H7227064   5.800   6.781   6.211 -1.0171 -0.3117 -1.2267
   57MOL    H7327065   5.668   6.796   5.982  0.8462 -0.0978 -2.6430
   57MOL    C7427066   5.760   6.451   6.380  0.0511 -0.1462 -0.6128
   57MOL    C7527067   5.721   6.356   6.476  0.4272  1.0190 -0.6099
   57MOL    C7627068   5.815   6.301   6.566 -0.4194 -0.2977 -0.4803
   57MOL    C7727069   5.948   6.349   6.572  0.5725 -0.1944  1.1113
   57MOL    C7827070   5.989   6.437   6.473 -0.4319  0.0970  0.5225
   57MOL    C7927071   5.899   6.487   6.376 -0.2802  0.5047  0.6585
   57MOL    S8027072   5.750   6.175   6.686 -0.3089 -0.0384 -0.2416
   57MOL    O8127073   5.844   6.174   6.795 -0.1765 -0.3779  0.0126
   57MOL    O8227074   5.720   6.053   6.607  0.2637 -0.0754 -0.1140
   57MOL    C8327075   5.600   6.239   6.744 -0.5584  0.4839  0.4271
   57MOL    C8427076   5.598   6.366   6.805  0.4264  0.3374 -0.2692
   57MOL    C8527077   5.475   6.430   6.842  0.9245  0.8233 -0.4388
   57MOL    C8627078   5.356   6.357   6.820  0.3362 -0.3127  0.1688
   57MOL    C8727079   5.356   6.230   6.755  0.4273  0.0530  0.6826
   57MOL    C8827080   5.482   6.173   6.713  0.5090 -0.2232 -0.1922
   57MOL    O8927081   5.240   6.409   6.861  0.6134 -0.1938 -0.2684
   57MOL    H9027082   5.684   6.487   6.313 -0.3321 -3.0186 -1.7830
   57MOL    H9127083   5.620   6.316   6.473  0.8265 -0.0701  0.3285
   57MOL    H9227084   6.025   6.303   6.632  1.8693  0.4993  0.0308
   57MOL    H9327085   6.093   6.466   6.483 -0.3868 -0.2006  0.9757
   57MOL    H9427086   5.684   6.432   6.810  0.4038  0.3116  0.5417
   57MOL    H9527087   5.472   6.532   6.878  0.0680  0.4576  0.5500
   57MOL    H9627088   5.270   6.169   6.730  1.1242 -1.0368  0.8752
   57MOL    H9727089   5.488   6.086   6.649 -1.7461 -0.4645 -0.1243
   57MOL    C9827090   5.123   6.266   7.017  0.0590 -0.2788  0.7141
   57MOL    C9927091   5.081   6.244   7.145  0.1986 -0.0572 -0.9409
   57MOL   C10027092   5.119   6.323   7.253 -0.1071  0.5394 -0.2099
   57MOL   C10127093   5.185   6.445   7.224 -0.5172 -0.3406  0.0325
   57MOL   C10227094   5.229   6.477   7.094  0.8014 -0.6950  0.0600
   57MOL   C10327095   5.198   6.386   6.991  0.2785  0.9767 -0.4894
   57MOL   S10427096   5.068   6.278   7.422  0.0292 -0.0673 -0.0146
   57MOL   O10527097   5.147   6.161   7.461  0.5139 -0.6366 -0.3743
   57MOL   O10627098   4.922   6.255   7.414 -0.4515 -0.0369  0.0591
   57MOL   C10727099   5.112   6.418   7.526  0.2052  0.1978 -0.4466
   57MOL   C10827100   5.014   6.518   7.545  0.0026  0.4371  0.2135
   57MOL   C10927101   5.045   6.629   7.623  0.2292 -0.6652 -0.3670
   57MOL   C11027102   5.169   6.639   7.682 -0.1019 -0.6770  0.0646
   57MOL   C11127103   5.272   6.548   7.649 -0.5692 -0.1316  0.0501
   57MOL   C11227104   5.240   6.436   7.570  0.3790 -0.6683 -0.3400
   57MOL   O11327105   5.201   6.733   7.772 -0.5508  0.4887 -0.5623
   57MOL   H11427106   5.088   6.205   6.935 -1.0084 -2.1328  2.4894
   57MOL   H11527107   5.019   6.158   7.167  0.2018  0.3056  0.5048
   57MOL   H11627108   5.209   6.517   7.300  2.0785  0.0281 -1.0869
   57MOL   H11727109   5.280   6.567   7.067  2.6041 -1.5761  0.4588
   57MOL   H11827110   4.921   6.501   7.493  0.7738 -0.8697 -0.7585
   57MOL   H11927111   4.964   6.698   7.641 -0.1988 -1.2212 -0.1470
   57MOL   H12027112   5.374   6.569   7.678 -0.0207 -1.0377 -1.1893
   57MOL   H12127113   5.317   6.366   7.541  0.9506 -0.0227 -0.3849
   57MOL   C12227114   5.217   6.659   8.000 -0.6426  0.3075  0.3254
   57MOL   C12327115   5.166   6.649   8.122  0.4575  0.3865 -0.0493
   57MOL   C12427116   5.038   6.694   8.154  0.7500 -0.5120  0.0617
   57MOL   C12527117   4.955   6.744   8.050 -0.2948  0.0761  1.3559
   57MOL   C12627118   5.005   6.753   7.914  0.4194 -0.6897  0.1527
   57MOL   C12727119   5.140   6.718   7.894 -0.3576 -0.0943  0.5486
   57MOL   S12827120   4.954   6.689   8.312  0.1559  0.1177 -0.2136
   57MOL   O12927121   4.850   6.789   8.310 -0.1772  0.4095 -0.0629
   57MOL   O13027122   5.055   6.692   8.420  0.8688  0.4054  0.1761
   57MOL   C13127123   4.863   6.532   8.333  0.0164 -0.3146  0.8567
   57MOL   C13227124   4.883   6.450   0.022 -0.2058  0.2349 -0.2894
   57MOL   C13327125   4.809   6.333   0.042 -0.4141  0.6941  0.5014
   57MOL   C13427126   4.708   6.304   8.368 -0.3734  0.3408 -0.7320
   57MOL   C13527127   4.689   6.385   8.253  0.2281 -0.5383  0.2625
   57MOL   C13627128   4.764   6.506   8.240  0.2764  0.3539  0.6300
   57MOL   O13727129   4.623   6.196   8.387 -0.6412 -0.1108 -0.6927
   57MOL   H13827130   5.322   6.634   7.992 -1.1256 -1.1400 -1.6864
   57MOL   H13927131   5.221   6.609   8.205 -0.0002 -2.4261 -1.0517
   57MOL   H14027132   4.855   6.775   8.076 -1.4976 -0.9684 -1.7891
   57MOL   H14127133   4.948   6.800   7.835  1.0977 -1.7975 -1.0351
   57MOL   H14227134   4.961   6.486   0.088  0.9313  2.0807 -2.5390
   57MOL   H14327135   4.817   6.270   0.130  1.1835 -0.2431 -0.3037
   57MOL   H14427136   4.616   6.353   8.180  1.5541  0.4800 -1.5841
   57MOL   H14527137   4.750   6.575   8.158 -0.3212  2.4289  2.4259
   57MOL   C14627138   4.528   5.999   8.299 -0.5326  0.1198 -0.0282
   57MOL   C14727139   4.530   5.874   8.245  0.4015  0.0726  0.7405
   57MOL   C14827140   4.656   5.831   8.189 -0.4011 -0.0155  0.0569
   57MOL   C14927141   4.769   5.910   8.196 -0.0950 -0.9796 -0.7109
   57MOL   C15027142   4.765   6.031   8.271 -0.3065 -0.5179  0.1621
   57MOL   C15127143   4.639   6.084   8.310  0.2126  0.1917 -0.3371
   57MOL   S15227144   4.658   5.677   8.096  0.1290 -0.0973 -0.4812
   57MOL   O15327145   4.542   5.596   8.122 -0.7128 -0.0990  0.5080
   57MOL   O15427146   4.793   5.614   8.104 -0.0808 -0.1168 -0.3302
   57MOL   C15527147   4.639   5.746   7.928 -0.6243 -0.2795 -0.1413
   57MOL   C15627148   4.750   5.776   7.848  0.0074 -0.0475  0.1381
   57MOL   C15727149   4.747   5.807   7.714  0.7654  0.0211  0.9746
   57MOL   C15827150   4.621   5.796   7.650 -0.2857 -0.6769  0.5488
   57MOL   C15927151   4.506   5.766   7.728 -0.1422  0.1157 -0.1182
   57MOL   C16027152   4.512   5.736   7.870 -0.2749 -0.0389 -0.0979
   57MOL   O16127153   4.605   5.813   7.518 -0.0133  0.1341  0.1728
   57MOL   H16227154   4.434   6.040   8.333 -1.9384 -2.1367 -1.1224
   57MOL   H16327155   4.440   5.816   8.238  2.0149 -2.4442  0.4591
   57MOL   H16427156   4.866   5.879   8.161  0.3167  2.0329 -2.4543
   57MOL   H16527157   4.852   6.096   8.273 -0.2199 -0.6283 -0.0011
   57MOL   H16627158   4.843   5.779   7.903  0.2154  0.1867 -0.2199
   57MOL   H16727159   4.834   5.839   7.658  0.7792  0.0010  0.9853
   57MOL   H16827160   4.407   5.752   7.687  1.1655 -1.8733 -2.7110
   57MOL   H16927161   4.426   5.703   7.926 -0.2267  0.5220  0.3109
   57MOL   C17027162   4.553   6.042   7.491 -0.2794  0.0229 -0.1328
   57MOL   C17127163   4.482   6.148   7.432  0.3767  0.4710  0.9580
   57MOL   C17227164   4.371   6.120   7.349  0.4408 -0.1575 -0.3061
   57MOL   C17327165   4.331   5.986   7.339  1.0765  0.2691  0.4054
   57MOL   C17427166   4.397   5.884   7.403 -0.4190 -0.6704  0.2453
   57MOL   C17527167   4.514   5.909   7.471  0.4559  0.4891 -0.5123
   57MOL   S17627168   4.291   6.252   7.254 -0.1464 -0.2062  0.5306
   57MOL   O17727169   4.322   6.246   7.111 -0.0419 -0.2367 -0.4866
   57MOL   O17827170   4.307   6.375   7.328 -0.7265  0.9841 -0.1688
   57MOL   C17927171   4.112   6.210   7.270 -0.6340 -0.5407 -0.0576
   57MOL   C18027172   4.032   6.189   7.157  0.4872  0.3538  0.0058
   57MOL   C18127173   3.894   6.146   7.170 -0.1887  0.4797 -0.6491
   57MOL   C18227174   3.831   6.149   7.301  0.2846  0.0501 -0.8013
   57MOL   C18327175   3.918   6.178   7.413 -0.1878 -0.2404  0.1387
   57MOL   C18427176   4.059   6.205   7.400  0.1740 -0.3652 -0.6815
   57MOL   O18527177   3.695   6.126   7.317  0.8579  0.0644 -0.5097
   57MOL   H18627178   4.643   6.065   7.546 -0.0183  1.5103 -1.1451
   57MOL   H18727179   4.517   6.249   7.450  3.2662 -0.5651  1.4715
   57MOL   H18827180   4.251   5.966   7.269  0.5906 -1.1228  1.3207
   57MOL   H18927181   4.363   5.784   7.381  1.1494 -1.1212 -0.1854
   57MOL   H19027182   4.072   6.204   7.057 -0.5763  0.5602 -0.3985
   57MOL   H19127183   3.834   6.121   7.084 -1.5054 -0.5061  0.5334
   57MOL   H19227184   3.875   6.167   7.511  0.3086 -0.4518  0.3373
   57MOL   H19327185   4.116   6.218   7.490 -0.5413 -0.6656 -0.1805
   57MOL   C19427186   3.696   5.880   7.287  0.6609 -0.1553  0.2185
   57MOL   C19527187   3.616   5.765   7.301  0.3883 -0.1956 -0.4749
   57MOL   C19627188   3.492   5.762   7.369 -0.1695  0.0101 -1.0460
   57MOL   C19727189   3.448   5.882   7.428 -0.3266  0.1396 -0.8828
   57MOL   C19827190   3.527   6.001   7.414 -0.2971  0.0134 -0.1951
   57MOL   C19927191   3.641   6.000   7.336 -0.1633  0.2548 -0.6059
   57MOL   S20027192   3.381   5.625   7.358 -0.0117 -0.1563  0.0188
   57MOL   O20127193   3.456   5.500   7.339  0.8016  0.2499 -0.4985
   57MOL   O20227194   3.274   5.658   7.262 -0.4117  0.0726 -0.0535
   57MOL   C20327195   3.305   5.622   7.519 -0.4307 -0.4817  0.2357
   57MOL   C20427196   3.180   5.680   7.549 -0.2362  0.4716  0.4664
   57MOL   C20527197   3.129   5.666   7.682 -0.7400 -0.5990 -0.4632
   57MOL   C20627198   3.212   5.610   7.784  0.6776  0.1773 -0.1638
   57MOL   C20727199   3.339   5.559   7.757 -0.8771 -0.8072 -0.3122
   57MOL   C20827200   3.381   5.561   7.618  0.1037  0.4890  0.4008
   57MOL   O20927201   3.158   5.603   7.911 -0.0138 -0.1825  0.2842
   57MOL   H21027202   3.789   5.879   7.233  0.4148  0.4025 -0.2174
   57MOL   H21127203   3.655   5.674   7.258  1.0089  0.7754 -2.0267
   57MOL   H21227204   3.355   5.883   7.483  0.7493  1.2666  1.0004
   57MOL   H21327205   3.494   6.091   7.464  2.6203  0.0889  1.7135
   57MOL   H21427206   3.112   5.722   7.476 -0.5859  1.1255  1.1622
   57MOL   H21527207   3.026   5.687   7.708 -1.7713 -3.7754 -1.7719
   57MOL   H21627208   3.407   5.525   7.834 -1.0021  0.3622  0.3200
   57MOL   H21727209   3.472   5.509   7.590 -0.8609 -1.4738  0.8627
   57MOL   C21827210   3.237   5.804   8.012  0.2365 -0.0044  0.1427
   57MOL   C21927211   3.308   5.877   8.116  0.1237  0.9686  0.9000
   57MOL   C22027212   3.338   5.799   8.226 -0.3556 -0.1893 -0.3025
   57MOL   C22127213   3.333   5.658   8.231 -0.3820 -0.7083 -0.0659
   57MOL   C22227214   3.282   5.593   8.116 -0.3221  0.5670  0.1360
   57MOL   C22327215   3.230   5.666   8.009  0.1028  0.2352  0.1584
   57MOL   S22427216   3.411   5.877   8.373 -0.4710 -0.2043 -0.1640
   57MOL   O22527217   3.470   6.007   8.330 -0.2410 -0.2571  0.1763
   57MOL   O22627218   3.504   5.772   0.007 -0.1705  0.2381 -0.3247
   57MOL   C22727219   3.278   5.912   0.066  0.7082 -0.2041 -0.7010
   57MOL   C22827220   3.221   5.806   0.149 -0.3152 -0.4233  0.4265
   57MOL   C22927221   3.159   5.841   0.270  0.8798 -0.4631  0.1273
   57MOL   C23027222   3.126   5.979   0.297  0.9900 -0.0437 -0.0653
   57MOL   C23127223   3.167   6.074   0.202  0.6081 -0.3410  0.7959
   57MOL   C23227224   3.236   6.045   0.089 -0.2502 -0.1666  0.0818
   57MOL   O23327225   3.083   6.025   0.420 -0.1688 -0.2061  0.5085
   57MOL   H23427226   3.196   5.864   7.931  0.2432  0.9876  0.8634
   57MOL   H23527227   3.307   5.985   8.111 -3.9428  0.9994  0.3724
   57MOL   H23627228   3.359   5.604   8.320 -0.9196 -1.5375 -0.4061
   57MOL   H23727229   3.267   5.486   8.121 -0.8280  0.7370  3.2096
   57MOL   H23827230   3.244   5.704   0.120  0.1864 -0.1394 -0.2056
   57MOL   H23927231   3.127   5.764   0.339 -1.2562 -0.7161 -1.0971
   57MOL   H24027232   3.133   6.176   0.216 -1.3640 -0.6907 -1.2058
   57MOL   H24127233   3.260   6.120   0.015 -2.1062 -1.0489 -1.4530
   57MOL   C24227234   3.309   5.979   0.508 -0.1156  0.1021 -0.2118
   57MOL   C24327235   3.413   6.026   0.588 -0.1485 -0.1967  0.0099
   57MOL   C24427236   3.399   6.135   0.674  0.9888 -0.0468 -0.1047
   57MOL   C24527237   3.278   6.207   0.665  0.3984  0.6229  0.1855
   57MOL   C24627238   3.173   6.170   0.582 -1.4146 -0.7392  0.0901
   57MOL   C24727239   3.190   6.057   0.501 -0.1672  0.7437  0.3468
   57MOL   S24827240   3.519   6.198   0.794  0.0378 -0.3189 -0.0355
   57MOL   O24927241   3.461   6.185   0.932 -0.1951 -0.8092 -0.4926
   57MOL   O25027242   3.539   6.333   0.734 -0.7626  0.2908 -0.8766
   57MOL   C25127243   3.679   6.110   0.786  0.5774  0.3179 -0.0931
   57MOL   C25227244   3.790   6.163   0.707  0.1762  0.4540 -0.1463
   57MOL   C25327245   3.912   6.089   0.693 -0.2235  0.1265 -0.2629
   57MOL   C25427246   3.920   5.967   0.754 -0.3816 -0.1321  0.7703
   57MOL   C25527247   3.813   5.911   0.829 -0.9390 -0.3928 -0.4191
   57MOL   C25627248   3.690   5.978   0.842  0.1250 -0.0447 -0.8987
   57MOL   O25727249   4.036   5.898   0.759 -0.1344 -0.3015 -0.1896
   57MOL   H25827250   3.312   5.885   0.455 -0.7031 -0.2307  0.3391
   57MOL   H25927251   3.506   5.970   0.589 -0.2910 -0.4422 -0.5106
   57MOL   H26027252   3.273   6.297   0.725 -1.2626  0.5834  0.1277
   57MOL   H26127253   3.083   6.229   0.568 -1.9085 -1.3567  0.6229
   57MOL   H26227254   3.782   6.260   0.660  0.0011  0.5638  0.1107
   57MOL   H26327255   3.992   6.131   0.634  1.1518  1.2371  2.3039
   57MOL   H26427256   3.841   5.817   0.873  3.6581 -0.3575 -3.0390
   57MOL   H26527257   3.611   5.932   0.900  0.6784  0.3577  0.1892
   57MOL   C26627258   4.243   5.974   0.647 -0.1800  0.3012  0.6114
   57MOL   C26727259   4.333   5.968   0.534  0.6628 -1.4474  0.0965
   57MOL   C26827260   4.284   5.927   0.410  0.4413  0.1885  0.0305
   57MOL   C26927261   4.167   5.858   0.401  0.5507  0.1674 -0.2736
   57MOL   C27027262   4.087   5.848   0.517 -0.7512 -0.5902 -0.1760
   57MOL   C27127263   4.115   5.911   0.642 -0.0816 -0.3116  0.2711
   57MOL   S27227264   4.384   5.943   0.268  0.1711  0.3676  0.4200
   57MOL   O27327265   4.442   6.077   0.273  0.3634 -0.5048  0.0903
   57MOL   O27427266   4.307   5.896   0.156 -0.3631  0.2703  0.5586
   57MOL   C27527267   4.513   5.831   0.287 -0.4172  0.5263  0.4367
   57MOL   C27627268   4.625   5.859   0.212  0.4498  0.1640  0.2331
   57MOL   C27727269   4.719   5.763   0.169 -0.0440  0.0555  0.2260
   57MOL   C27827270   4.707   5.632   0.234  0.1323  0.0115 -0.1173
   57MOL   C27927271   4.600   5.605   0.327  0.3347  0.3984  0.4510
   57MOL   C28027272   4.507   5.706   0.350 -0.0962 -0.4164 -0.1453
   57MOL   O28127273   4.798   5.539   0.194 -0.0220  0.0668 -0.7463
   57MOL   H28227274   4.275   6.024   0.737  0.2997  1.5500 -0.2485
   57MOL   H28327275   4.431   6.010   0.546  0.2197 -0.4850  0.3819
   57MOL   H28427276   4.128   5.827   0.305 -2.7693  1.8779  0.4696
   57MOL   H28527277   3.996   5.791   0.514 -0.8805 -0.4816  1.5215
   57MOL   H28627278   4.621   5.954   0.161  2.7274 -0.4983 -1.2734
   57MOL   H28727279   4.796   5.794   0.100  0.2657 -1.0212  0.0825
   57MOL   H28827280   4.593   5.515   0.386  0.5344  0.1890  0.1586
   57MOL   H28927281   4.430   5.682   0.423 -2.2676 -0.8128 -2.5033
   57MOL   C29027282   4.642   5.381   0.100 -0.3482 -0.3100  0.0633
   57MOL   C29127283   4.608   5.298   8.416 -0.1764 -0.4501  0.0561
   57MOL   C29227284   4.695   5.292   8.305  0.0046 -0.0247  0.2562
   57MOL   C29327285   4.818   5.357   8.306  0.2760  0.1489  0.6996
   57MOL   C29427286   4.855   5.428   8.419 -0.4542  1.3271 -0.3808
   57MOL   C29527287   4.765   5.448   0.099 -0.1968  0.3835 -0.8148
   57MOL   S29627288   4.657   5.185   8.165  0.2470  0.2300 -0.4778
   57MOL   O29727289   4.510   5.163   8.172 -0.3408 -0.3286 -0.6795
   57MOL   O29827290   4.741   5.067   8.175 -0.5380  0.0967  0.2395
   57MOL   C29927291   4.704   5.277   8.016  0.4846 -0.1006  0.1231
   57MOL   C30027292   4.831   5.278   7.959  0.1855 -0.7001  0.1415
   57MOL   C30127293   4.854   5.348   7.839  0.5270  0.5192  0.0166
   57MOL   C30227294   4.746   5.410   7.769 -0.0178  0.2360 -0.2415
   57MOL   C30327295   4.618   5.413   7.828 -0.1605  0.3076 -0.1067
   57MOL   C30427296   4.600   5.340   7.947 -1.6175 -0.2608  0.0982
   57MOL   O30527297   4.761   5.471   7.645  0.5701 -0.6847  0.6723
   57MOL   H30627298   4.569   5.392   0.179  0.4372 -2.2183  1.0861
   57MOL   H30727299   4.520   5.238   8.400 -0.4923  0.3762 -1.4427
   57MOL   H30827300   4.885   5.344   8.222  2.3460  1.1118  2.1603
   57MOL   H30927301   4.955   5.465   0.010 -0.0467 -0.4122  1.4152
   57MOL   H31027302   4.913   5.224   8.005  0.8052  0.3264  0.2567
   57MOL   H31127303   4.949   5.329   7.791  1.3818  2.9671  0.6651
   57MOL   H31227304   4.533   5.473   7.799 -1.2109 -0.4837  1.3056
   57MOL   H31327305   4.503   5.354   7.994 -0.7942  1.4007  1.3508
   57MOL   C31427306   4.852   5.295   7.506 -0.1529  0.2156  0.8810
   57MOL   C31527307   4.956   5.241   7.434  0.5671  0.4806 -0.1370
   57MOL   C31627308   5.074   5.319   7.419  0.3300  0.3320  0.7289
   57MOL   C31727309   5.091   5.448   7.477  0.0078 -0.5651 -0.1894
   57MOL   C31827310   4.989   5.495   7.562 -0.0693 -0.0185 -0.4453
   57MOL   C31927311   4.865   5.422   7.568 -0.0911  0.0284 -0.5045
   57MOL   S32027312   5.196   5.249   7.308  0.4242  0.0542 -0.0063
   57MOL   O32127313   5.118   5.245   7.181  0.2368  0.0691  0.3873
   57MOL   O32227314   5.237   5.121   7.369  0.3269 -0.5388  0.9986
   57MOL   C32327315   5.332   5.363   7.304  0.5140  0.0394  0.1413
   57MOL   C32427316   5.347   5.455   7.197  0.1606  1.0797 -0.1423
   57MOL   C32527317   5.466   5.521   7.176 -0.7980  0.2985  0.0758
   57MOL   C32627318   5.578   5.513   7.264  0.3443 -0.5685  0.0313
   57MOL   C32727319   5.557   5.434   7.380 -0.2871 -0.1694  0.5585
   57MOL   C32827320   5.437   5.362   7.404 -0.0188  0.3550  0.2626
   57MOL   O32927321   5.698   5.565   7.232 -0.1689  0.0314  0.5557
   57MOL   H33027322   4.759   5.240   7.499 -0.5972  1.0222  0.3725
   57MOL   H33127323   4.940   5.152   7.374  0.1387  0.4061  0.0888
   57MOL   H33227324   5.187   5.497   7.473  0.5836 -1.5647  1.0073
   57MOL   H33327325   4.998   5.588   7.616 -1.9749  0.5661 -1.1287
   57MOL   H33427326   5.278   5.471   7.115 -0.7790  0.6273  0.5488
   57MOL   H33527327   5.474   5.581   7.086  2.7750  0.2267  0.2895
   57MOL   H33627328   5.635   5.421   7.454  0.6453 -1.7737 -0.6763
   57MOL   H33727329   5.441   5.294   7.488 -0.0181  0.9695  0.7664
   57MOL   C33827330   5.898   5.665   7.314  0.3697  0.4997  0.0384
   57MOL   C33927331   5.967   5.767   7.377 -0.5707  0.0336  0.6790
   57MOL   C34027332   5.892   5.874   7.430  0.2177 -0.2125  0.5199
   57MOL   C34127333   5.754   5.890   7.405  1.0975  0.5709 -0.6748
   57MOL   C34227334   5.688   5.787   7.340  0.1640  0.0527  0.5610
   57MOL   C34327335   5.756   5.669   7.302  0.8657 -0.0510 -0.7268
   57MOL   S34427336   5.992   6.008   7.506 -0.1095  0.3111  0.0721
   57MOL   O34527337   6.032   6.090   7.390  0.0022 -0.0333  0.6579
   57MOL   O34627338   6.098   5.951   7.592  0.0435 -0.0652 -0.1502
   57MOL   C34727339   5.879   6.108   7.608 -0.0544  0.1528 -0.2791
   57MOL   C34827340   5.796   6.211   7.554 -0.1983 -0.0546 -0.2545
   57MOL   C34927341   5.720   6.284   7.643 -0.2417  0.7239  0.0279
   57MOL   C35027342   5.720   6.260   7.782 -0.7087  0.5654  0.5292
   57MOL   C35127343   5.800   6.153   7.833  0.0101  0.3972 -0.2848
   57MOL   C35227344   5.875   6.080   7.743  0.1643 -0.4284  0.4038
   57MOL   O35327345   5.661   6.358   7.861 -0.3409  0.3578  0.5158
   57MOL   H35427346   5.964   5.587   7.279  0.4303 -0.4255  2.1693
   57MOL   H35527347   6.075   5.761   7.381 -0.5746  0.0801  0.9048
   57MOL   H35627348   5.695   5.972   7.442 -0.8223 -0.0214 -2.3281
   57MOL   H35727349   5.582   5.800   7.321  0.1556  0.9441  1.2219
   57MOL   H35827350   5.806   6.238   7.449 -1.7795  0.4256 -0.2868
   57MOL   H35927351   5.665   6.368   7.605 -1.1616  0.3070  0.4150
   57MOL   H36027352   5.809   6.139   7.940 -0.1879  0.5216 -0.2506
   57MOL   H36127353   5.934   6.002   7.788 -0.7126 -0.5098  1.4387
   57MOL   C36227354   5.442   6.288   7.801 -0.4291 -0.3784  0.2213
   57MOL   C36327355   5.308   6.274   7.833  0.5129 -0.1086 -0.0944
   57MOL   C36427356   5.268   6.301   7.964 -0.1023 -0.0807  0.4949
   57MOL   C36527357   5.354   6.352   8.062 -0.4987  0.2171  0.1911
   57MOL   C36627358   5.487   6.375   8.026  0.5951  0.3439  0.1637
   57MOL   C36727359   5.534   6.339   7.896 -0.4998 -0.6558  0.3606
   57MOL   S36827360   5.093   6.267   8.019 -0.2841  0.0415  0.2388
   57MOL   O36927361   5.007   6.340   7.923  1.0244 -0.3574  0.0430
   57MOL   O37027362   5.074   6.286   8.162  0.5489 -0.2051  0.2821
   57MOL   C37127363   5.091   6.082   7.993 -0.1651 -0.1354  0.2926
   57MOL   C37227364   5.059   6.034   7.861  0.1965  0.5144  0.1232
   57MOL   C37327365   5.078   5.896   7.827  0.1137  0.2256  0.2781
   57MOL   C37427366   5.122   5.810   7.930 -0.4416  1.1045 -0.2874
   57MOL   C37527367   5.133   5.858   8.064 -0.2324 -0.2732 -0.7165
   57MOL   C37627368   5.131   5.995   8.091  0.6114  0.1984 -0.0046
   57MOL   O37727369   5.157   5.683   7.904  0.1929  0.1464  0.0586
   57MOL   H37827370   5.483   6.257   7.706  2.7824  0.7390  1.1835
   57MOL   H37927371   5.237   6.238   7.759  1.4298 -0.4975 -0.7925
   57MOL   H38027372   5.327   6.374   8.164  0.6609 -0.5127  0.6729
   57MOL   H38127373   5.539   6.422   8.108 -0.8939 -1.2193  2.0623
   57MOL   H38227374   5.028   6.105   7.786  2.3582  1.5915  0.2087
   57MOL   H38327375   5.052   5.853   7.732 -0.4210  3.9693 -1.3408
   57MOL   H38427376   5.147   5.787   8.143  2.0972  0.6734 -0.2588
   57MOL   H38527377   5.152   6.033   8.190  1.9435 -2.2643  0.6892
   57MOL   C38627378   5.384   5.695   7.981 -0.3776 -0.2393  0.6360
   57MOL   C38727379   5.522   5.694   7.948  0.4168 -0.2112  0.2456
   57MOL   C38827380   5.556   5.654   7.815  0.1080 -0.2590 -0.2901
   57MOL   C38927381   5.461   5.614   7.724 -0.3385  0.3659  0.7375
   57MOL   C39027382   5.325   5.617   7.753  0.5421  0.0851 -0.2954
   57MOL   C39127383   5.290   5.668   7.880  0.1004  0.6608 -0.0062
   57MOL   S39227384   5.731   5.648   7.782  0.2983  0.1264 -0.6537
   57MOL   O39327385   5.804   5.649   7.909 -0.1555 -0.6487 -0.0897
   57MOL   O39427386   5.757   5.754   7.687 -0.3554  0.4645  0.2797
   57MOL   C39527387   5.750   5.486   7.706 -0.9345 -0.2253  0.7415
   57MOL   C39627388   5.832   5.481   7.593  0.1819 -0.2461 -0.7853
   57MOL   C39727389   5.863   5.365   7.527 -0.2659  0.6409 -0.1033
   57MOL   C39827390   5.811   5.240   7.565  0.3521  0.5677  0.2987
   57MOL   C39927391   5.718   5.242   7.671 -0.4995 -0.2215  0.2490
   57MOL   C40027392   5.703   5.361   7.749 -0.0681 -0.0666 -0.2802
   57MOL   O40127393   5.838   5.131   7.491  0.4731 -0.7303 -0.7577
   57MOL   H40227394   5.358   5.739   8.077  0.4679 -0.0741  0.7938
   57MOL   H40327395   5.601   5.727   8.014  1.4383  0.7163 -1.3982
   57MOL   H40427396   5.500   5.573   7.632  1.6815 -0.5193  1.9503
   57MOL   H40527397   5.257   5.601   7.671 -0.7347  3.7964 -0.0607
   57MOL   H40627398   5.871   5.574   7.556  2.2455 -1.4347 -1.7137
   57MOL   H40727399   5.917   5.378   7.435 -1.5571  0.7633 -0.8595
   57MOL   H40827400   5.676   5.147   7.698  0.5007 -0.7798 -0.1539
   57MOL   H40927401   5.643   5.352   7.838 -0.8208  0.4404 -0.7251
   57MOL   C41027402   5.747   4.912   7.541  0.8317 -0.3924 -0.4234
   57MOL   C41127403   5.648   4.816   7.519 -0.4685  0.1653  0.3703
   57MOL   C41227404   5.546   4.835   7.411 -0.2106 -0.3126  0.4750
   57MOL   C41327405   5.548   4.958   7.343 -0.0179 -0.1015 -0.8505
   57MOL   C41427406   5.644   5.055   7.371 -0.2077  0.2396  0.0569
   57MOL   C41527407   5.746   5.037   7.466  0.2032  0.7565  0.3318
   57MOL   S41627408   5.403   4.718   7.398 -0.1382  0.0001 -0.0166
   57MOL   O41727409   5.454   4.586   7.435 -0.5334 -0.4190 -0.3533
   57MOL   O41827410   5.337   4.744   7.268 -0.2913 -0.1606  0.0574
   57MOL   C41927411   5.308   4.781   7.535 -0.0938  0.3383 -0.7329
   57MOL   C42027412   5.342   4.742   7.670  0.0144  0.0688  0.1718
   57MOL   C42127413   5.273   4.802   7.780  0.1134 -0.1503 -0.2754
   57MOL   C42227414   5.163   4.892   7.750 -0.4182  0.0979  0.1205
   57MOL   C42327415   5.132   4.923   7.615 -0.2945 -0.7015 -0.2088
   57MOL   C42427416   5.202   4.867   7.506 -0.0308  0.0649  0.2878
   57MOL   O42527417   5.092   4.944   7.854 -0.2015  1.2072  0.1387
   57MOL   H42627418   5.825   4.890   7.613  1.2725  3.0161  0.2385
   57MOL   H42727419   5.637   4.733   7.588 -0.2481 -0.2951 -0.1489
   57MOL   H42827420   5.471   4.977   7.269 -2.3832  0.7209  1.7134
   57MOL   H42927421   5.640   5.152   7.324  0.4493  0.8222  1.1715
   57MOL   H43027422   5.430   4.683   7.689  1.2682  1.7517 -0.2679
   57MOL   H43127423   5.309   4.778   7.879 -1.4873  0.6916  0.5253
   57MOL   H43227424   5.059   4.997   7.584 -0.1031 -0.8356 -1.0088
   57MOL   H43327425   5.198   4.898   7.402 -0.7652 -0.5319  0.1320
   57MOL   C43427426   4.967   4.778   7.976  0.3026  0.2563  0.3019
   57MOL   C43527427   4.843   4.722   8.014  0.1715  0.3616 -0.7380
   57MOL   C43627428   4.730   4.790   7.969  0.3085 -0.4137 -0.0952
   57MOL   C43727429   4.734   4.898   7.883  0.0498 -0.3389  0.5741
   57MOL   C43827430   4.856   4.941   7.830  1.3255 -0.3753  0.3142
   57MOL   C43927431   4.969   4.888   7.884 -0.2335  0.1292 -0.0043
   57MOL   S44027432   4.577   4.723   8.023 -0.0835 -0.0763  0.2389
   57MOL   O44127433   4.589   4.576   8.014  0.1242  0.3889 -0.2050
   57MOL   O44227434   4.465   4.786   7.950 -0.3966  0.5260 -0.2131
   57MOL   C44327435   4.564   4.755   8.197 -0.3936 -0.3428  0.5276
   57MOL   C44427436   4.469   4.847   8.242 -0.1103 -0.1976 -0.1560
   57MOL   C44527437   4.456   4.883   8.377  0.1848  0.2863 -0.4405
   57MOL   C44627438   4.527   4.807   0.048 -0.1826  0.5466 -0.3965
   57MOL   C44727439   4.615   4.702   0.003  0.4730  0.2295 -0.2225
   57MOL   C44827440   4.638   4.683   8.289  0.7399  0.3557 -0.3264
   57MOL   O44927441   4.514   4.850   0.179 -0.0477  0.3097 -0.1020
   57MOL   H45027442   5.057   4.728   8.011  1.5977  1.1759 -1.6079
   57MOL   H45127443   4.836   4.634   8.076  0.9084 -0.5494 -1.9310
   57MOL   H45227444   4.638   4.945   7.863 -0.6934 -2.1369 -0.1646
   57MOL   H45327445   4.862   5.012   7.749  4.0488 -0.2507  0.5905
   57MOL   H45427446   4.409   4.898   8.168 -1.0066 -0.5617  0.3157
   57MOL   H45527447   4.381   4.949   8.418 -1.0319 -1.4495  0.2133
   57MOL   H45627448   4.681   4.651   0.070  2.5198  2.2830 -0.5986
   57MOL   H45727449   4.703   4.602   8.262 -1.9538 -2.3869  1.1161
   57MOL   C45827450   4.338   4.704   0.246 -0.2158 -0.1737 -0.2119
   57MOL   C45927451   4.224   4.672   0.318 -0.1542  0.3110  1.4245
   57MOL   C46027452   4.169   4.769   0.398 -0.3523 -0.3568 -0.2610
   57MOL   C46127453   4.213   4.907   0.399 -0.5610  0.5631  0.0153
   57MOL   C46227454   4.331   4.936   0.325 -0.8751  0.3557 -0.0620
   57MOL   C46327455   4.393   4.834   0.244 -0.0919  0.0148  0.0027
   57MOL   S46427456   4.028   4.736   0.503 -0.1513  0.0078  0.2251
   57MOL   O46527457   3.910   4.742   0.416 -1.0671  0.3378 -0.0572
   57MOL   O46627458   4.047   4.823   0.622 -0.1134 -0.0949 -0.5407
   57MOL   C46727459   4.028   4.563   0.552 -0.3479  0.4396 -0.0309
   57MOL   C46827460   3.949   4.470   0.482 -0.2375 -0.4915  0.1901
   57MOL   C46927461   3.946   4.340   0.535 -0.8695  0.3072 -0.1539
   57MOL   C47027462   4.029   4.295   0.642  0.5783 -0.3981  0.0702
   57MOL   C47127463   4.096   4.396   0.722 -0.2447 -0.0445  0.7265
   57MOL   C47227464   4.102   4.528   0.669  0.6551 -0.5038 -0.0310
   57MOL   O47327465   4.041   4.166   0.674 -0.1787 -0.0362  0.6627
   57MOL   H47427466   4.391   4.623   0.197  0.5366  0.9947 -1.3772
   57MOL   H47527467   4.183   4.571   0.320  2.1575 -0.8091 -2.3077
   57MOL   H47627468   4.164   4.987   0.453  3.7106  2.7816  0.7647
   57MOL   H47727469   4.377   5.032   0.340 -1.3407  0.7456 -1.0525
   57MOL   H47827470   3.882   4.498   0.401  1.7291 -0.2438 -1.3896
   57MOL   H47927471   3.886   4.268   0.482  0.1014 -1.3485  0.9267
   57MOL   H48027472   4.147   4.384   0.816  1.3430 -1.5416 -0.3041
   57MOL   H48127473   4.156   4.608   0.718  1.4655  0.3004 -2.1380
   57MOL   H48227474   3.976   4.114   0.628 -0.7300 -0.1717  1.5928
   58MOL     C127475   8.381   1.034   4.878 -0.6014  0.4096 -0.3141
   58MOL     C227476   8.311   0.920   4.845  0.3285  0.0685 -0.3202
   58MOL     C327477   8.192   0.932   4.776 -0.2894  0.0091 -0.3519
   58MOL     C427478   8.141   1.059   4.731 -0.7033 -0.9215 -0.1430
   58MOL     C527479   8.227   1.170   4.752 -0.0593 -0.3858 -0.5625
   58MOL     C627480   8.340   1.160   4.834 -0.1094 -0.1866 -0.5904
   58MOL     S727481   8.110   0.779   4.738  0.1369  0.5834 -0.2863
   58MOL     O827482   8.205   0.691   4.665 -0.7128  0.4350  0.2235
   58MOL     O927483   7.989   0.815   4.660  0.8303  0.6354 -0.1418
   58MOL    C1027484   8.069   0.717   4.903  0.1642 -0.6150 -0.5338
   58MOL    C1127485   8.171   0.663   4.989  0.6282  0.4613  0.1441
   58MOL    C1227486   8.143   0.617   5.112  0.1674  0.0681 -0.0978
   58MOL    C1327487   8.020   0.630   5.172  0.6880  0.3443  0.6370
   58MOL    C1427488   7.919   0.685   5.092 -0.3603  0.3753 -0.4746
   58MOL    C1527489   7.945   0.733   4.964  0.0861  0.0997 -0.4082
   58MOL    O1627490   7.998   0.602   5.308  0.2054 -0.0646 -0.4121
   58MOL    H1727491   0.056   1.019   4.918 -1.8916 -0.9765  2.4973
   58MOL    H1827492   8.363   0.827   4.858 -0.0654 -0.1150 -0.0291
   58MOL    H1927493   8.041   1.071   4.690  0.2123 -0.5877 -2.3427
   58MOL    H2027494   8.203   1.269   4.715  1.1614 -0.2863 -1.1029
   58MOL    H2127495   8.271   0.645   4.951  1.7569  2.6014  1.9566
   58MOL    H2227496   8.236   0.583   5.156 -0.3987 -0.6036  0.5937
   58MOL    H2327497   7.819   0.684   5.132 -0.4669 -1.2185 -0.7354
   58MOL    H2427498   7.866   0.789   4.915 -1.3561 -0.5691  1.0803
   58MOL    H2527499   8.402   1.246   4.849  1.4521 -1.5164  0.8706
   58MOL    C2627500   8.203   0.631   5.438  0.1015  0.0651  0.1684
   58MOL    C2727501   8.270   0.694   5.540 -0.5634  0.3627  1.1556
   58MOL    C2827502   8.203   0.785   5.619  0.2261 -0.0982 -0.5384
   58MOL    C2927503   8.075   0.831   5.593 -0.5402 -0.0427  0.8372
   58MOL    C3027504   8.011   0.768   5.481  0.6621 -0.0001 -0.2727
   58MOL    C3127505   8.071   0.667   5.408 -0.3083 -0.6503 -0.3932
   58MOL    S3227506   8.288   0.867   5.744 -0.0170 -0.2500  0.0902
   58MOL    O3327507   8.206   0.859   5.863  0.3026 -0.0868  0.0807
   58MOL    O3427508   8.323   0.995   5.680  0.2683  0.0964  0.3185
   58MOL    C3527509   0.015   0.778   5.782  0.1056 -0.3125 -0.3429
   58MOL    C3627510   0.137   0.823   5.729 -0.6184  0.2233 -0.0715
   58MOL    C3727511   0.259   0.747   5.736 -0.5007  0.2645 -0.0679
   58MOL    C3827512   0.259   0.638   5.831 -0.3033 -1.0377 -0.4467
   58MOL    C3927513   0.137   0.595   5.883  0.9891  0.0594 -0.0478
   58MOL    C4027514   0.010   0.653   5.851 -0.2552 -0.5137  0.0003
   58MOL    O4127515   0.381   0.583   5.877 -0.0145  0.3355 -0.3814
   58MOL    H4227516   8.258   0.553   5.387  2.7128  2.1699 -0.3301
   58MOL    H4327517   8.373   0.668   5.560 -1.0353  0.0118  3.3257
   58MOL    H4427518   8.031   0.909   5.653 -0.4473  1.9600 -1.6227
   58MOL    H4527519   7.918   0.812   5.448 -0.0212 -1.4873 -0.3614
   58MOL    H4627520   0.150   0.918   5.679 -0.7282  2.1237  3.3864
   58MOL    H4727521   0.352   0.787   5.699  0.2090 -0.1402  1.2237
   58MOL    H4827522   0.142   0.515   5.956 -0.2163  0.9277  0.9989
   58MOL    H4927523   8.347   0.605   5.893 -1.2213  0.3541 -1.0059
   58MOL    C5027524   0.473   0.757   6.011 -0.3822  0.8411  0.5905
   58MOL    C5127525   0.505   0.804   6.140  0.0724 -0.4470 -0.1825
   58MOL    C5227526   0.477   0.729   6.254 -0.1700  0.3015 -0.7694
   58MOL    C5327527   0.417   0.604   6.241  0.4855 -0.1122  0.5424
   58MOL    C5427528   0.387   0.550   6.114 -0.5576  0.0437  0.1076
   58MOL    C5527529   0.420   0.629   6.000 -0.0429  0.1926 -0.3801
   58MOL    S5627530   0.516   0.792   6.425  0.1874 -0.0839  0.3692
   58MOL    O5727531   0.658   0.825   6.432  0.5123  0.0189 -0.1146
   58MOL    O5827532   0.451   0.698   6.517  0.0426 -0.1530 -0.7351
   58MOL    C5927533   0.430   0.949   6.440 -0.4219 -0.0601  0.0250
   58MOL    C6027534   0.448   1.055   6.348 -0.2844  0.6689  0.3873
   58MOL    C6127535   0.364   1.162   6.357  0.0613 -0.5173 -0.0434
   58MOL    C6227536   0.262   1.169   6.454 -0.5082  0.4795 -0.2811
   58MOL    C6327537   0.248   1.065   6.549  0.4298 -0.1196 -0.0420
   58MOL    C6427538   0.338   0.954   6.546  0.4072  0.2335 -0.2039
   58MOL    O6527539   0.170   1.270   6.443  0.3018 -0.7759 -0.4403
   58MOL    H6627540   0.492   0.825   5.929 -1.9163  1.4586  0.7256
   58MOL    H6727541   0.559   0.898   6.145  0.9477 -0.7505 -3.0305
   58MOL    H6827542   0.388   0.546   6.327  1.0998 -0.0502  0.7913
   58MOL    H6927543   0.328   0.460   6.102  0.0152 -0.3121 -0.1368
   58MOL    H7027544   0.516   1.045   6.264 -0.9672 -0.7656 -0.0233
   58MOL    H7127545   0.376   1.240   6.282 -0.3572 -1.9188 -1.5932
   58MOL    H7227546   0.176   1.086   6.627 -0.0224 -0.4708 -0.3652
   58MOL    H7327547   0.344   0.877   6.622 -2.0240  0.3299  0.1037
   58MOL    C7427548   0.269   1.419   6.605 -0.3948  0.1784 -0.6922
   58MOL    C7527549   0.318   1.547   6.635  0.7376  0.3589 -0.5764
   58MOL    C7627550   0.321   1.649   6.538  0.3767  0.2436 -0.3626
   58MOL    C7727551   0.272   1.624   6.407  0.3124  0.8681 -0.1574
   58MOL    C7827552   0.221   1.497   6.379  0.0312  0.3557  0.6512
   58MOL    C7927553   0.221   1.394   6.472 -0.4342 -0.2325 -0.3601
   58MOL    S8027554   0.384   1.815   6.567  0.2346 -0.8335  0.4877
   58MOL    O8127555   0.453   1.872   6.448 -0.0755 -0.4272 -0.0161
   58MOL    O8227556   0.450   1.812   6.699  0.2253  0.2204 -0.3760
   58MOL    C8327557   0.241   1.919   6.591 -0.0859  0.4875 -0.4302
   58MOL    C8427558   0.147   1.946   6.486 -0.2063  0.3521 -0.4918
   58MOL    C8527559   0.037   2.038   6.505  0.9951  0.2319  0.3839
   58MOL    C8627560   0.017   2.096   6.632 -0.0959  0.1359  0.3773
   58MOL    C8727561   0.110   2.076   6.736 -0.5443 -0.4632  0.3228
   58MOL    C8827562   0.221   1.988   6.711  0.4667  0.0649  0.2178
   58MOL    O8927563   8.330   2.161   6.660  0.2823 -0.6607  0.3635
   58MOL    H9027564   0.258   1.336   6.673  0.2251  1.5367  1.0877
   58MOL    H9127565   0.347   1.579   6.734 -3.3620 -0.9984  1.1369
   58MOL    H9227566   0.266   1.706   6.338 -3.0955 -0.8495 -2.0307
   58MOL    H9327567   0.174   1.483   6.282 -0.4195  3.3804  0.3843
   58MOL    H9427568   0.153   1.900   6.389  0.2612 -3.4715  1.2694
   58MOL    H9527569   8.400   2.066   6.421  3.8588  0.3400 -1.7868
   58MOL    H9627570   0.099   2.127   6.831  0.7789 -2.4624  1.5935
   58MOL    H9727571   0.291   1.986   6.793  0.7770  1.1002 -0.0162
   58MOL    C9827572   8.232   1.963   6.758 -0.0860  0.6856  0.1507
   58MOL    C9927573   8.144   1.905   6.850 -0.4518 -0.7458  0.3081
   58MOL   C10027574   8.092   1.986   6.949 -0.5629  0.2917  0.3277
   58MOL   C10127575   8.116   2.128   6.955  0.3973 -0.0568 -0.0345
   58MOL   C10227576   8.197   2.188   6.857  0.5272 -0.5568 -0.5740
   58MOL   C10327577   8.263   2.104   6.763 -0.3351 -0.1540  0.3025
   58MOL   S10427578   7.995   1.892   7.081 -0.0914  0.1079  0.3760
   58MOL   O10527579   8.068   1.767   7.101 -0.6171  0.1530  0.1279
   58MOL   O10627580   7.853   1.886   7.034  0.2522  0.3415  0.1546
   58MOL   C10727581   7.999   1.984   7.235  0.1240 -0.0112 -0.4700
   58MOL   C10827582   8.124   1.976   7.309 -0.1042 -0.6303  0.9283
   58MOL   C10927583   8.130   2.050   7.430  0.3576  0.2516  0.3906
   58MOL   C11027584   8.015   2.118   7.489 -0.2945  0.6366  0.8808
   58MOL   C11127585   7.892   2.113   7.418  0.8759  0.5031  0.7418
   58MOL   C11227586   7.885   2.038   7.290  0.2937 -0.8174 -0.3997
   58MOL   O11327587   8.023   2.183   7.614 -0.0330 -0.3859  0.7710
   58MOL   H11427588   8.274   1.902   6.679 -1.5755  0.5128 -0.5296
   58MOL   H11527589   8.124   1.799   6.843 -0.5692 -0.7999  1.3838
   58MOL   H11627590   8.067   2.191   7.027  1.9794  2.4795 -1.1226
   58MOL   H11727591   8.213   2.295   6.856  0.1743 -0.4848  0.6935
   58MOL   H11827592   8.217   1.931   7.281 -0.3192 -1.2104  1.1397
   58MOL   H11927593   8.228   2.054   7.476  1.0988 -1.7010 -0.9688
   58MOL   H12027594   7.804   2.154   7.465  1.7378  0.4775  2.3968
   58MOL   H12127595   7.789   2.038   7.240  1.1323  1.7504 -2.0596
   58MOL   C12227596   7.871   2.162   7.801 -0.1028  0.2052 -0.1912
   58MOL   C12327597   7.829   2.082   7.910  0.1117 -0.4735 -0.0163
   58MOL   C12427598   7.884   1.950   7.924  0.4019  1.0377  0.0358
   58MOL   C12527599   7.998   1.913   7.855 -0.0760  0.1156  0.0152
   58MOL   C12627600   8.048   1.996   7.755 -0.2917 -0.7110  0.3256
   58MOL   C12727601   7.983   2.115   7.722 -0.3763  0.1484 -0.4849
   58MOL   S12827602   7.795   1.847   8.037 -0.0466 -0.5988 -0.3955
   58MOL   O12927603   7.666   1.820   7.975  0.3152  0.5716  0.7158
   58MOL   O13027604   7.800   1.916   8.170  0.1577 -0.5354 -0.4869
   58MOL   C13127605   7.886   1.698   8.048  0.6321  0.2643  0.3807
   58MOL   C13227606   7.831   1.589   7.994  0.3541 -0.0793  0.4873
   58MOL   C13327607   7.908   1.472   7.982  0.5215  0.2737  0.1361
   58MOL   C13427608   8.042   1.467   8.023  0.3185  0.1466 -0.2183
   58MOL   C13527609   8.098   1.584   8.083  0.3016 -0.1463 -0.2873
   58MOL   C13627610   8.023   1.700   8.090  0.4574 -0.4592  0.5413
   58MOL   O13727611   8.117   1.347   8.011 -0.0738  0.5399 -0.1798
   58MOL   H13827612   7.817   2.255   7.793 -2.4710 -1.0949  0.3125
   58MOL   H13927613   7.741   2.104   7.969  0.0060 -2.0099  0.4228
   58MOL   H14027614   8.056   1.824   7.874  0.1172 -0.0293 -1.2020
   58MOL   H14127615   8.133   1.964   7.696 -0.0519 -1.8931  1.2832
   58MOL   H14227616   7.726   1.588   7.969  0.2772 -2.1948  0.8049
   58MOL   H14327617   7.859   1.377   7.965  0.0632  0.1127  2.2582
   58MOL   H14427618   8.193   1.588   8.135 -0.3790 -0.7914  1.0110
   58MOL   H14527619   8.063   1.785   8.144 -0.1862  0.2280 -0.0413
   58MOL   C14627620   8.155   1.171   7.846 -0.0763  0.4685 -0.0812
   58MOL   C14727621   8.197   1.134   7.714  0.2353  0.3320  0.3294
   58MOL   C14827622   8.246   1.234   7.629  0.5985  0.5293  0.0537
   58MOL   C14927623   8.244   1.365   7.667  0.0118  0.4487  0.3418
   58MOL   C15027624   8.195   1.400   7.793 -0.0806 -0.3727  0.2380
   58MOL   C15127625   8.154   1.308   7.888  0.0081  0.5810  0.0526
   58MOL   S15227626   8.327   1.185   7.475 -0.0022 -0.1885  0.1451
   58MOL   O15327627   0.017   1.095   7.508  0.2989  0.1164 -0.6366
   58MOL   O15427628   8.361   1.309   7.399  0.3087  0.6443  0.0838
   58MOL   C15527629   8.191   1.100   7.390 -0.5267 -0.0507  0.3472
   58MOL   C15627630   8.073   1.164   7.353  0.0472  0.6796 -0.0443
   58MOL   C15727631   7.978   1.093   7.272 -0.3039  0.2495 -0.0549
   58MOL   C15827632   8.012   0.968   7.224 -0.0388 -0.4735 -0.1349
   58MOL   C15927633   8.130   0.904   7.268 -0.2422  0.2714  0.7816
   58MOL   C16027634   8.217   0.967   7.357 -0.1553  0.2352 -0.0741
   58MOL   O16127635   7.933   0.909   7.124 -0.7876  0.4926  0.0157
   58MOL   H16227636   8.116   1.099   7.915  0.9665 -0.6895 -0.6891
   58MOL   H16327637   8.177   1.034   7.677 -1.9643 -0.5732  3.7795
   58MOL   H16427638   8.285   1.437   7.598 -2.5423  2.0458  0.4093
   58MOL   H16527639   8.200   1.506   7.813  0.7848 -0.3203 -0.2208
   58MOL   H16627640   8.049   1.266   7.379 -2.9524  0.0151  0.0271
   58MOL   H16727641   7.899   1.153   7.230 -0.9558 -2.4067 -2.7732
   58MOL   H16827642   8.152   0.808   7.224 -0.1131  0.5300  0.2770
   58MOL   H16927643   8.307   0.920   7.395 -1.8537 -2.2962  0.9499
   58MOL   C17027644   7.734   0.787   7.078 -0.7884 -0.2977 -0.2005
   58MOL   C17127645   7.656   0.670   7.099 -0.1276  0.3767  0.2495
   58MOL   C17227646   7.697   0.573   7.198 -0.0514 -0.3646  0.2030
   58MOL   C17327647   7.813   0.591   7.277 -0.6497 -0.3919 -0.0455
   58MOL   C17427648   7.891   0.704   7.258  0.0334  0.0509  0.1298
   58MOL   C17527649   7.857   0.800   7.153 -0.2857 -0.6151 -0.7162
   58MOL   S17627650   7.577   0.432   7.225 -0.0525  0.2474  0.4708
   58MOL   O17727651   7.534   0.389   7.094  0.2550 -0.4045  0.4811
   58MOL   O17827652   7.479   0.478   7.324  0.2232  0.2431 -0.0499
   58MOL   C17927653   7.677   0.302   7.294  0.3321 -0.0819 -0.5116
   58MOL   C18027654   7.813   0.272   7.257  0.1905  0.0310  0.0072
   58MOL   C18127655   7.876   0.177   7.344  0.1631 -0.7097  0.5101
   58MOL   C18227656   7.808   0.103   7.447 -0.1713 -0.5054  0.3088
   58MOL   C18327657   7.671   0.133   7.472 -0.2942  0.9349 -0.1340
   58MOL   C18427658   7.609   0.232   7.396  0.0640  0.4009 -0.2113
   58MOL   O18527659   7.876   0.011   7.520  0.1585 -0.0804  0.1353
   58MOL   H18627660   7.699   0.862   7.008 -0.9779  1.8930  2.1381
   58MOL   H18727661   7.564   0.658   7.044  1.3989  0.3470 -2.3845
   58MOL   H18827662   7.829   0.514   7.351 -0.7610 -0.9737 -0.6217
   58MOL   H18927663   7.981   0.715   7.315 -1.2821 -2.3125  2.7488
   58MOL   H19027664   7.865   0.326   7.179 -0.9509  1.0869 -0.0457
   58MOL   H19127665   7.978   0.151   7.324  0.4146 -0.1822  1.1179
   58MOL   H19227666   7.624   0.070   7.546 -0.0552 -1.1015 -1.6697
   58MOL   H19327667   7.507   0.260   7.417 -0.4481 -2.5283  1.4692
   58MOL   C19427668   8.053   0.122   7.625  0.5156  0.3944 -0.7236
   58MOL   C19527669   8.103   0.185   7.741 -0.4918 -0.4248 -0.3473
   58MOL   C19627670   8.032   0.175   7.862  0.6042 -0.3001 -0.7123
   58MOL   C19727671   7.908   0.107   7.869  0.3492 -0.0936  0.5415
   58MOL   C19827672   7.856   0.052   7.754  0.5485 -0.8609 -0.0246
   58MOL   C19927673   7.931   0.056   7.634  0.5907  0.3925 -0.4683
   58MOL   S20027674   8.100   0.257   8.008 -0.0219 -0.2830  0.3098
   58MOL   O20127675   8.236   0.310   7.974 -0.0449  0.1177  0.1582
   58MOL   O20227676   8.082   0.176   8.129 -0.5485 -0.1475 -0.3881
   58MOL   C20327677   7.987   0.400   8.019  0.0301 -0.2940 -0.1634
   58MOL   C20427678   7.856   0.380   8.068 -0.2622 -0.6879 -0.6829
   58MOL   C20527679   7.768   0.487   8.071  0.5254 -0.1606 -0.4949
   58MOL   C20627680   7.810   0.616   8.053  0.1729 -0.3487 -0.8039
   58MOL   C20727681   7.939   0.641   8.001 -0.5369  0.3710  0.2732
   58MOL   C20827682   8.027   0.532   7.986 -0.2883 -0.5788 -0.1218
   58MOL   O20927683   7.733   0.725   8.075  0.1193 -0.0748 -0.6708
   58MOL   H21027684   8.096   0.124   7.526  0.4175  0.5025 -0.7645
   58MOL   H21127685   8.202   0.230   7.741 -0.5373 -0.2668  2.5471
   58MOL   H21227686   7.840   0.104   7.953  1.0753 -1.6291  1.1027
   58MOL   H21327687   7.751   0.030   7.746 -0.2606  2.6566 -0.1592
   58MOL   H21427688   7.816   0.291   8.113 -1.6032 -0.3208 -1.1484
   58MOL   H21527689   7.680   0.463   8.128  0.8407 -1.1782 -0.4297
   58MOL   H21627690   7.978   0.741   7.984  1.1714 -0.0071  1.7438
   58MOL   H21727691   8.129   0.548   7.956  0.1486 -1.9258  0.6362
   58MOL   C21827692   7.812   0.937   8.135  0.0503  1.0212  0.0024
   58MOL   C21927693   7.884   1.018   8.227 -0.3593  0.6884 -0.3104
   58MOL   C22027694   7.917   0.963   8.350  0.0878 -0.5407  1.1419
   58MOL   C22127695   7.856   0.845   8.397 -0.5358  0.0169  0.5357
   58MOL   C22227696   7.792   0.763   8.303  0.3346 -0.8271 -0.8835
   58MOL   C22327697   7.774   0.809   8.171  0.3330  0.4329 -0.5917
   58MOL   S22427698   8.006   1.064   0.044 -0.1831 -0.1123 -0.0175
   58MOL   O22527699   7.941   1.041   0.173 -0.1635  0.3550 -0.1482
   58MOL   O22627700   8.026   1.201   8.413 -0.0819 -0.0007  0.1928
   58MOL   C22727701   8.168   0.984   0.045 -0.4303 -0.0210  0.0298
   58MOL   C22827702   8.264   1.054   0.121  0.8782  0.3475 -0.3070
   58MOL   C22927703   8.396   0.996   0.132 -0.4318  0.0278 -0.1955
   58MOL   C23027704   8.424   0.876   0.070  0.3243  0.0948  0.1471
   58MOL   C23127705   8.331   0.811   8.412  0.0023 -0.0993 -0.4039
   58MOL   C23227706   8.200   0.863   8.404 -0.0865  0.2368  0.4222
   58MOL   O23327707   0.121   0.817   0.099 -0.3037  0.5474  0.1364
   58MOL   H23427708   7.799   0.971   8.033  2.0119  2.5564  0.2181
   58MOL   H23527709   7.917   1.118   8.204 -1.7149  0.8529 -1.5789
   58MOL   H23627710   7.874   0.823   0.076 -0.3414  3.0985  1.2039
   58MOL   H23727711   7.758   0.664   8.330  0.9009 -1.4729 -2.4854
   58MOL   H23827712   8.237   1.145   0.173  0.4243 -0.3862  0.7576
   58MOL   H23927713   0.039   1.035   0.206 -0.9062 -1.8690  1.3094
   58MOL   H24027714   8.363   0.728   8.350 -0.2195  1.0808 -2.1117
   58MOL   H24127715   8.128   0.814   8.340  0.7427 -2.4643  1.4726
   58MOL   C24227716   0.138   0.588   0.178  1.2085 -0.6096 -0.4047
   58MOL   C24327717   0.159   0.507   0.288  0.3471  1.0649 -0.0967
   58MOL   C24427718   0.185   0.559   0.417 -0.2097  0.5243  0.3280
   58MOL   C24527719   0.204   0.699   0.434  0.6551  0.4253  0.3179
   58MOL   C24627720   0.189   0.782   0.321 -0.0682 -0.0075 -0.1713
   58MOL   C24727721   0.144   0.727   0.200  0.2796 -0.2108 -0.6525
   58MOL   S24827722   0.221   0.454   0.549  0.1405  0.1929 -0.0048
   58MOL   O24927723   0.358   0.500   0.587 -0.0039  0.0251  0.2876
   58MOL   O25027724   0.198   0.310   0.510 -0.0072  0.1485 -0.7087
   58MOL   C25127725   0.094   0.487   0.675 -0.7229 -0.4336  0.0733
   58MOL   C25227726   8.391   0.440   0.655 -0.1148 -0.6509 -0.4604
   58MOL   C25327727   8.293   0.461   0.756  1.0860  0.0547  0.8685
   58MOL   C25427728   8.324   0.542   0.863  0.0795 -0.2567 -1.4863
   58MOL   C25527729   0.027   0.599   0.871  0.0631  0.6616 -0.4425
   58MOL   C25627730   0.128   0.571   0.781 -0.3354  0.4162  0.8457
   58MOL   O25727731   8.237   0.579   0.962  0.0084  0.1852  0.1485
   58MOL   H25827732   0.129   0.539   0.082 -0.0644 -0.9335 -0.1333
   58MOL   H25927733   0.156   0.400   0.297 -0.6078  1.1429  0.5173
   58MOL   H26027734   0.232   0.734   0.532 -0.5509  0.2954  0.7228
   58MOL   H26127735   0.204   0.888   0.316 -0.2185  0.0357  0.2814
   58MOL   H26227736   8.364   0.380   0.569  0.6442 -1.2432 -0.2897
   58MOL   H26327737   8.192   0.425   0.744  0.8335  1.2776 -0.8350
   58MOL   H26427738   0.045   0.676   0.943 -0.1159  0.2842  0.0060
   58MOL   H26527739   0.229   0.607   0.792  0.1775 -0.5276 -0.6443
   58MOL   C26627740   8.321   0.583   1.190  0.4432 -0.0079 -0.4777
   58MOL   C26727741   8.338   0.523   1.316 -0.0460  0.2025 -0.0241
   58MOL   C26827742   8.248   0.420   1.350 -0.3608 -0.1372 -0.6490
   58MOL   C26927743   8.177   0.351   1.254  0.5583 -0.4101  0.9793
   58MOL   C27027744   8.169   0.402   1.122  0.3309 -0.7475  0.3625
   58MOL   C27127745   8.242   0.516   1.087 -0.0325 -0.0829  0.6331
   58MOL   S27227746   8.245   0.344   1.512 -0.1915  0.1949  0.4556
   58MOL   O27327747   8.357   0.252   1.526  0.0366 -0.0967  0.7567
   58MOL   O27427748   8.110   0.296   1.537  0.1608  0.5844  0.5315
   58MOL   C27527749   8.283   0.479   1.613  0.1721  0.2417 -0.5296
   58MOL   C27627750   8.410   0.493   1.669 -0.0211 -0.4470 -0.2930
   58MOL   C27727751   0.010   0.603   1.747  0.2154  0.8810  0.5833
   58MOL   C27827752   8.344   0.705   1.772  0.4748 -0.4303 -0.0548
   58MOL   C27927753   8.214   0.692   1.715 -0.2687 -0.8719 -0.0372
   58MOL   C28027754   8.185   0.579   1.637 -0.7530 -0.4441  0.5371
   58MOL   O28127755   8.386   0.816   1.833 -0.0122 -0.0463  0.2877
   58MOL   H28227756   8.373   0.673   1.160  1.0053 -0.7118 -1.6698
   58MOL   H28327757   8.399   0.564   1.395  0.1739  1.6613 -0.9428
   58MOL   H28427758   8.140   0.259   1.295 -1.1880  0.3914  1.2496
   58MOL   H28527759   8.109   0.345   1.053 -1.1116 -0.6905  1.5595
   58MOL   H28627760   0.055   0.414   1.644  0.9264  0.2804  0.0524
   58MOL   H28727761   0.110   0.610   1.790  1.7251  1.0803 -2.8215
   58MOL   H28827762   8.147   0.775   1.730 -0.1367 -1.2639  3.2334
   58MOL   H28927763   8.090   0.577   1.586 -0.2937  1.2595 -0.4480
   58MOL   C29027764   0.025   0.911   2.039 -0.1531  0.2274 -0.3825
   58MOL   C29127765   0.006   0.936   2.176  0.2142  0.6634 -0.9834
   58MOL   C29227766   8.321   0.877   2.242 -0.5896  0.4884 -0.3276
   58MOL   C29327767   8.245   0.772   2.178 -1.0285 -0.0227 -0.8538
   58MOL   C29427768   8.256   0.755   2.037 -0.2985 -0.2276 -0.3678
   58MOL   C29527769   8.362   0.826   1.972  1.0763  0.7042  0.4090
   58MOL   S29627770   8.274   0.929   2.407 -0.0271 -0.2391 -0.1060
   58MOL   O29727771   8.381   1.017   2.455  0.5008  0.0225 -0.0563
   58MOL   O29827772   8.234   0.807   2.486 -0.3036  0.3221  0.1501
   58MOL   C29927773   8.132   1.037   2.396  0.2941 -1.1675  0.2055
   58MOL   C30027774   8.027   1.006   2.311 -0.2786  0.3581  0.1157
   58MOL   C30127775   7.910   1.081   2.314 -0.6831  0.0313  0.1832
   58MOL   C30227776   7.892   1.192   2.397  0.4363  0.3393 -0.2131
   58MOL   C30327777   7.994   1.220   2.488 -0.3399 -0.3035  0.2843
   58MOL   C30427778   8.108   1.139   2.489  0.3423  0.3173  0.1557
   58MOL   O30527779   7.782   1.267   2.396  0.1402 -0.3507 -0.0795
   58MOL   H30627780   0.100   0.955   1.976  0.8119 -0.3520  0.3338
   58MOL   H30727781   0.070   1.005   2.230 -1.8435  1.0668  1.0140
   58MOL   H30827782   8.165   0.731   2.237  0.6775 -0.9911  0.8429
   58MOL   H30927783   8.188   0.688   1.988 -0.0351 -0.4325 -0.4534
   58MOL   H31027784   8.042   0.937   2.229 -0.4684 -0.0385  0.4099
   58MOL   H31127785   7.825   1.055   2.253  0.2414 -2.5972 -0.0568
   58MOL   H31227786   7.979   1.295   2.564 -0.0565 -0.4236  0.4569
   58MOL   H31327787   8.190   1.152   2.557 -0.0479 -0.7592  0.8507
   58MOL   C31427788   7.612   1.218   2.568 -1.0641  0.0338 -0.0120
   58MOL   C31527789   7.492   1.164   2.598 -0.2363  0.4890  0.2453
   58MOL   C31627790   7.415   1.094   2.506 -0.5384 -0.0696  0.0274
   58MOL   C31727791   7.467   1.072   2.376 -0.2746 -0.1311  0.2475
   58MOL   C31827792   7.586   1.137   2.336 -0.1769  0.4829  0.1789
   58MOL   C31927793   7.664   1.207   2.434 -1.0022  0.7393  0.3866
   58MOL   S32027794   7.261   1.013   2.552 -0.1549 -0.3840  0.4565
   58MOL   O32127795   7.271   0.985   2.699  0.0947  0.2391  0.5091
   58MOL   O32227796   7.229   0.902   2.456 -0.5909  0.1371  0.0571
   58MOL   C32327797   7.139   1.138   2.526 -0.1270 -0.0606  0.5146
   58MOL   C32427798   7.081   1.155   2.398  0.0318 -0.5607 -0.3473
   58MOL   C32527799   6.984   1.260   2.373  0.2687 -0.4279  0.7686
   58MOL   C32627800   6.947   1.350   2.480 -0.5768  0.0051  0.3622
   58MOL   C32727801   7.007   1.328   2.603  0.1704 -0.4822 -0.3092
   58MOL   C32827802   7.101   1.228   2.633  0.2166 -0.2161 -0.3767
   58MOL   O32927803   6.859   1.453   2.466  0.1937  0.0926  0.3240
   58MOL   H33027804   7.657   1.277   2.647 -1.8140  2.1762 -1.1381
   58MOL   H33127805   7.458   1.171   2.700 -0.3757  0.2182  0.2179
   58MOL   H33227806   7.421   1.004   2.306 -0.8989  0.3874  0.1510
   58MOL   H33327807   7.623   1.112   2.238  2.0505  0.1663  1.0730
   58MOL   H33427808   7.114   1.094   2.315 -0.4912 -0.0314 -0.9513
   58MOL   H33527809   6.929   1.272   2.281  2.2753  2.2906 -0.1422
   58MOL   H33627810   6.975   1.398   2.679  0.0916  0.4922 -1.2359
   58MOL   H33727811   7.135   1.209   2.734  0.1010 -0.2633 -0.3470
   58MOL   C33827812   6.641   1.533   2.482  0.1008 -0.4491  0.4903
   58MOL   C33927813   6.501   1.510   2.501 -0.0360 -0.6429  0.3505
   58MOL   C34027814   6.449   1.380   2.496  0.2355 -0.8093  0.4775
   58MOL   C34127815   6.536   1.273   2.485 -1.2822  0.1107  0.0374
   58MOL   C34227816   6.678   1.297   2.475  1.2493  0.0742  0.0138
   58MOL   C34327817   6.728   1.427   2.469 -0.2691 -0.3411 -0.9483
   58MOL   S34427818   6.271   1.365   2.505  0.0335 -0.6724  0.0419
   58MOL   O34527819   6.229   1.240   2.436  0.1327  0.2106  0.5052
   58MOL   O34627820   6.214   1.491   2.460 -0.2051  0.2084 -0.0735
   58MOL   C34727821   6.242   1.357   2.675 -0.3203 -0.0015  0.3083
   58MOL   C34827822   6.314   1.426   2.770 -0.2224 -0.1721  0.1341
   58MOL   C34927823   6.291   1.399   2.907  0.3212  0.3496 -0.1346
   58MOL   C35027824   6.206   1.294   2.951 -0.1878 -0.3902 -0.9132
   58MOL   C35127825   6.133   1.228   2.854 -0.0145  0.0006  0.3886
   58MOL   C35227826   6.148   1.256   2.715  0.0311 -0.1145 -0.0601
   58MOL   O35327827   6.198   1.237   3.080  0.3184  0.2393 -0.0688
   58MOL   H35427828   6.680   1.634   2.477  2.0207 -1.1744  0.6969
   58MOL   H35527829   6.442   1.601   2.504 -0.5775 -0.9760 -0.0350
   58MOL   H35627830   6.504   1.170   2.486  4.2940 -1.7869  0.7117
   58MOL   H35727831   6.741   1.209   2.471  1.3260  0.0998  0.5586
   58MOL   H35827832   6.388   1.500   2.743 -0.6103  0.3847  0.5745
   58MOL   H35927833   6.355   1.447   2.979 -1.4881  1.3623  0.8291
   58MOL   H36027834   6.074   1.141   2.879 -0.5711  0.3386  0.2662
   58MOL   H36127835   6.100   1.181   2.653  1.7503 -0.7159 -0.7034
   58MOL   C36227836   6.222   1.432   3.224  0.0336 -0.2853  0.3365
   58MOL   C36327837   6.276   1.488   3.340  0.0820 -0.7909  0.9770
   58MOL   C36427838   6.352   1.415   3.425 -0.1571 -0.0503 -0.3449
   58MOL   C36527839   6.388   1.285   3.389  0.7310  0.1623 -0.6449
   58MOL   C36627840   6.334   1.220   3.276 -0.3792  0.1701  0.1503
   58MOL   C36727841   6.252   1.299   3.188  0.8830 -0.0045 -0.6037
   58MOL   S36827842   6.426   1.491   3.575 -0.1509  0.3761  0.3481
   58MOL   O36927843   6.469   1.386   3.669  0.6394 -0.0886 -0.0449
   58MOL   O37027844   6.322   1.587   3.622 -0.4403 -0.2076  0.2891
   58MOL   C37127845   6.566   1.580   3.497  1.1137 -0.7644  0.0338
   58MOL   C37227846   6.665   1.502   3.435 -0.5580  0.4470 -0.5125
   58MOL   C37327847   6.772   1.567   3.378  0.0208  0.0898 -0.1215
   58MOL   C37427848   6.783   1.709   3.380  0.1702 -0.0097  0.1022
   58MOL   C37527849   6.679   1.788   3.445  0.5021  0.2452  0.1723
   58MOL   C37627850   6.574   1.721   3.509 -0.1794 -0.3570 -0.1055
   58MOL   O37727851   6.888   1.771   3.317 -0.9043 -0.6721 -0.0117
   58MOL   H37827852   6.163   1.493   3.156 -1.2754 -2.7074 -0.7715
   58MOL   H37927853   6.245   1.588   3.366 -2.2434 -1.5353  1.2084
   58MOL   H38027854   6.448   1.228   3.459 -1.0166 -0.3559  0.4733
   58MOL   H38127855   6.364   1.118   3.255 -0.3628  0.4368 -1.1865
   58MOL   H38227856   6.647   1.396   3.445 -3.5982  1.0527  0.9940
   58MOL   H38327857   6.847   1.513   3.322  2.1575  3.1849 -0.3886
   58MOL   H38427858   6.684   1.896   3.448 -0.5070  0.3250 -0.8164
   58MOL   H38527859   6.495   1.770   3.564  0.7747  2.5476 -1.2449
   58MOL   C38627860   6.936   1.714   3.085  0.6784 -0.5743  0.1836
   58MOL   C38727861   6.920   1.748   2.949 -0.7596  0.0047  0.0881
   58MOL   C38827862   6.829   1.847   2.907 -0.1317 -0.1966 -0.0234
   58MOL   C38927863   6.756   1.921   3.007 -0.1576  0.1195  0.1409
   58MOL   C39027864   6.773   1.895   3.144  0.9466 -0.1894 -0.1541
   58MOL   C39127865   6.865   1.794   3.183  0.2188  0.0614 -0.1938
   58MOL   S39227866   6.784   1.871   2.742  0.3473 -0.2499  0.4750
   58MOL   O39327867   6.639   1.877   2.742  0.0203 -0.3822  0.5609
   58MOL   O39427868   6.852   1.774   2.658  0.3103  0.0761  0.6951
   58MOL   C39527869   6.828   2.039   2.693 -0.1993 -0.6938  0.3211
   58MOL   C39627870   6.904   2.125   2.780 -0.6275 -0.6440  0.1287
   58MOL   C39727871   6.937   2.258   2.744  0.6305  0.2354  0.0747
   58MOL   C39827872   6.882   2.310   2.623  0.5111  0.1339  0.5040
   58MOL   C39927873   6.798   2.236   2.538 -0.2124 -0.0119  0.4417
   58MOL   C40027874   6.768   2.100   2.580 -0.4280 -0.2051 -0.2173
   58MOL   O40127875   6.903   2.435   2.584 -0.0801 -0.0678 -0.0237
   58MOL   H40227876   7.006   1.640   3.122 -0.5959 -0.8670  2.0741
   58MOL   H40327877   6.964   1.681   2.876  1.3490  0.4533  0.9085
   58MOL   H40427878   6.683   1.997   2.982  0.6191  1.1683  1.0192
   58MOL   H40527879   6.735   1.958   3.223  1.0772  0.5172 -0.6489
   58MOL   H40627880   6.939   2.088   2.875 -1.3328  0.3149  0.7663
   58MOL   H40727881   6.997   2.310   2.817  1.4003  1.4032 -1.3486
   58MOL   H40827882   6.748   2.290   2.458  0.9699 -2.5162 -2.0619
   58MOL   H40927883   6.715   2.033   2.514  0.6466  0.1590 -1.4454
   58MOL   C41027884   7.050   2.426   2.397  0.0367 -0.1522  0.5536
   58MOL   C41127885   7.160   2.474   2.334 -0.1649  0.0914 -0.1930
   58MOL   C41227886   7.255   2.549   2.405 -0.3618 -0.8120  0.0744
   58MOL   C41327887   7.234   2.579   2.544  0.5214 -0.1828  0.4857
   58MOL   C41427888   7.121   2.532   2.604  0.0373  0.5864 -0.3375
   58MOL   C41527889   7.025   2.457   2.531 -0.1571  0.3141  0.3753
   58MOL   S41627890   7.390   2.619   2.311 -0.3453 -0.2043 -0.2367
   58MOL   O41727891   7.322   2.695   2.205 -1.0063  0.1085  0.4072
   58MOL   O41827892   7.472   2.506   2.276  0.6767 -0.0727  0.4022
   58MOL   C41927893   7.473   2.743   2.413 -0.1640 -0.7437  0.1803
   58MOL   C42027894   7.453   2.881   2.397 -0.2463 -0.4043 -0.4208
   58MOL   C42127895   7.511   2.974   2.485  0.2836  0.6551  0.0722
   58MOL   C42227896   7.586   2.927   2.595 -0.4059 -0.3422  0.1648
   58MOL   C42327897   7.606   2.787   2.612  0.5525  0.1584 -0.2329
   58MOL   C42427898   7.553   2.697   2.523 -0.7661  0.1430 -0.7358
   58MOL   O42527899   7.645   3.011   2.694  0.1368  0.6359  0.0851
   58MOL   H42627900   6.966   2.395   2.337 -0.4968  2.2643 -0.0004
   58MOL   H42727901   7.172   2.464   2.227  0.3252 -2.5755  0.0678
   58MOL   H42827902   7.312   2.637   2.591 -0.1606  0.9094  0.2776
   58MOL   H42927903   7.094   2.561   2.704 -1.8707 -1.1722 -0.2878
   58MOL   H43027904   7.393   2.917   2.315 -0.1282  0.6208 -0.0583
   58MOL   H43127905   7.498   3.080   2.473 -0.0885  0.6616  0.5001
   58MOL   H43227906   7.664   2.760   2.700 -1.5231 -2.4683  0.3801
   58MOL   H43327907   7.553   2.591   2.543 -2.3218  0.1063 -0.8605
   58MOL   C43427908   7.556   3.230   2.736 -0.4955  0.2205 -0.1778
   58MOL   C43527909   7.458   3.298   2.812 -0.5874 -0.5719  0.2376
   58MOL   C43627910   7.395   3.243   2.922 -0.3842  0.9641  0.5533
   58MOL   C43727911   7.413   3.103   2.952 -0.1768  0.1829  1.1014
   58MOL   C43827912   7.504   3.031   2.877  0.3060 -0.1749 -0.2768
   58MOL   C43927913   7.565   3.088   2.761 -0.1339 -0.3642 -0.4568
   58MOL   S44027914   7.284   3.345   3.012 -0.1216 -0.3129  0.1807
   58MOL   O44127915   7.159   3.270   3.030 -0.0557 -0.4590 -0.8112
   58MOL   O44227916   7.280   3.481   2.957  0.0734 -0.2525 -0.2247
   58MOL   C44327917   7.364   3.348   3.173 -0.2352  0.1416 -0.2099
   58MOL   C44427918   7.462   3.448   3.196 -0.2152  0.1725 -0.1808
   58MOL   C44527919   7.540   3.450   3.314 -0.2192 -0.0079  0.2522
   58MOL   C44627920   7.494   3.375   3.426  0.4115  0.2475 -0.2072
   58MOL   C44727921   7.393   3.276   3.405  0.4297 -0.3085 -0.0803
   58MOL   C44827922   7.334   3.263   3.278  0.0697  0.5834 -0.4276
   58MOL   O44927923   7.565   3.392   3.539  0.4064 -0.2861  0.2968
   58MOL   H45027924   7.600   3.277   2.649  2.3701  1.6063  1.9392
   58MOL   H45127925   7.444   3.403   2.793  3.2858  0.4159  2.3007
   58MOL   H45227926   7.386   3.055   3.045  2.0624 -1.9766  0.6937
   58MOL   H45327927   7.520   2.926   2.902  1.9523  0.2092  0.3816
   58MOL   H45427928   7.478   3.512   3.111  0.2111  1.5000  0.8778
   58MOL   H45527929   7.620   3.522   3.320 -1.1654  1.0064  0.9169
   58MOL   H45627930   7.358   3.217   3.489  0.7632  0.4434  0.5873
   58MOL   H45727931   7.261   3.185   3.264  3.3183 -2.5693 -0.3452
   58MOL   C45827932   7.357   3.471   3.635 -0.2057  0.5130 -0.0622
   58MOL   C45927933   7.273   3.467   3.743 -0.6501  0.0890 -0.2382
   58MOL   C46027934   7.313   3.409   3.866  0.0475  0.4791 -0.2405
   58MOL   C46127935   7.444   3.356   3.881  0.4649  0.3575  0.4036
   58MOL   C46227936   7.523   3.353   3.766 -0.4332  0.0658 -0.1464
   58MOL   C46327937   7.484   3.410   3.646 -0.3946  0.2406 -1.2129
   58MOL   S46427938   7.203   3.419   4.011 -0.1084  0.1636 -0.0938
   58MOL   O46527939   7.237   3.543   4.077  0.0395 -0.4453  0.0294
   58MOL   O46627940   7.218   3.291   4.088 -0.3694 -0.0258 -0.4713
   58MOL   C46727941   7.034   3.428   3.951  0.5056 -0.4927  0.5833
   58MOL   C46827942   6.977   3.555   3.913  0.0865 -0.0839 -0.0824
   58MOL   C46927943   6.852   3.551   3.844 -0.7663  0.9119  0.0463
   58MOL   C47027944   6.786   3.428   3.823 -0.2327 -0.1797  0.2672
   58MOL   C47127945   6.843   3.307   3.871  0.3637  0.4254  0.5255
   58MOL   C47227946   6.969   3.303   3.936  0.0517  1.0511 -0.4103
   58MOL   O47327947   6.674   3.423   3.754  0.2877 -0.1814 -0.7679
   58MOL   H47427948   7.331   3.527   3.547  2.2849  0.2351 -1.0397
   58MOL   H47527949   7.174   3.510   3.733 -0.0937  1.6402  0.8065
   58MOL   H47627950   7.464   3.310   3.977  1.7214 -0.1543 -0.1049
   58MOL   H47727951   7.623   3.313   3.773  0.2278  1.1725 -2.5764
   58MOL   H47827952   7.041   3.641   3.924  0.0308 -0.4043  3.0171
   58MOL   H47927953   6.816   3.638   3.791  1.2844  1.3098 -0.7487
   58MOL   H48027954   6.780   3.221   3.854 -0.7177  1.6013 -1.6880
   58MOL   H48127955   7.007   3.211   3.978  2.3548  2.6783  1.2281
   58MOL   H48227956   6.649   3.336   3.728  0.2477 -0.5797  0.5374
   59MOL     C127957   5.934   6.522   2.350 -0.4130 -0.0789  0.2676
   59MOL     C227958   5.943   6.398   2.278 -0.5242 -0.4994  0.2788
   59MOL     C327959   5.968   6.281   2.352 -0.1865 -0.4941 -0.5265
   59MOL     C427960   5.989   6.282   2.493  0.2070  0.0459 -0.0721
   59MOL     C527961   5.997   6.404   2.557 -0.5398 -0.0606 -0.5248
   59MOL     C627962   5.969   6.525   2.489 -0.9941  0.9720  0.0352
   59MOL     S727963   5.973   6.123   2.268 -0.2320 -0.2341  0.0417
   59MOL     O827964   5.953   6.148   2.122 -0.5246  0.0555  0.0177
   59MOL     O927965   5.894   6.020   2.343  0.5723  0.0197  0.2366
   59MOL    C1027966   6.147   6.068   2.284  0.0718  0.0866 -0.0888
   59MOL    C1127967   6.177   5.929   2.301  0.2332  0.5044 -0.1220
   59MOL    C1227968   6.312   5.893   2.323 -0.1154  0.2370  0.2394
   59MOL    C1327969   6.404   5.992   2.326 -0.3135  0.0942  0.1612
   59MOL    C1427970   6.370   6.124   2.309  0.5586 -0.4973 -0.5103
   59MOL    C1527971   6.241   6.165   2.278  0.3910 -0.4242 -0.3088
   59MOL    O1627972   6.540   5.956   2.347 -0.0633  0.2313  0.3972
   59MOL    H1727973   5.921   6.620   2.308 -0.6510 -0.0955  0.3034
   59MOL    H1827974   5.911   6.395   2.175  0.7625  0.9795 -0.1931
   59MOL    H1927975   6.006   6.188   2.543 -1.0689 -0.7066 -1.0115
   59MOL    H2027976   6.030   6.406   2.660 -0.2381  1.1531 -0.6352
   59MOL    H2127977   6.096   5.859   2.286  0.2967  0.2024  0.9570
   59MOL    H2227978   6.336   5.788   2.327  1.0067  0.4511 -0.7168
   59MOL    H2327979   6.439   6.208   2.306  0.3653 -0.2769  0.8908
   59MOL    H2427980   6.217   6.270   2.276 -1.4954 -0.7559  2.7676
   59MOL    H2527981   5.971   6.622   2.537  0.1654  0.9916 -0.0488
   59MOL    C2627982   6.628   5.935   2.120  0.0857  0.2331 -0.5089
   59MOL    C2727983   6.717   5.979   2.015 -0.1498  0.0509 -0.8412
   59MOL    C2827984   6.820   6.065   2.055  0.1948 -0.1318  0.4272
   59MOL    C2927985   6.833   6.110   2.183 -0.1674  0.7326 -0.2060
   59MOL    C3027986   6.738   6.072   2.284 -0.2676 -0.9559  0.0351
   59MOL    C3127987   6.636   5.988   2.251 -0.1363  0.5828  0.1118
   59MOL    S3227988   6.946   6.098   1.935 -0.1707  0.3435  0.0563
   59MOL    O3327989   7.033   6.205   1.986  0.1786  0.3335  0.1445
   59MOL    O3427990   6.878   6.102   1.802 -1.4375  0.1831  0.1762
   59MOL    C3527991   7.054   5.958   1.926 -0.0889 -0.0638  0.1476
   59MOL    C3627992   7.163   5.959   1.836  0.0784  0.8633  0.3370
   59MOL    C3727993   7.249   5.851   1.834 -0.3555 -0.2247  0.6452
   59MOL    C3827994   7.239   5.743   1.921 -0.3803 -0.0102 -0.1950
   59MOL    C3927995   7.129   5.734   2.000 -0.1702 -0.3633 -0.3094
   59MOL    C4027996   7.041   5.846   2.014  0.3446  0.3646  0.4204
   59MOL    O4127997   7.331   5.641   1.936 -0.4706 -0.1565 -0.2931
   59MOL    H4227998   6.542   5.871   2.104  0.2767  0.2193 -1.5081
   59MOL    H4327999   6.712   5.939   1.915  0.7284  1.0183 -1.2847
   59MOL    H4428000   6.923   6.166   2.203  0.7172 -0.4403 -0.7875
   59MOL    H4528001   6.750   6.115   2.382  1.5645  0.1737 -0.6405
   59MOL    H4628002   7.180   6.049   1.779 -2.2572 -0.1751 -2.1169
   59MOL    H4728003   7.331   5.856   1.763 -1.8234 -0.8201 -1.1375
   59MOL    H4828004   7.114   5.657   2.075 -1.1953 -1.3132 -1.4584
   59MOL    H4928005   6.965   5.845   2.091 -1.3147  1.6579 -1.1582
   59MOL    C5028006   7.494   5.654   2.116 -0.6346  0.0163 -0.3839
   59MOL    C5128007   7.620   5.686   2.158 -0.1294 -0.0751 -0.0618
   59MOL    C5228008   7.717   5.738   2.066  0.1445 -0.0029  0.1261
   59MOL    C5328009   7.681   5.762   1.939  1.0998 -0.4985 -0.7763
   59MOL    C5428010   7.554   5.727   1.890  0.0143 -0.2508  0.1813
   59MOL    C5528011   7.460   5.671   1.983 -0.0257 -0.2476 -0.1373
   59MOL    S5628012   7.880   5.784   2.119  0.4009  0.0845 -0.0034
   59MOL    O5728013   7.875   5.933   2.145  0.2311 -0.2107 -0.8481
   59MOL    O5828014   7.965   5.728   2.018 -0.3466  0.3090 -0.0676
   59MOL    C5928015   7.912   5.703   2.274  0.4408  0.3660 -0.6006
   59MOL    C6028016   7.899   5.559   2.280  0.3216 -0.3941  0.2509
   59MOL    C6128017   7.943   5.490   2.393  0.6754 -0.0157  0.2057
   59MOL    C6228018   8.007   5.559   2.493  0.4683 -0.2981 -0.7857
   59MOL    C6328019   8.033   5.693   2.484  0.2150 -0.5388 -0.2519
   59MOL    C6428020   7.973   5.768   2.379  0.4785 -0.3403 -0.0642
   59MOL    O6528021   8.069   5.491   2.600  0.4757 -0.0366  0.7042
   59MOL    H6628022   7.422   5.610   2.183  0.6094 -2.4503 -0.6202
   59MOL    H6728023   7.642   5.677   2.264  0.1172  0.5379 -0.0586
   59MOL    H6828024   7.749   5.797   1.863  0.6937  0.2377 -0.8006
   59MOL    H6928025   7.534   5.753   1.787  0.8092 -0.5400 -0.0489
   59MOL    H7028026   7.859   5.496   2.201 -1.6571  1.9067 -0.6463
   59MOL    H7128027   7.928   5.385   2.413  0.5211 -0.1943 -0.8231
   59MOL    H7228028   8.087   5.749   2.559 -1.8858  1.2928 -0.0344
   59MOL    H7328029   7.985   5.875   2.374 -1.0100 -0.2361 -1.9252
   59MOL    C7428030   8.069   5.317   2.760 -0.0962 -0.4511  0.5809
   59MOL    C7528031   8.008   5.240   2.859  0.8754  0.7243 -0.3708
   59MOL    C7628032   7.868   5.255   2.875 -0.4268  0.3127  0.0155
   59MOL    C7728033   7.794   5.354   2.804 -0.3574 -0.0937  0.4451
   59MOL    C7828034   7.856   5.430   2.705 -0.5199  0.3635 -0.1853
   59MOL    C7928035   7.995   5.411   2.684  0.4185 -0.0472  0.0466
   59MOL    S8028036   7.780   5.157   2.992  0.2832  0.0787  0.4226
   59MOL    O8128037   7.851   5.028   3.020 -0.1769  0.0656  0.2571
   59MOL    O8228038   7.635   5.156   2.951  0.2045  0.5879 -0.7856
   59MOL    C8328039   7.776   5.270   3.133  0.6205 -0.4719  0.2680
   59MOL    C8428040   7.863   5.256   3.241 -0.1395 -0.3461  0.4048
   59MOL    C8528041   7.865   5.351   3.342  0.1845  0.1422  0.3143
   59MOL    C8628042   7.787   5.467   3.331  0.1806 -0.1573  0.2466
   59MOL    C8728043   7.692   5.479   3.224  0.3037  0.7610 -0.6608
   59MOL    C8828044   7.691   5.382   3.125  0.1387  0.4200 -0.2471
   59MOL    O8928045   7.791   5.572   3.419 -0.4198  0.4278 -0.5950
   59MOL    H9028046   8.177   5.318   2.752 -0.0553  1.6715  0.9756
   59MOL    H9128047   8.059   5.169   2.923 -0.9137 -0.8663 -0.6868
   59MOL    H9228048   7.687   5.351   2.819 -0.6464 -1.0404 -1.6729
   59MOL    H9328049   7.800   5.500   2.646  0.3168 -0.5902 -2.1398
   59MOL    H9428050   7.922   5.165   3.247 -1.9947 -1.5190  1.7106
   59MOL    H9528051   7.942   5.342   3.418  1.4160 -0.0771 -0.9305
   59MOL    H9628052   7.616   5.556   3.232 -0.9955 -0.7128  1.7117
   59MOL    H9728053   7.628   5.414   3.043  0.1824  3.0886  0.6924
   59MOL    C9828054   7.563   5.619   3.511  0.2672 -0.6252 -0.5558
   59MOL    C9928055   7.465   5.610   3.609  1.0765  0.1948  0.0107
   59MOL   C10028056   7.492   5.544   3.726 -0.0413 -0.2719  0.4187
   59MOL   C10128057   7.616   5.477   3.745  1.2180 -0.5564 -0.1623
   59MOL   C10228058   7.718   5.484   3.646  0.2666  0.5297  1.0210
   59MOL   C10328059   7.694   5.562   3.524 -0.4765  0.1605  0.3142
   59MOL   S10428060   7.357   5.529   3.846  0.0528 -0.0498  0.3213
   59MOL   O10528061   7.293   5.398   3.840 -0.2002 -0.1984  0.1726
   59MOL   O10628062   7.276   5.647   3.833 -0.1045  0.1347 -0.3772
   59MOL   C10728063   7.439   5.537   4.005  0.2721 -0.0810  0.0412
   59MOL   C10828064   7.499   5.421   4.062 -0.1368 -0.5253 -0.0018
   59MOL   C10928065   7.558   5.423   4.188 -0.1888  0.4329 -0.2775
   59MOL   C11028066   7.547   5.543   4.264  0.0507 -0.3684  0.1516
   59MOL   C11128067   7.487   5.657   4.212  0.0855 -0.1118 -0.2042
   59MOL   C11228068   7.436   5.655   4.077  0.5400 -0.1285 -0.5848
   59MOL   O11328069   7.598   5.552   4.388  0.1980 -0.2183  0.3747
   59MOL   H11428070   7.542   5.676   3.422  0.1721  1.2328  0.6206
   59MOL   H11528071   7.378   5.671   3.591  1.4168  0.9811  1.0060
   59MOL   H11628072   7.610   5.417   3.835 -1.7986  2.2228  1.6121
   59MOL   H11728073   7.804   5.419   3.655 -1.6059 -1.9761  1.1464
   59MOL   H11828074   7.495   5.331   4.002  0.4604 -0.7058  0.2267
   59MOL   H11928075   7.605   5.330   4.216 -0.5575  0.6819  1.1617
   59MOL   H12028076   7.493   5.751   4.264  1.8921  0.8021 -1.9760
   59MOL   H12128077   7.396   5.744   4.030 -0.7287 -1.2012 -1.5884
   59MOL   C12228078   7.489   5.364   4.499 -0.6641 -0.4538 -0.6288
   59MOL   C12328079   7.405   5.311   4.599  0.1806 -0.4474  0.4922
   59MOL   C12428080   7.358   5.393   4.703 -0.4350 -0.2209 -0.1205
   59MOL   C12528081   7.397   5.529   4.707  0.3531 -0.3080 -0.5143
   59MOL   C12628082   7.472   5.576   4.596  0.1333 -0.4717  0.0751
   59MOL   C12728083   7.520   5.498   4.489 -0.4348 -0.1763  0.3334
   59MOL   S12828084   7.247   5.317   4.826 -0.0062 -0.2979  0.2048
   59MOL   O12928085   7.132   5.412   4.828 -0.1545  0.6458  0.0803
   59MOL   O13028086   7.333   5.305   4.942 -0.2289 -0.0061 -0.0338
   59MOL   C13128087   7.187   5.151   4.777  0.3831  0.3531 -0.0476
   59MOL   C13228088   7.060   5.129   4.729 -0.1069  0.0665 -0.1323
   59MOL   C13328089   7.019   4.997   4.696 -0.3778 -0.0165 -0.0674
   59MOL   C13428090   7.113   4.889   4.716 -0.5784 -0.4391  0.1518
   59MOL   C13528091   7.238   4.917   4.766 -0.2674  0.2111 -1.4942
   59MOL   C13628092   7.280   5.047   4.801  0.6992  0.5100 -0.2792
   59MOL   O13728093   7.084   4.757   4.696 -0.3592 -0.5162  0.1286
   59MOL   H13828094   7.529   5.305   4.418  2.6491 -1.3219  1.5318
   59MOL   H13928095   7.387   5.205   4.602 -0.3428 -0.4684 -2.2640
   59MOL   H14028096   7.358   5.595   4.782 -0.3263  0.0633 -1.1897
   59MOL   H14128097   7.504   5.679   4.599  0.2515 -0.3832 -2.5507
   59MOL   H14228098   6.988   5.207   4.709  2.3144  2.0580 -1.3890
   59MOL   H14328099   6.917   4.964   4.683 -0.3999 -1.5853  3.5770
   59MOL   H14428100   7.316   4.842   4.765 -1.6915 -1.3380  0.1835
   59MOL   H14528101   7.371   5.086   4.843  0.3336  1.9899 -0.8086
   59MOL   C14628102   7.046   4.750   4.455 -0.4423  0.8024 -0.3002
   59MOL   C14728103   6.985   4.689   4.345  0.6197 -0.0569 -0.2260
   59MOL   C14828104   6.881   4.596   4.373  0.9422  0.1118  0.5808
   59MOL   C14928105   6.837   4.568   4.503  0.1074 -0.0084  0.2988
   59MOL   C15028106   6.906   4.627   4.613 -0.9632  0.1674 -0.1993
   59MOL   C15128107   7.008   4.719   4.588 -0.6065  0.4432  0.8162
   59MOL   S15228108   6.796   4.526   4.239 -0.2922 -0.0080  0.1174
   59MOL   O15328109   6.729   4.639   4.175 -0.0491 -0.5158  0.0241
   59MOL   O15428110   6.721   4.409   4.292  0.1804 -0.0952 -0.4156
   59MOL   C15528111   6.933   4.477   4.140 -0.2306  0.2288  0.3800
   59MOL   C15628112   6.977   4.574   4.049 -0.3295  0.4181  0.2649
   59MOL   C15728113   7.086   4.539   3.965  0.6531 -0.8957 -0.0610
   59MOL   C15828114   7.130   4.402   3.960  0.2737  0.3407  0.5827
   59MOL   C15928115   7.084   4.307   4.058  0.3325  0.3910  0.5570
   59MOL   C16028116   6.978   4.344   4.140 -0.9893 -0.2106 -0.0435
   59MOL   O16128117   7.226   4.374   3.870  0.0018 -0.0602 -0.0095
   59MOL   H16228118   7.121   4.824   4.433 -1.6136  1.2282 -2.9851
   59MOL   H16328119   7.011   4.730   4.249  0.6364 -1.4703 -0.8190
   59MOL   H16428120   6.756   4.497   4.512  1.7735 -2.1271 -0.8472
   59MOL   H16528121   6.873   4.593   4.710 -2.9236 -0.0551 -0.9271
   59MOL   H16628122   6.954   4.679   4.048 -0.1441  0.5629  4.2522
   59MOL   H16728123   7.127   4.611   3.896 -1.9486 -1.0266 -1.8076
   59MOL   H16828124   7.113   4.203   4.049 -3.7116 -0.8344  0.8783
   59MOL   H16928125   6.938   4.265   4.203  1.8125 -0.7325  1.1609
   59MOL   C17028126   7.413   4.521   3.802  0.0195 -0.5329 -0.1773
   59MOL   C17128127   7.544   4.561   3.824 -0.2207 -0.1491 -0.0059
   59MOL   C17228128   7.618   4.502   3.931 -0.5159  0.2881  1.2366
   59MOL   C17328129   7.565   4.393   4.010  0.0935 -0.1195 -0.6784
   59MOL   C17428130   7.430   4.362   3.990  0.2069  0.5124  0.2625
   59MOL   C17528131   7.355   4.425   3.885  0.5641 -0.2646  0.7419
   59MOL   S17628132   7.795   4.523   3.943 -0.2795  0.3679 -0.0527
   59MOL   O17728133   7.833   4.646   3.874  0.0274  0.4534 -0.5072
   59MOL   O17828134   7.856   4.392   3.917 -0.7388 -0.2603 -0.0921
   59MOL   C17928135   7.813   4.555   4.121 -0.6016  0.3801  0.1396
   59MOL   C18028136   7.799   4.686   4.171 -0.1621 -0.5422 -0.4596
   59MOL   C18128137   7.839   4.721   4.304  0.4931 -0.4690 -0.1656
   59MOL   C18228138   7.872   4.619   4.394  0.1558  0.3019 -0.0763
   59MOL   C18328139   7.875   4.487   4.349 -0.3546 -1.1577  0.4158
   59MOL   C18428140   7.846   4.454   4.217 -0.1046 -0.3162  0.4767
   59MOL   O18528141   7.901   4.654   4.523 -0.6052  0.0756 -0.3905
   59MOL   H18628142   7.357   4.559   3.718 -4.4456 -1.6056  2.1429
   59MOL   H18728143   7.593   4.633   3.760 -0.9955  1.0230  0.7071
   59MOL   H18828144   7.625   4.335   4.079  0.6956  0.4320 -0.7380
   59MOL   H18928145   7.378   4.282   4.042  0.7364  0.9316  1.4622
   59MOL   H19028146   7.762   4.756   4.097  1.5651  2.2875  1.2496
   59MOL   H19128147   7.831   4.828   4.320  2.1179 -0.4851  0.8665
   59MOL   H19228148   7.895   4.408   4.420 -0.2566  0.5020  2.2489
   59MOL   H19328149   7.856   4.353   4.182 -1.3032 -0.4730  0.5742
   59MOL   C19428150   8.106   4.543   4.577  0.0522  0.2831 -0.1246
   59MOL   C19528151   8.243   4.547   4.606 -0.7741  0.5422  0.6834
   59MOL   C19628152   8.305   4.673   4.623 -0.2174 -0.2984  0.4015
   59MOL   C19728153   8.234   4.792   4.603  0.0879  0.0801 -0.2392
   59MOL   C19828154   8.100   4.786   4.564  0.1360  0.5020  0.6284
   59MOL   C19928155   8.036   4.659   4.555 -0.2031 -0.6679 -0.5083
   59MOL   S20028156   0.045   4.699   4.679  0.2986  0.1374  0.3678
   59MOL   O20128157   0.103   4.819   4.617  0.5558  0.0341 -0.0519
   59MOL   O20228158   0.109   4.569   4.662  0.2286 -0.1331 -0.4031
   59MOL   C20328159   0.030   4.730   4.859  1.3752  0.0356  0.5140
   59MOL   C20428160   8.401   4.637   4.949  0.5741 -0.7493  1.0288
   59MOL   C20528161   8.406   4.663   5.089  0.2514  0.3194 -0.3670
   59MOL   C20628162   0.032   4.787   5.134  0.7084 -0.3934  0.4676
   59MOL   C20728163   0.068   4.883   5.039 -0.1599 -0.5070 -0.1065
   59MOL   C20828164   0.074   4.853   4.901  0.4831  0.1167 -0.3338
   59MOL   O20928165   0.044   4.816   5.267  0.1550 -1.0342 -0.2460
   59MOL   H21028166   8.059   4.446   4.566  0.5967 -0.2339  1.7884
   59MOL   H21128167   8.297   4.454   4.619  1.7807  1.5512 -2.1970
   59MOL   H21228168   8.292   4.881   4.586  0.0024  0.1147 -0.3513
   59MOL   H21328169   8.064   4.885   4.540 -1.3952 -0.8000 -2.7497
   59MOL   H21428170   8.364   4.544   4.909 -0.4677  0.7961 -1.7267
   59MOL   H21528171   8.370   4.598   5.167  1.1135  2.7913  2.1856
   59MOL   H21628172   0.106   4.977   5.078  1.0626  0.1385 -2.7298
   59MOL   H21728173   0.114   4.921   4.826  2.5930 -0.1279  0.5236
   59MOL   C21828174   0.280   4.835   5.310  0.6746 -0.2090  0.4585
   59MOL   C21928175   0.399   4.776   5.361  0.2877  0.1129 -0.6595
   59MOL   C22028176   0.389   4.671   5.457 -0.1004 -0.4369 -0.0330
   59MOL   C22128177   0.259   4.624   5.499  0.7899 -0.6260 -0.0763
   59MOL   C22228178   0.147   4.672   5.430 -0.3004  0.1313  0.6341
   59MOL   C22328179   0.152   4.778   5.340  0.4053 -0.4979  0.0311
   59MOL   S22428180   0.543   4.600   5.512 -0.1011 -0.0332 -0.2669
   59MOL   O22528181   0.638   4.717   5.522  0.4254  0.2552  0.1511
   59MOL   O22628182   0.585   4.486   5.428 -1.1127  0.6754  0.1106
   59MOL   C22728183   0.516   4.535   5.678 -0.3917  0.4836 -0.0592
   59MOL   C22828184   0.463   4.405   5.693  0.0047 -0.3004 -0.0617
   59MOL   C22928185   0.427   4.354   5.820  0.1704  0.3559  0.2389
   59MOL   C23028186   0.442   4.435   5.933 -0.0483  0.1684 -0.4581
   59MOL   C23128187   0.494   4.567   5.916 -0.0007 -0.2748 -0.8361
   59MOL   C23228188   0.531   4.622   5.791  0.5388 -0.9742  0.3451
   59MOL   O23328189   0.396   4.384   6.057 -0.1804  0.3921  0.3399
   59MOL   H23428190   0.287   4.916   5.239  1.5292 -0.5094  0.1911
   59MOL   H23528191   0.495   4.812   5.328  0.1408  1.8104  0.7280
   59MOL   H23628192   0.250   4.548   5.576  1.1603  0.5768  1.1818
   59MOL   H23728193   0.050   4.631   5.455 -0.2944  0.3817  1.0739
   59MOL   H23828194   0.446   4.343   5.606 -0.4205  0.1014 -0.2685
   59MOL   H23928195   0.400   4.251   5.837  0.4370  0.3027  0.3492
   59MOL   H24028196   0.499   4.638   5.998  1.2015 -1.4168  0.0998
   59MOL   H24128197   0.555   4.728   5.787  1.5303 -1.2284 -0.7088
   59MOL   C24228198   0.215   4.234   6.103  0.3321 -0.5168 -0.0425
   59MOL   C24328199   0.087   4.224   6.157 -0.2197  0.4916 -0.0743
   59MOL   C24428200   8.425   4.332   6.142  0.7927  0.3011  0.1731
   59MOL   C24528201   0.043   4.447   6.078  0.2554 -0.2420  0.9407
   59MOL   C24628202   0.179   4.463   6.048  0.7876  0.5370  0.0879
   59MOL   C24728203   0.266   4.358   6.069  0.4079 -0.2308 -0.3077
   59MOL   S24828204   8.259   4.328   6.213 -0.0295 -0.0763  0.1439
   59MOL   O24928205   8.251   4.198   6.284 -0.0014  0.0401  0.4258
   59MOL   O25028206   8.159   4.377   6.117 -0.2190 -0.6131 -0.2171
   59MOL   C25128207   8.268   4.453   6.344  0.1027 -0.1122  0.5181
   59MOL   C25228208   8.248   4.589   6.308 -0.0457 -0.0370  0.5256
   59MOL   C25328209   8.263   4.694   6.407  0.4217 -0.4922  0.8836
   59MOL   C25428210   8.306   4.658   6.534  0.2099  0.1522  0.5287
   59MOL   C25528211   8.319   4.523   6.573  0.2763 -0.3778 -0.0446
   59MOL   C25628212   8.300   4.417   6.480 -0.1736 -0.3079 -0.0033
   59MOL   O25728213   8.338   4.759   6.618  0.1821 -0.3321  0.4980
   59MOL   H25828214   0.279   4.147   6.092  1.4426  0.1978  0.6795
   59MOL   H25928215   0.054   4.131   6.201 -0.6844  1.2038  1.1018
   59MOL   H26028216   8.386   4.517   6.067 -0.2825 -1.2359 -1.8332
   59MOL   H26128217   0.215   4.556   6.005  3.6881  0.1380  1.5051
   59MOL   H26228218   8.226   4.606   6.204  0.5987  0.4553  0.4683
   59MOL   H26328219   8.260   4.800   6.385 -1.0475 -0.7976 -0.4524
   59MOL   H26428220   8.357   4.506   6.673 -1.7801  2.2294  1.2448
   59MOL   H26528221   8.317   4.318   6.520  0.2045  1.1771  3.7672
   59MOL   C26628222   8.130   4.885   6.662 -0.3402 -0.1525 -0.2562
   59MOL   C26728223   8.062   5.010   6.672 -0.4556  0.4391  0.4010
   59MOL   C26828224   8.136   5.123   6.646 -0.2634 -0.4775  0.1189
   59MOL   C26928225   8.271   5.119   6.604  0.1849  0.1469 -0.1745
   59MOL   C27028226   8.335   4.994   6.592 -0.5137 -0.3111 -0.1662
   59MOL   C27128227   8.269   4.877   6.623  0.4261  0.3406  0.4944
   59MOL   S27228228   8.056   5.275   6.660  0.2215  0.1548  0.1174
   59MOL   O27328229   7.918   5.255   6.610  0.1729 -0.1083 -0.4629
   59MOL   O27428230   8.142   5.374   6.594 -0.1776  0.1031  0.0729
   59MOL   C27528231   8.057   5.311   6.840  0.4030  0.4693  0.5981
   59MOL   C27628232   7.946   5.277   6.923 -0.7184 -0.2285  0.1908
   59MOL   C27728233   7.960   5.317   7.060  0.3061 -0.5171  0.6234
   59MOL   C27828234   8.072   5.389   7.109  0.7263  0.9454  0.4609
   59MOL   C27928235   8.174   5.426   7.023 -0.4200  0.0077  0.2605
   59MOL   C28028236   8.168   5.383   6.886  0.5484 -0.2043 -0.2375
   59MOL   O28128237   8.084   5.417   7.240 -0.1983  0.3205 -0.9038
   59MOL   H28228238   8.078   4.792   6.679  2.6866 -1.7910  0.4140
   59MOL   H28328239   7.961   5.008   6.710 -0.1673 -0.6422  1.1310
   59MOL   H28428240   8.327   5.207   6.577  3.4475 -1.8374 -0.1940
   59MOL   H28528241   0.013   4.981   6.564 -0.5613  1.2489 -1.1282
   59MOL   H28628242   7.852   5.243   6.883 -0.1688 -2.0071  0.3737
   59MOL   H28728243   7.884   5.278   7.125 -0.4799 -0.7822 -0.4411
   59MOL   H28828244   8.256   5.481   7.066 -0.4665  0.0735  0.2650
   59MOL   H28928245   8.248   5.408   6.818  1.0866  0.9211  0.7973
   59MOL   C29028246   7.899   5.558   7.266  0.1072 -0.1106  0.1287
   59MOL   C29128247   7.801   5.612   7.349  0.4052  0.1615  0.0025
   59MOL   C29228248   7.776   5.563   7.481 -0.1200  0.5333  0.3692
   59MOL   C29328249   7.857   5.459   7.527  1.0110  0.0042  0.3809
   59MOL   C29428250   7.960   5.411   7.448 -0.0066 -0.3090  0.5607
   59MOL   C29528251   7.980   5.456   7.312 -0.1089  0.0871  0.4108
   59MOL   S29628252   7.663   5.649   7.592 -0.2520  0.2049 -0.0909
   59MOL   O29728253   7.530   5.591   7.591  0.0207 -0.4058 -0.1153
   59MOL   O29828254   7.683   5.788   7.558 -0.1026  0.0566  0.7761
   59MOL   C29928255   7.737   5.618   7.755 -0.1430 -0.7114  0.1831
   59MOL   C30028256   7.690   5.512   7.838 -0.1835  1.0378 -1.0147
   59MOL   C30128257   7.767   5.489   7.958  0.2217  1.0684 -0.2456
   59MOL   C30228258   7.891   5.543   7.979 -0.5414  0.3838  0.6095
   59MOL   C30328259   7.947   5.635   7.889 -0.1892  0.4098  0.9467
   59MOL   C30428260   7.868   5.676   7.782  0.3963 -0.2982  0.2441
   59MOL   O30528261   7.965   5.494   8.089  0.1178  0.2521  0.8646
   59MOL   H30628262   7.916   5.594   7.165  0.2295 -0.8377 -0.1095
   59MOL   H30728263   7.735   5.683   7.302  0.5637  0.7084  0.5827
   59MOL   H30828264   7.841   5.428   7.630 -0.3800  1.2968  0.5734
   59MOL   H30928265   8.025   5.333   7.486  2.6462 -0.6242 -4.2199
   59MOL   H31028266   7.602   5.461   7.802 -1.6368  1.8276  1.2803
   59MOL   H31128267   7.737   5.424   8.039  0.2565  1.9423  0.4696
   59MOL   H31228268   8.044   5.670   7.922  0.2012  0.3925 -0.1519
   59MOL   H31328269   7.910   5.748   7.713  2.6641  0.4705  2.3661
   59MOL   C31428270   8.201   5.451   8.090 -0.7614  0.0724  0.8931
   59MOL   C31528271   8.310   5.365   8.057  0.0231 -1.0764  0.2982
   59MOL   C31628272   8.288   5.239   8.001  0.3086  0.1821  0.1391
   59MOL   C31728273   8.156   5.198   7.983  0.0198  0.2038 -0.4059
   59MOL   C31828274   8.051   5.285   8.011 -0.5688 -0.4058  0.0402
   59MOL   C31928275   8.069   5.410   8.068  0.2127 -0.2224 -0.1859
   59MOL   S32028276   0.003   5.141   7.953 -0.0113  0.2599  0.1577
   59MOL   O32128277   0.074   5.094   8.071  0.5304 -0.3226  0.2153
   59MOL   O32228278   0.078   5.227   7.857  0.0812  0.0367  0.1213
   59MOL   C32328279   8.367   5.002   7.855 -0.2497 -0.5980 -0.4438
   59MOL   C32428280   8.341   4.876   7.925 -0.0796  0.1182  0.0185
   59MOL   C32528281   8.303   4.766   7.842  0.1700 -0.1194 -0.5633
   59MOL   C32628282   8.289   4.784   7.699 -0.3016  0.0570  0.5534
   59MOL   C32728283   8.310   4.904   7.638  0.3505 -0.2197 -0.1975
   59MOL   C32828284   8.356   5.012   7.718 -0.3647 -0.4244  0.2042
   59MOL   O32928285   8.250   4.680   7.623  0.0572 -0.1799 -0.0762
   59MOL   H33028286   8.211   5.550   8.132  1.1912  0.1083  0.3916
   59MOL   H33128287   8.410   5.404   8.068 -0.5610  0.2560  1.0696
   59MOL   H33228288   8.132   5.099   7.948  3.0063 -0.5780 -0.3252
   59MOL   H33328289   7.953   5.239   8.004 -0.0516 -1.4853 -0.1838
   59MOL   H33428290   8.346   4.864   8.032 -3.8786 -0.5502  0.1889
   59MOL   H33528291   8.285   4.668   7.883  2.2283  0.5589  2.1179
   59MOL   H33628292   8.296   4.913   7.531  1.5704  0.5794 -0.3022
   59MOL   H33728293   8.366   5.108   7.668 -0.0175 -0.9821 -0.8131
   59MOL   C33828294   8.425   4.616   7.467  0.8193 -0.6643 -0.6217
   59MOL   C33928295   0.117   4.542   7.441  0.0550  0.1865  0.5833
   59MOL   C34028296   0.153   4.436   7.524 -0.4407 -0.5667 -0.1445
   59MOL   C34128297   0.069   4.398   7.632 -0.7512  0.1716  0.1171
   59MOL   C34228298   8.386   4.484   7.667  0.4445  0.1602  0.2124
   59MOL   C34328299   8.349   4.593   7.583 -0.3573 -0.3866 -0.4411
   59MOL   S34428300   0.288   4.334   7.474 -0.1582  0.3577 -0.4962
   59MOL   O34528301   0.302   4.234   7.576  0.3441  0.4693  0.5253
   59MOL   O34628302   0.403   4.418   7.445 -0.2016  0.1679 -0.7827
   59MOL   C34728303   0.241   4.252   7.329  0.7827 -0.0910 -0.5565
   59MOL   C34828304   0.105   4.244   7.286  0.3611  1.0200 -0.2852
   59MOL   C34928305   0.070   4.162   7.179  0.2757 -0.7517 -0.0798
   59MOL   C35028306   0.169   4.100   7.102 -0.3009 -0.8546  0.1423
   59MOL   C35128307   0.303   4.105   7.142 -0.0804 -0.4828 -0.0641
   59MOL   C35228308   0.342   4.182   7.263  0.0810  0.8119  0.1916
   59MOL   O35328309   0.133   4.035   6.988 -0.2527 -0.8480 -0.2191
   59MOL   H35428310   8.399   4.690   7.393 -1.4278 -1.6962 -0.9096
   59MOL   H35528311   0.165   4.567   7.348 -2.4477 -1.8038 -1.3389
   59MOL   H35628312   0.087   4.315   7.698  0.7259  1.1167  0.9324
   59MOL   H35728313   8.328   4.471   7.757  0.0828  1.0768  0.1176
   59MOL   H35828314   0.024   4.292   7.339  0.0974  1.0430 -0.7052
   59MOL   H35928315   8.392   4.152   7.148  0.5955 -2.8533 -0.5263
   59MOL   H36028316   0.376   4.061   7.077  0.0401 -0.4148  0.0256
   59MOL   H36128317   0.442   4.173   7.303  0.1441 -1.5131 -0.4096
   59MOL   C36228318   0.241   3.959   6.791 -0.0997  0.2589 -0.5518
   59MOL   C36328319   0.309   3.981   6.667 -0.3569  0.0253 -1.0789
   59MOL   C36428320   0.331   4.117   6.628 -0.3929  0.0816 -0.4170
   59MOL   C36528321   0.269   4.223   6.696 -0.1160 -0.5657  0.1845
   59MOL   C36628322   0.212   4.195   6.815 -0.2954 -0.0397  0.3233
   59MOL   C36728323   0.196   4.065   6.869  0.3314 -1.2474 -0.5787
   59MOL   S36828324   0.427   4.152   6.480  0.6316  0.5769 -0.3445
   59MOL   O36928325   0.370   4.271   6.424 -0.3919  0.3717  0.2882
   59MOL   O37028326   0.427   4.034   6.394 -0.2364 -0.5348 -0.4000
   59MOL   C37128327   0.589   4.200   6.539 -0.6264  0.3952 -0.1315
   59MOL   C37228328   0.667   4.289   6.459  0.0621 -1.3881 -0.3376
   59MOL   C37328329   0.789   4.335   6.500 -0.3019 -0.0289  0.3505
   59MOL   C37428330   0.853   4.284   6.616  0.7498  0.3907  0.3219
   59MOL   C37528331   0.774   4.193   6.691 -0.0045 -0.2514 -1.1603
   59MOL   C37628332   0.646   4.147   6.655  0.1260  0.1072  0.3696
   59MOL   O37728333   0.987   4.321   6.644 -0.3490 -1.1432  0.0466
   59MOL   H37828334   0.225   3.858   6.826  0.2183  0.8290  1.2490
   59MOL   H37928335   0.338   3.897   6.606  0.2621 -0.8347  0.3755
   59MOL   H38028336   0.267   4.325   6.660  1.1130 -0.5083  0.2605
   59MOL   H38128337   0.159   4.271   6.870 -0.1144 -0.1244  0.6201
   59MOL   H38228338   0.623   4.321   6.365  0.7188  0.7665  0.0728
   59MOL   H38328339   0.847   4.404   6.440  0.4439 -0.6104  0.3883
   59MOL   H38428340   0.817   4.152   6.782 -1.9170 -0.1257 -0.1756
   59MOL   H38528341   0.590   4.077   6.715 -0.2548 -0.3901 -0.5516
   59MOL   C38628342   1.162   4.167   6.674  0.2591 -0.5064 -0.0990
   59MOL   C38728343   1.242   4.097   6.760 -0.2384 -0.4992 -0.2842
   59MOL   C38828344   1.224   4.098   6.897  0.2646  0.3513  1.0058
   59MOL   C38928345   1.126   4.183   6.956  0.4262 -0.5424  0.7376
   59MOL   C39028346   1.051   4.266   6.876 -0.7274  0.8109 -0.0406
   59MOL   C39128347   1.064   4.252   6.732 -0.1631 -0.1314 -0.5285
   59MOL   S39228348   1.328   3.993   6.993  0.0057  0.0154 -0.1811
   59MOL   O39328349   1.357   4.059   7.121  0.6828 -0.1139  0.1935
   59MOL   O39428350   1.442   3.952   6.912  0.3538  0.4791 -0.1156
   59MOL   C39528351   1.219   3.846   7.027 -0.3484  0.6149  0.1583
   59MOL   C39628352   1.146   3.792   6.918 -0.1123  1.7610  0.3418
   59MOL   C39728353   1.078   3.665   6.940  0.0779  0.2502 -0.4904
   59MOL   C39828354   1.065   3.615   7.070  0.2369  0.1994  0.6807
   59MOL   C39928355   1.133   3.677   7.177 -0.4553  0.0607  0.2698
   59MOL   C40028356   1.216   3.786   7.157  0.5325 -0.4560  0.1550
   59MOL   O40128357   0.991   3.499   7.078 -0.2684  0.3370 -0.1851
   59MOL   H40228358   1.181   4.163   6.568 -1.3340  1.3849 -0.4820
   59MOL   H40328359   1.318   4.032   6.718  1.3946  2.4840 -2.0914
   59MOL   H40428360   1.108   4.177   7.062 -0.4787 -0.0871  0.6113
   59MOL   H40528361   0.982   4.340   6.915 -0.6572  0.3443  0.9766
   59MOL   H40628362   1.151   3.851   6.828 -2.2178  0.0707 -0.9211
   59MOL   H40728363   1.032   3.610   6.859 -0.2368  1.9049 -1.4684
   59MOL   H40828364   1.123   3.625   7.272 -1.5081  0.0390  0.1487
   59MOL   H40928365   1.277   3.819   7.240  0.8302  0.5363 -0.4388
   59MOL   C41028366   0.886   3.462   7.291  0.0241 -0.3143  0.3708
   59MOL   C41128367   0.774   3.457   7.373 -0.1305 -0.6128 -0.1504
   59MOL   C41228368   0.647   3.465   7.316  0.4282 -0.3167  0.9865
   59MOL   C41328369   0.633   3.481   7.175  0.4278 -0.0925 -0.0049
   59MOL   C41428370   0.743   3.505   7.093 -0.0073  0.6082 -0.1274
   59MOL   C41528371   0.876   3.495   7.152 -0.7006  0.0998  0.3666
   59MOL   S41628372   0.503   3.440   7.425  0.1072 -0.0061  0.2069
   59MOL   O41728373   0.552   3.423   7.567 -1.2699  0.3058 -0.8821
   59MOL   O41828374   0.410   3.341   7.367  0.2961 -0.4745 -0.1196
   59MOL   C41928375   0.418   3.602   7.420 -0.0461  0.5311 -0.5270
   59MOL   C42028376   0.382   3.659   7.295  0.3999 -0.2268 -0.1393
   59MOL   C42128377   0.300   3.772   7.295  0.4800 -0.2355 -0.1469
   59MOL   C42228378   0.262   3.838   7.412 -1.0179  0.5348  0.7563
   59MOL   C42328379   0.310   3.788   7.539 -0.7402 -0.3044  0.3748
   59MOL   C42428380   0.392   3.675   7.542 -0.1050  0.8983 -0.0054
   59MOL   O42528381   0.196   3.958   7.400  0.2014 -0.0774  0.4104
   59MOL   H42628382   0.984   3.442   7.333  0.5460 -0.0584 -0.7036
   59MOL   H42728383   0.795   3.443   7.477  5.6413 -0.4416 -1.1335
   59MOL   H42828384   0.533   3.468   7.137  1.0007  1.2494 -2.0036
   59MOL   H42928385   0.728   3.510   6.986  1.4468 -0.1753 -0.3769
   59MOL   H43028386   0.391   3.609   7.200 -0.8505  0.0197 -0.3878
   59MOL   H43128387   0.258   3.805   7.202 -2.7011  1.6127  1.8212
   59MOL   H43228388   0.282   3.826   7.636 -0.5825 -2.6087  1.3509
   59MOL   H43328389   0.417   3.628   7.636 -1.2419  0.8939  0.3089
   59MOL   C43428390   8.382   3.932   7.418  0.0299  0.1374  0.7032
   59MOL   C43528391   8.265   3.939   7.491  0.9369 -0.6509 -0.1815
   59MOL   C43628392   8.270   3.984   7.622 -0.3848 -0.2275  0.2623
   59MOL   C43728393   8.385   4.034   7.680 -1.3390  0.0737  0.2229
   59MOL   C43828394   0.081   4.022   7.607 -0.2449 -0.3952  0.6818
   59MOL   C43928395   0.080   3.968   7.474 -0.4989 -0.0411  0.3568
   59MOL   S44028396   8.120   3.989   7.720 -0.3285 -0.0932  0.2808
   59MOL   O44128397   8.159   4.015   7.859  0.2129  0.4082  0.6671
   59MOL   O44228398   8.036   3.870   7.692  0.7485  0.0583 -0.3585
   59MOL   C44328399   8.035   4.137   7.655 -0.2962  0.2376  1.1549
   59MOL   C44428400   7.901   4.141   7.614  0.9945  0.3263 -0.6681
   59MOL   C44528401   7.856   4.256   7.552 -0.7189  0.3628  0.3952
   59MOL   C44628402   7.929   4.377   7.552  0.5774  0.5284 -0.2494
   59MOL   C44728403   8.058   4.372   7.605  0.6607  0.2784 -0.7262
   59MOL   C44828404   8.112   4.250   7.661 -1.2750 -0.0566 -0.1495
   59MOL   O44928405   7.869   4.487   7.503  0.5608 -0.1564  0.1696
   59MOL   H45028406   8.379   3.895   7.317 -3.1540  0.7950  0.5180
   59MOL   H45128407   8.172   3.915   7.441  0.7013  0.5096 -0.3194
   59MOL   H45228408   8.389   4.068   7.782 -0.0825 -0.3131  0.3149
   59MOL   H45328409   0.174   4.051   7.653 -0.2737  0.1258  0.4218
   59MOL   H45428410   7.841   4.052   7.628 -0.4690  1.2450 -1.0111
   59MOL   H45528411   7.760   4.259   7.503 -1.0108 -1.2653  0.8345
   59MOL   H45628412   8.120   4.460   7.617  0.4602  0.6543 -2.3134
   59MOL   H45728413   8.210   4.248   7.706  0.1122 -0.6348 -3.1135
   59MOL   C45828414   7.878   4.465   7.265 -0.0805  0.1579  0.5130
   59MOL   C45928415   7.923   4.515   7.143  0.9151 -0.0917 -0.3516
   59MOL   C46028416   8.006   4.632   7.142 -0.3480  0.2194  0.4698
   59MOL   C46128417   8.053   4.684   7.263 -0.6190  0.8750  0.1430
   59MOL   C46228418   8.003   4.637   7.385  0.8083  0.3405  0.1668
   59MOL   C46328419   7.919   4.526   7.384 -0.0307  0.0862  0.4062
   59MOL   S46428420   8.064   4.691   6.987  0.1894  0.2486  0.2843
   59MOL   O46528421   8.067   4.840   6.996 -0.0391 -0.1280  0.3702
   59MOL   O46628422   7.997   4.623   6.870 -0.5384  0.6253 -0.6905
   59MOL   C46728423   8.231   4.641   6.992  1.0403  0.5270 -0.7039
   59MOL   C46828424   8.268   4.516   7.046  0.6441 -0.2320  0.0366
   59MOL   C46928425   8.401   4.482   7.053  0.0916 -1.0668  0.7204
   59MOL   C47028426   0.075   4.569   7.004 -0.6992 -0.0262 -0.2781
   59MOL   C47128427   0.040   4.688   6.936  0.5396 -0.2700 -0.0533
   59MOL   C47228428   8.329   4.719   6.931  0.3241  0.0693 -0.1972
   59MOL   O47328429   0.206   4.530   7.022 -0.2814  0.2017 -0.2820
   59MOL   H47428430   7.824   4.371   7.264  0.7638 -0.3293  0.4841
   59MOL   H47528431   7.900   4.463   7.051  0.4980  0.5984 -0.6397
   59MOL   H47628432   8.131   4.758   7.269 -1.8370  2.2173 -0.4240
   59MOL   H47728433   8.040   4.679   7.478  0.1056  2.2902 -0.4111
   59MOL   H47828434   8.201   4.440   7.084  0.7036  0.4285  1.4784
   59MOL   H47928435   8.421   4.388   7.103  1.6984 -0.9061  0.3848
   59MOL   H48028436   0.108   4.759   6.891  1.4721 -2.8731 -2.9536
   59MOL   H48128437   8.302   4.813   6.884 -0.3209  0.1922  0.4046
   59MOL   H48228438   0.254   4.599   6.978 -2.0506  2.2864  0.9707
   60MOL     C128439   4.997   2.600   0.767 -0.1007  0.8282  0.1289
   60MOL     C228440   5.010   2.737   0.801  0.0208  0.1013  0.1525
   60MOL     C328441   4.953   2.782   0.922 -0.0993 -0.8812  0.1233
   60MOL     C428442   4.874   2.696   1.009 -0.4633  0.1298 -0.2012
   60MOL     C528443   4.858   2.557   0.964 -0.4715 -0.0886 -0.1398
   60MOL     C628444   4.915   2.515   0.848 -0.0614  0.6212 -0.2951
   60MOL     S728445   4.975   2.950   0.972 -0.1730 -0.3056 -0.2550
   60MOL     O828446   4.848   3.024   0.938 -0.3447 -0.0750  0.3878
   60MOL     O928447   5.106   2.991   0.912 -0.0552 -0.5949  0.0776
   60MOL    C1028448   4.993   2.952   1.149  0.2033  0.3985 -0.0093
   60MOL    C1128449   5.071   2.851   1.212  0.1318 -0.5862  0.2574
   60MOL    C1228450   5.081   2.835   1.352  0.3995  0.0573 -0.2379
   60MOL    C1328451   4.995   2.917   1.436 -0.3026 -0.2044 -0.1634
   60MOL    C1428452   4.921   3.024   1.375  0.1179  0.1786  0.6073
   60MOL    C1528453   4.917   3.035   1.233  0.4123 -0.3274 -0.1535
   60MOL    O1628454   4.997   2.898   1.572  0.3915  0.5726  0.0210
   60MOL    H1728455   5.036   2.569   0.671  1.0450 -0.7952  1.1076
   60MOL    H1828456   5.055   2.810   0.735 -1.9239  1.4491  0.3042
   60MOL    H1928457   4.834   2.744   1.097  0.0856  2.0193 -0.9565
   60MOL    H2028458   4.798   2.484   1.017 -1.0187 -0.8360 -1.7671
   60MOL    H2128459   5.129   2.786   1.148  0.0101 -0.7731  0.3369
   60MOL    H2228460   5.132   2.755   1.403 -0.4109 -0.8939 -0.8883
   60MOL    H2328461   4.866   3.094   1.436 -0.6288 -0.3948  0.6052
   60MOL    H2428462   4.849   3.100   1.180 -0.1262  0.4626  1.4509
   60MOL    H2528463   4.899   2.416   0.810  1.2730  0.8818 -1.5695
   60MOL    C2628464   4.982   3.111   1.694 -0.2444 -0.4013 -0.4541
   60MOL    C2728465   4.899   3.203   1.756 -0.2148  0.0312  0.2099
   60MOL    C2828466   4.763   3.178   1.781 -0.0982  0.0626 -0.3416
   60MOL    C2928467   4.712   3.054   1.750 -0.2610 -0.2183  0.3741
   60MOL    C3028468   4.794   2.960   1.687  0.4498 -0.0468 -0.1236
   60MOL    C3128469   4.927   2.988   1.648  0.0999  0.3753 -0.4997
   60MOL    S3228470   4.664   3.307   1.834  0.0204 -0.4304  0.6009
   60MOL    O3328471   4.707   3.438   1.780  0.5217  0.4543  0.3827
   60MOL    O3428472   4.648   3.283   1.979 -0.2565  0.2169  0.2484
   60MOL    C3528473   4.504   3.289   1.766  0.1562  0.4332 -0.5445
   60MOL    C3628474   4.473   3.220   1.644 -0.6337  0.5958 -0.0532
   60MOL    C3728475   4.353   3.184   1.592 -0.9355  0.0511 -0.2893
   60MOL    C3828476   4.241   3.234   1.659  0.7080 -0.1817 -0.4514
   60MOL    C3928477   4.260   3.310   1.777 -0.0944  0.2345 -0.1542
   60MOL    C4028478   4.389   3.330   1.837 -0.4895  0.5073 -0.0006
   60MOL    O4128479   4.117   3.225   1.602  0.0254 -0.0553  0.0749
   60MOL    H4228480   5.083   3.135   1.665 -0.6320  2.8710  0.7156
   60MOL    H4328481   4.937   3.302   1.774  0.2710 -0.0274 -0.4698
   60MOL    H4428482   4.611   3.026   1.777 -0.2454 -0.5775  0.0566
   60MOL    H4528483   4.740   2.870   1.658  0.1789 -0.3024  1.1336
   60MOL    H4628484   4.557   3.190   1.584  1.0659  0.4843  2.3527
   60MOL    H4728485   4.341   3.132   1.498  1.1383 -1.1689  0.1018
   60MOL    H4828486   4.179   3.362   1.825  0.4508  0.7061  0.2739
   60MOL    H4928487   4.405   3.391   1.924 -2.5786  1.1470 -0.0442
   60MOL    C5028488   4.084   3.073   1.414 -0.5984  0.6041 -0.1232
   60MOL    C5128489   4.058   2.941   1.368 -0.2033  0.5496  0.0830
   60MOL    C5228490   4.043   2.837   1.463 -0.0474 -0.2078 -0.4070
   60MOL    C5328491   4.065   2.860   1.601 -0.6275 -0.7866  0.6837
   60MOL    C5428492   4.099   2.989   1.645 -0.1683 -0.7126 -0.5194
   60MOL    C5528493   4.094   3.100   1.558  0.5947  0.3007 -0.1499
   60MOL    S5628494   4.002   2.668   1.406 -0.0908  0.0214 -0.2143
   60MOL    O5728495   4.114   2.576   1.428  0.5946  0.2395 -0.9216
   60MOL    O5828496   3.945   2.681   1.274 -1.2305 -0.2343 -0.2667
   60MOL    C5928497   3.878   2.608   1.515  0.0951 -0.4354  0.3636
   60MOL    C6028498   3.792   2.697   1.577 -0.2938 -0.4678  0.0615
   60MOL    C6128499   3.693   2.656   1.668 -0.0779  0.3673  0.9723
   60MOL    C6228500   3.681   2.517   1.693 -0.2716  0.7004  0.1045
   60MOL    C6328501   3.769   2.422   1.632  0.2472  0.1091  0.1411
   60MOL    C6428502   3.862   2.470   1.539 -0.0052  0.0749  0.1904
   60MOL    O6528503   3.594   2.480   1.793 -0.3863 -0.5827 -0.2058
   60MOL    H6628504   4.095   3.148   1.338 -2.1775 -1.4518 -2.4731
   60MOL    H6728505   4.056   2.919   1.262  0.1292  0.6254  0.0615
   60MOL    H6828506   4.053   2.771   1.662 -0.5264  0.0196  1.9024
   60MOL    H6928507   4.113   3.006   1.751 -2.8578  1.2029 -0.4263
   60MOL    H7028508   3.787   2.801   1.549  0.4637 -0.3479  0.3575
   60MOL    H7128509   3.631   2.737   1.701 -1.4045  0.0591 -0.7030
   60MOL    H7228510   3.756   2.317   1.652 -0.4628  0.4891  1.8143
   60MOL    H7328511   3.924   2.402   1.483 -0.6610  0.6708 -1.2658
   60MOL    C7428512   3.446   2.292   1.752 -0.3413  0.0070  0.1532
   60MOL    C7528513   3.333   2.236   1.691  0.1020  0.2965 -0.0342
   60MOL    C7628514   3.237   2.323   1.630 -0.5347  0.4619 -0.6346
   60MOL    C7728515   3.263   2.462   1.619 -0.1706  0.3871  0.3239
   60MOL    C7828516   3.387   2.509   1.668  0.0587 -0.0292 -0.2018
   60MOL    C7928517   3.476   2.428   1.746  0.2034 -0.5933 -0.2815
   60MOL    S8028518   3.086   2.270   1.553 -0.1128  0.0275  0.2226
   60MOL    O8128519   3.000   2.385   1.551 -0.0477 -0.7187  0.3806
   60MOL    O8228520   3.038   2.146   1.615  0.2245  0.4604 -0.3382
   60MOL    C8328521   3.132   2.239   1.372 -0.0520  0.0003  0.1700
   60MOL    C8428522   3.096   2.119   1.315  0.6187 -0.0201 -0.3474
   60MOL    C8528523   3.125   2.097   1.177 -0.0013 -0.2494  0.1367
   60MOL    C8628524   3.194   2.197   1.105  0.1872  0.6137  0.3326
   60MOL    C8728525   3.222   2.325   1.163  0.2412  0.3365  0.0080
   60MOL    C8828526   3.191   2.341   1.297 -0.5259 -0.5969  0.2834
   60MOL    O8928527   3.224   2.172   0.973  0.3105 -0.1649  0.0322
   60MOL    H9028528   3.531   2.237   1.790  2.3545  1.9189 -2.8638
   60MOL    H9128529   3.320   2.129   1.700 -1.5054  0.2840 -2.2908
   60MOL    H9228530   3.190   2.526   1.573 -0.7406 -0.2329  0.3698
   60MOL    H9328531   3.410   2.613   1.650  1.4849 -0.3002  0.0083
   60MOL    H9428532   3.057   2.039   1.376  2.4438 -1.3188 -0.8354
   60MOL    H9528533   3.091   2.006   1.132  0.1120 -1.0145  1.5831
   60MOL    H9628534   3.269   2.401   1.101 -0.4111  0.3163 -0.5118
   60MOL    H9728535   3.206   2.436   1.346  0.7712  0.6938 -2.4562
   60MOL    C9828536   3.347   1.970   0.954 -0.6672  0.6310 -0.0555
   60MOL    C9928537   3.472   1.905   0.925 -0.2334 -0.1649  0.0965
   60MOL   C10028538   3.581   1.981   0.885 -0.0795 -0.3923  0.2150
   60MOL   C10128539   3.575   2.124   0.885 -0.0046 -0.4183  0.0650
   60MOL   C10228540   3.453   2.186   0.922  0.6795  0.0543 -0.8499
   60MOL   C10328541   3.338   2.108   0.955 -0.3076  0.0219  0.2864
   60MOL   S10428542   3.736   1.899   0.837 -0.0675 -0.1866 -0.5622
   60MOL   O10528543   3.751   1.789   0.932  0.1031  0.1925 -0.6325
   60MOL   O10628544   3.842   2.007   0.823 -0.8121  0.4372  0.3359
   60MOL   C10728545   3.709   1.839   0.669 -0.1781 -0.2543 -0.1741
   60MOL   C10828546   3.593   1.765   0.633  0.0732 -0.7965  0.2478
   60MOL   C10928547   3.583   1.697   0.514  0.4550  0.2695  0.2504
   60MOL   C11028548   3.691   1.699   0.422 -0.1138 -0.3270 -0.3374
   60MOL   C11128549   3.806   1.775   0.450 -0.0330  1.2093 -0.1148
   60MOL   C11228550   3.816   1.838   0.577  0.2813 -0.0287  0.2956
   60MOL   O11328551   3.670   1.627   0.309  0.4316 -0.4235 -0.3294
   60MOL   H11428552   3.262   1.908   0.981 -0.0884 -0.4828 -0.7818
   60MOL   H11528553   3.468   1.798   0.916 -3.2150 -0.1432  0.5266
   60MOL   H11628554   3.653   2.186   0.842 -0.2425 -1.0894 -1.3713
   60MOL   H11728555   3.443   2.294   0.931 -0.2075 -0.2024  1.7628
   60MOL   H11828556   3.516   1.761   0.709 -0.0733 -2.1955  0.0261
   60MOL   H11928557   3.494   1.640   0.490 -0.5857  1.6185  0.8400
   60MOL   H12028558   3.892   1.782   0.385 -1.5845  1.3788 -2.1913
   60MOL   H12128559   3.910   1.889   0.597  1.0310 -1.3802  0.2928
   60MOL   C12228560   3.815   1.637   0.122 -0.3794 -0.3847  0.2119
   60MOL   C12328561   3.938   1.594   0.062 -0.6846 -0.3802 -0.2962
   60MOL   C12428562   4.019   1.499   0.135  0.4976 -0.8237  0.3969
   60MOL   C12528563   3.985   1.457   0.260  0.4184 -0.9823 -0.0752
   60MOL   C12628564   3.858   1.494   0.313  0.1369 -0.2553  0.1264
   60MOL   C12728565   3.778   1.583   0.243  0.0312  0.5644  0.5383
   60MOL   S12828566   4.171   1.441   0.063 -0.0512 -0.4043  0.4326
   60MOL   O12928567   4.171   1.485   8.346 -0.1848  0.4350 -0.0534
   60MOL   O13028568   4.188   1.299   0.095  0.1182  0.2123 -0.2582
   60MOL   C13128569   4.310   1.518   0.150 -0.0338  0.3614  0.3049
   60MOL   C13228570   4.442   1.474   0.121 -0.0329  0.4715 -0.0700
   60MOL   C13328571   4.544   1.533   0.197 -0.3087 -0.0825  0.5527
   60MOL   C13428572   4.520   1.648   0.274  0.4055  0.0291  0.2747
   60MOL   C13528573   4.386   1.700   0.272  0.2058 -0.2636  0.2616
   60MOL   C13628574   4.285   1.629   0.226  0.8648 -0.2665  0.5624
   60MOL   O13728575   4.619   1.700   0.346 -0.2580  0.2350 -0.1400
   60MOL   H13828576   3.766   1.724   0.079 -0.5693 -0.0280  1.1555
   60MOL   H13928577   3.978   1.630   8.393 -0.2663 -0.5462 -0.1855
   60MOL   H14028578   4.056   1.391   0.307 -0.0877 -2.3818 -1.2397
   60MOL   H14128579   3.830   1.456   0.410  2.4319 -1.8447  0.1936
   60MOL   H14228580   4.458   1.393   0.052  0.1365 -1.0756  1.7396
   60MOL   H14328581   4.645   1.496   0.188 -0.9401 -1.8365  0.4933
   60MOL   H14428582   4.382   1.788   0.336  1.0377  0.5547 -0.7839
   60MOL   H14528583   4.187   1.675   0.225  1.5677  1.2743 -0.3327
   60MOL   C14628584   4.575   1.548   0.528  0.2775  0.2848 -0.5117
   60MOL   C14728585   4.557   1.526   0.667 -0.1930  0.4238  0.5221
   60MOL   C14828586   4.607   1.625   0.757  0.1179 -0.1940  0.1640
   60MOL   C14928587   4.637   1.756   0.712 -1.0729  0.8155 -0.6836
   60MOL   C15028588   4.635   1.780   0.573 -0.6063  0.4251  0.0662
   60MOL   C15128589   4.610   1.674   0.483 -0.0884 -0.5538 -0.0047
   60MOL   S15228590   4.639   1.575   0.933  0.2279 -0.1588  0.0417
   60MOL   O15328591   4.574   1.446   0.955  0.6260 -0.4328 -0.4853
   60MOL   O15428592   4.621   1.693   1.025  0.5196 -0.1215  0.5825
   60MOL   C15528593   4.820   1.537   0.931  0.4264 -0.8457 -0.4719
   60MOL   C15628594   4.905   1.594   1.027 -0.9871 -0.3246  0.2130
   60MOL   C15728595   5.042   1.575   1.017 -0.0791  0.6824  0.2086
   60MOL   C15828596   5.098   1.484   0.926  0.3449  0.4050 -0.4019
   60MOL   C15928597   5.010   1.418   0.837 -0.1028  0.1891 -0.0704
   60MOL   C16028598   4.873   1.453   0.827  0.0128 -0.2522  0.8218
   60MOL   O16128599   5.232   1.456   0.940 -0.3634 -0.0989  0.1084
   60MOL   H16228600   4.564   1.466   0.459  1.9481 -0.3202 -0.0760
   60MOL   H16328601   4.510   1.441   0.715 -0.5199 -0.0186 -0.5633
   60MOL   H16428602   4.660   1.826   0.791 -0.0533 -0.4113  0.1327
   60MOL   H16528603   4.673   1.872   0.529  1.1668 -0.2360  0.1689
   60MOL   H16628604   4.868   1.671   1.094  1.7707  1.5667 -0.3441
   60MOL   H16728605   5.112   1.616   1.088  0.3215 -0.3210  0.4156
   60MOL   H16828606   5.045   1.342   0.769  0.2388  0.9363 -0.7265
   60MOL   H16928607   4.808   1.405   0.755 -0.9957  0.5357  1.2032
   60MOL   C17028608   5.210   1.295   1.118  0.4433  0.3033  0.4830
   60MOL   C17128609   5.270   1.228   1.222 -0.2534 -0.0309 -0.7429
   60MOL   C17228610   5.403   1.261   1.263 -0.6485  0.3612 -0.7684
   60MOL   C17328611   5.473   1.358   1.197  0.3404 -0.0908 -0.4579
   60MOL   C17428612   5.425   1.418   1.075  0.2679 -0.6722  0.1145
   60MOL   C17528613   5.288   1.391   1.045 -0.8665  0.0504 -0.2030
   60MOL   S17628614   5.482   1.166   1.386 -0.1495  0.0440  0.3027
   60MOL   O17728615   5.596   1.239   1.434 -0.1941 -0.2799  0.0701
   60MOL   O17828616   5.510   1.041   1.327 -0.2306  0.0225  0.1902
   60MOL   C17928617   5.366   1.144   1.520  0.2287  0.0678 -0.7110
   60MOL   C18028618   5.359   1.022   1.581 -0.8938 -0.0579  0.9049
   60MOL   C18128619   5.250   0.990   1.670  0.1711 -0.1797  0.0155
   60MOL   C18228620   5.162   1.094   1.713 -0.0296 -0.4888  0.2995
   60MOL   C18328621   5.175   1.218   1.651 -0.3770 -0.0200  0.2492
   60MOL   C18428622   5.273   1.244   1.554 -0.7947  0.2468  0.5680
   60MOL   O18528623   5.053   1.075   1.800 -0.2877 -0.2860  0.2498
   60MOL   H18628624   5.110   1.270   1.085  1.1894  0.7489 -2.2476
   60MOL   H18728625   5.222   1.141   1.264 -0.9863  0.0024 -1.5113
   60MOL   H18828626   5.579   1.356   1.212  0.1249 -0.0565  1.0959
   60MOL   H18928627   5.494   1.478   1.018  0.4650 -2.4293 -1.5474
   60MOL   H19028628   5.433   0.950   1.550 -0.0828  0.5816  1.3196
   60MOL   H19128629   5.222   0.890   1.701  0.2053  0.1085  0.9872
   60MOL   H19228630   5.108   1.300   1.671 -0.6418  0.1882 -1.3532
   60MOL   H19328631   5.276   1.345   1.517 -1.0250  0.9460  2.3841
   60MOL   C19428632   5.114   1.062   2.026 -0.6926 -0.5255 -0.9646
   60MOL   C19528633   5.118   1.109   2.161  0.8322 -0.7896 -0.5268
   60MOL   C19628634   5.068   1.241   2.183  0.1808 -0.0453  0.7797
   60MOL   C19728635   5.027   1.320   2.069 -0.7131  0.1008  0.2135
   60MOL   C19828636   5.022   1.271   1.943 -0.6658  0.0858 -0.1575
   60MOL   C19928637   5.058   1.137   1.922 -0.1835  0.1095  0.1218
   60MOL   S20028638   5.081   1.308   2.343  0.0919  0.4573  0.2753
   60MOL   O20128639   5.009   1.435   2.347 -0.4005 -0.0090  0.2129
   60MOL   O20228640   5.223   1.306   2.381  0.1338 -0.0498 -0.4258
   60MOL   C20328641   4.998   1.190   2.448  0.2808 -0.7360 -0.0373
   60MOL   C20428642   5.053   1.161   2.572 -0.3187 -0.0698 -0.0875
   60MOL   C20528643   4.972   1.083   2.657 -0.3330  0.3130  0.1878
   60MOL   C20628644   4.850   1.041   2.624  0.8766  0.1347 -0.1586
   60MOL   C20728645   4.794   1.051   2.491 -0.4174  0.7741 -0.2032
   60MOL   C20828646   4.874   1.136   2.406  0.3141  0.6018 -0.0132
   60MOL   O20928647   4.777   0.981   2.721  0.0761 -0.4797 -0.3719
   60MOL   H21028648   5.155   0.964   2.006  0.5879 -0.1249 -0.3210
   60MOL   H21128649   5.155   1.059   2.249 -2.3521 -0.4838  1.0614
   60MOL   H21228650   4.984   1.416   2.092 -0.9830  0.5693 -2.1283
   60MOL   H21328651   4.989   1.327   1.856 -0.2582 -3.2953 -2.5876
   60MOL   H21428652   5.147   1.201   2.605 -0.4791 -0.1376  0.4459
   60MOL   H21528653   5.007   1.057   2.756 -0.8776  0.8284  0.5193
   60MOL   H21628654   4.696   1.016   2.463  0.6421 -0.9079 -1.9197
   60MOL   H21728655   4.830   1.171   2.314 -1.8477 -0.7282  0.4890
   60MOL   C21828656   4.587   0.845   2.762 -0.3482  0.0693  0.5702
   60MOL   C21928657   4.508   0.738   2.726 -0.7734  0.0786  0.1200
   60MOL   C22028658   4.554   0.641   2.628  0.9432  0.2450  0.5649
   60MOL   C22128659   4.683   0.658   2.572  0.0592 -0.9050  0.2474
   60MOL   C22228660   4.767   0.771   2.607 -0.1223  0.1595 -1.3443
   60MOL   C22328661   4.713   0.866   2.697 -0.3052 -0.3410  0.1035
   60MOL   S22428662   4.455   0.507   2.559  0.2014 -0.2462 -0.2273
   60MOL   O22528663   4.502   0.388   2.630 -0.5667 -0.1947  0.1838
   60MOL   O22628664   4.460   0.514   2.414 -0.2415 -0.2609  0.4160
   60MOL   C22728665   4.285   0.529   2.610 -0.2417  0.2306 -0.1436
   60MOL   C22828666   4.241   0.482   2.733  0.0903 -0.2619 -0.2408
   60MOL   C22928667   4.114   0.496   2.775  0.1108 -0.0135  0.6079
   60MOL   C23028668   4.021   0.568   2.689  0.1362  0.0549  0.0160
   60MOL   C23128669   4.061   0.614   2.566 -0.0068 -0.4806  0.1663
   60MOL   C23228670   4.198   0.597   2.527  0.8949  0.2598  0.9039
   60MOL   O23328671   3.889   0.579   2.725 -0.4384 -0.4835  0.3468
   60MOL   H23428672   4.548   0.909   2.840  0.5352  1.0003  0.2657
   60MOL   H23528673   4.406   0.735   2.761 -0.4915  1.7216  1.1291
   60MOL   H23628674   4.723   0.595   2.494  2.5175 -0.7127  1.3073
   60MOL   H23728675   4.863   0.790   2.561  0.4665  0.7384  0.0885
   60MOL   H23828676   4.313   0.431   2.796 -0.5110  0.7656  1.3148
   60MOL   H23928677   4.075   0.462   2.870 -0.1776 -2.3206 -0.3152
   60MOL   H24028678   3.980   0.659   2.510 -0.6358 -1.2810  0.4149
   60MOL   H24128679   4.242   0.628   2.434 -0.9689  1.2229  0.3223
   60MOL   C24228680   3.786   0.515   2.929  0.7383  0.7617 -0.2131
   60MOL   C24328681   3.732   0.414   3.008  0.0489 -0.3712  0.3195
   60MOL   C24428682   3.715   0.284   2.952  0.0855  0.0396  0.3651
   60MOL   C24528683   3.761   0.253   2.824  1.0357  0.1334 -0.2456
   60MOL   C24628684   3.811   0.360   2.747 -0.4244 -0.4076 -1.1658
   60MOL   C24728685   3.821   0.489   2.799 -0.3529 -0.4146  0.0790
   60MOL   S24828686   3.632   0.151   3.039 -0.1081  0.0754 -0.2923
   60MOL   O24928687   3.720   0.032   3.015 -0.6991  0.7226 -0.0085
   60MOL   O25028688   3.491   0.144   3.001 -0.0687  0.4429 -0.0318
   60MOL   C25128689   3.644   0.179   3.209  0.3994 -0.0746 -0.0696
   60MOL   C25228690   3.767   0.233   3.263  0.3422  0.4974 -0.0234
   60MOL   C25328691   3.778   0.243   3.405 -0.6189 -1.0727  0.2689
   60MOL   C25428692   3.675   0.204   3.488 -0.2479 -0.3098  0.4685
   60MOL   C25528693   3.559   0.149   3.433 -0.2679  0.6110 -0.0207
   60MOL   C25628694   3.540   0.139   3.291  0.8664 -0.7564  0.0691
   60MOL   O25728695   3.685   0.220   3.626 -0.9084  0.2435 -0.3883
   60MOL   H25828696   3.800   0.611   2.978 -1.3008  0.8070  0.3123
   60MOL   H25928697   3.698   0.431   3.109 -4.5285  1.0209 -1.3518
   60MOL   H26028698   3.744   0.156   2.779  1.4495  0.8170 -1.9260
   60MOL   H26128699   3.847   0.346   2.646  1.4539 -0.2675 -0.5201
   60MOL   H26228700   3.851   0.241   3.195  0.8661 -0.0415  0.5476
   60MOL   H26328701   3.871   0.279   3.447 -1.7407  1.6113  0.5443
   60MOL   H26428702   3.469   0.131   3.490  0.2757 -1.0597  0.3195
   60MOL   H26528703   3.450   0.100   3.245  0.0350  1.0188  0.1317
   60MOL   C26628704   3.750   8.418   3.697  0.1354  0.0337 -0.0943
   60MOL   C26728705   3.848   8.333   3.767  0.7594  0.1482  0.0425
   60MOL   C26828706   3.969   8.394   3.812 -0.4557  0.3562  0.3755
   60MOL   C26928707   3.989   0.108   3.802 -0.1037  0.7161  0.0884
   60MOL   C27028708   3.890   0.187   3.738  0.8051  0.1166 -0.2807
   60MOL   C27128709   3.770   0.132   3.694  0.6397 -0.5928  0.1019
   60MOL   S27228710   4.097   8.292   3.874 -0.3292 -0.3129 -0.0530
   60MOL   O27328711   4.208   8.383   3.910 -0.3277  0.0649 -0.1708
   60MOL   O27428712   4.109   8.181   3.780 -0.0759  0.3166 -0.0343
   60MOL   C27528713   4.024   8.227   4.021 -0.4483 -0.0671 -0.1464
   60MOL   C27628714   4.071   8.109   4.080  0.2809 -0.2697  0.2986
   60MOL   C27728715   3.998   8.060   4.196 -0.2950 -0.0415  0.7738
   60MOL   C27828716   3.904   8.136   4.265  0.3887 -0.0465  0.3350
   60MOL   C27928717   3.864   8.254   4.208 -0.1688 -0.0052  0.4664
   60MOL   C28028718   3.918   8.298   4.086  0.6523 -0.1168 -0.1226
   60MOL   O28128719   3.837   8.096   4.373 -0.0296  0.3063  0.5782
   60MOL   H28228720   3.673   8.368   3.642  1.7295 -0.9152 -1.5071
   60MOL   H28328721   3.832   8.227   3.782 -0.4957  0.3807  0.4086
   60MOL   H28428722   4.078   0.157   3.837  0.4838 -1.0676  1.1408
   60MOL   H28528723   3.908   0.293   3.727  1.7978  0.0207  0.3434
   60MOL   H28628724   4.143   8.057   4.019  0.7350  0.3566  0.3064
   60MOL   H28728725   4.024   7.962   4.233  0.5520 -0.4772 -0.9090
   60MOL   H28828726   3.795   8.315   4.265 -0.1813  1.5484 -1.1573
   60MOL   H28928727   3.878   8.388   4.042  0.6429  0.7724  1.6582
   60MOL   C29028728   3.666   7.942   4.340  0.6984  0.4599  0.2998
   60MOL   C29128729   3.602   7.821   4.374  0.5048 -0.4922  0.5466
   60MOL   C29228730   3.672   7.728   4.451 -0.2813 -0.4797  0.2616
   60MOL   C29328731   3.808   7.752   4.493 -0.0930  0.4098  0.4257
   60MOL   C29428732   3.861   7.879   4.472  0.2572 -0.8138  0.4408
   60MOL   C29528733   3.790   7.971   4.393  0.6751 -0.1751 -0.5825
   60MOL   S29628734   3.599   7.568   4.502  0.2984 -0.1307 -0.0474
   60MOL   O29728735   3.515   7.586   4.623  0.8271  0.5392 -0.3828
   60MOL   O29828736   3.711   7.472   4.500  0.1858  0.1750 -0.6782
   60MOL   C29928737   3.497   7.523   4.365 -0.0351  0.5191  0.7334
   60MOL   C30028738   3.546   7.551   4.235  0.4935 -0.4919 -0.0087
   60MOL   C30128739   3.459   7.536   4.124  0.1575 -0.9410 -0.1154
   60MOL   C30228740   3.335   7.476   4.142  0.5456  0.6695  0.5689
   60MOL   C30328741   3.292   7.421   4.264 -0.2274  0.4661  0.3361
   60MOL   C30428742   3.377   7.449   4.376  0.1699 -0.7992  0.7350
   60MOL   O30528743   3.257   7.454   4.029  0.2306  0.1744  0.8871
   60MOL   H30628744   3.612   8.018   4.285 -2.1248 -0.6195  1.5087
   60MOL   H30728745   3.504   7.800   4.333 -0.1620 -0.1519  1.9348
   60MOL   H30828746   3.872   7.680   4.543 -1.2282 -0.3093  0.8514
   60MOL   H30928747   3.956   7.895   4.522  0.2792 -1.2784  0.5495
   60MOL   H31028748   3.644   7.592   4.218 -0.0024 -0.3708 -2.6988
   60MOL   H31128749   3.495   7.559   4.024  0.7524 -1.2523  0.0286
   60MOL   H31228750   3.195   7.380   4.288  0.3495 -1.1198  0.0462
   60MOL   H31328751   3.345   7.428   4.477 -0.3366  0.9230  0.9411
   60MOL   C31428752   3.186   7.548   3.820  0.2132  0.2434 -0.9927
   60MOL   C31528753   3.141   7.649   3.734 -0.3483 -0.6335  0.1793
   60MOL   C31628754   3.125   7.783   3.786 -0.0393  0.4127 -0.3474
   60MOL   C31728755   3.152   7.806   3.923  0.0099 -0.2230 -0.1674
   60MOL   C31828756   3.187   7.696   4.001 -0.0518 -0.9202 -0.0056
   60MOL   C31928757   3.216   7.567   3.956 -0.4055 -0.2001  0.5424
   60MOL   S32028758   3.102   7.932   3.687 -0.0322  0.2974 -0.2122
   60MOL   O32128759   2.965   7.975   3.729 -0.3946 -0.3290 -0.3196
   60MOL   O32228760   3.128   7.896   3.550  0.2896 -0.1681 -0.1194
   60MOL   C32328761   3.222   8.060   3.739 -0.7413 -0.6551 -0.2126
   60MOL   C32428762   3.359   8.038   3.708 -0.1167  0.4644 -0.3572
   60MOL   C32528763   3.459   8.123   3.761  0.5633  0.3145  0.3684
   60MOL   C32628764   3.416   8.234   3.840 -0.3618 -0.0267  0.0625
   60MOL   C32728765   3.280   8.247   3.880 -0.6739  0.8427  0.8965
   60MOL   C32828766   3.185   8.161   3.825  0.5699 -0.0090 -0.5335
   60MOL   O32928767   3.508   8.314   3.893  0.0730  0.1244  0.2806
   60MOL   H33028768   3.182   7.447   3.781 -1.7852 -0.3043  0.5471
   60MOL   H33128769   3.131   7.632   3.628  2.7130  1.0752 -0.4304
   60MOL   H33228770   3.147   7.905   3.967 -2.2142 -1.0919  1.5882
   60MOL   H33328771   3.196   7.713   4.107  2.0406 -4.1947  0.3806
   60MOL   H33428772   3.387   7.955   3.644 -0.1369 -0.8885  1.3260
   60MOL   H33528773   3.563   8.114   3.736  0.4477  1.3968 -0.5498
   60MOL   H33628774   3.259   8.328   3.947  1.3988 -0.1155  2.7667
   60MOL   H33728775   3.081   8.182   3.846 -0.4629 -1.9695 -3.5138
   60MOL   C33828776   3.407   0.100   3.805  0.6985 -0.2312 -0.1480
   60MOL   C33928777   3.384   0.237   3.831  0.4013 -0.7598  0.1583
   60MOL   C34028778   3.456   0.302   3.931 -1.0059 -0.4366 -0.2663
   60MOL   C34128779   3.545   0.230   4.014 -0.1047 -1.2684  0.0448
   60MOL   C34228780   3.568   0.093   3.997  0.0816 -0.9629  0.2937
   60MOL   C34328781   3.497   0.026   3.897  0.2931  0.6014 -0.1930
   60MOL   S34428782   3.430   0.476   3.963 -0.0296 -0.1825  0.3299
   60MOL   O34528783   3.456   0.497   4.106  0.4071 -0.2230  0.3516
   60MOL   O34628784   3.303   0.522   3.906 -0.4356  0.0677  0.1986
   60MOL   C34728785   3.566   0.554   3.887 -1.0096 -0.3659  0.2414
   60MOL   C34828786   3.612   0.511   3.759 -0.1391  0.4772  0.1581
   60MOL   C34928787   3.720   0.585   3.709  0.5545 -0.0025 -0.2641
   60MOL   C35028788   3.797   0.679   3.778 -0.2108  0.4248  0.9196
   60MOL   C35128789   3.753   0.712   3.905  0.2446  0.3088  0.1147
   60MOL   C35228790   3.644   0.648   3.958  0.2114  0.6569 -0.8459
   60MOL   O35328791   3.905   0.740   3.717 -0.1947 -0.3190  0.1138
   60MOL   H35428792   3.354   0.053   3.724 -1.3241  2.2254 -0.2988
   60MOL   H35528793   3.317   0.298   3.772  0.2720  0.4168  1.5002
   60MOL   H35628794   3.587   0.287   4.096  2.3128 -1.9226 -0.6840
   60MOL   H35728795   3.643   0.040   4.054  0.4479 -1.8919 -1.0405
   60MOL   H35828796   3.569   0.435   3.697  3.1732 -0.5506 -1.0194
   60MOL   H35928797   3.762   0.553   3.614 -1.5305  0.7672 -1.4689
   60MOL   H36028798   3.798   0.790   3.965 -0.1370  0.5339  0.1124
   60MOL   H36128799   3.614   0.675   4.058  1.1744 -1.2402 -0.0065
   60MOL   C36228800   4.090   0.730   3.565  0.2624  0.5260  0.1863
   60MOL   C36328801   4.208   0.678   3.518  0.4104  0.0983  0.6651
   60MOL   C36428802   4.260   0.566   3.577  0.3219 -0.3437  0.3355
   60MOL   C36528803   4.193   0.504   3.685 -0.0947  0.2300 -1.3638
   60MOL   C36628804   4.067   0.548   3.730  0.6550 -0.2777 -0.1553
   60MOL   C36728805   4.014   0.663   3.667 -0.2444 -0.0801 -0.2566
   60MOL   S36828806   4.408   0.480   3.519  0.0134 -0.2192  0.6348
   60MOL   O36928807   4.484   0.451   3.638  0.3481 -0.0867 -0.5923
   60MOL   O37028808   4.470   0.556   3.413 -0.3541 -0.0008  0.4142
   60MOL   C37128809   4.356   0.323   3.455 -0.1593 -0.1641 -0.0609
   60MOL   C37228810   4.448   0.220   3.450  0.4128  0.1307 -0.0022
   60MOL   C37328811   4.414   0.099   3.380 -0.5130  0.3452  0.3814
   60MOL   C37428812   4.283   0.089   3.323 -0.7653  0.3358 -0.2761
   60MOL   C37528813   4.192   0.193   3.337 -0.3945  0.6220  0.3103
   60MOL   C37628814   4.226   0.306   3.404  0.1683 -0.2145  0.4994
   60MOL   O37728815   4.246   8.405   3.250 -0.1551 -0.2878 -0.0992
   60MOL   H37828816   4.055   0.825   3.527 -0.9342 -0.4123 -1.0930
   60MOL   H37928817   4.252   0.726   3.431 -0.9333  0.0408 -0.0499
   60MOL   H38028818   4.246   0.428   3.740 -3.2337 -2.1888 -1.5898
   60MOL   H38128819   4.017   0.493   3.809 -1.6284 -0.1277 -1.4621
   60MOL   H38228820   4.541   0.237   3.503 -0.7561 -0.4952  2.3052
   60MOL   H38328821   4.492   0.025   3.374 -1.9274 -1.1313 -0.0845
   60MOL   H38428822   4.090   0.191   3.301 -0.9167  1.5908  1.6818
   60MOL   H38528823   4.149   0.381   3.405 -0.1722 -0.5517  2.7874
   60MOL   C38628824   4.011   8.365   3.202  0.1344 -0.7185 -0.1819
   60MOL   C38728825   3.895   8.281   3.224 -0.4635  0.1749 -0.5934
   60MOL   C38828826   3.885   8.225   3.352 -0.6108  0.1818 -0.0939
   60MOL   C38928827   3.996   8.227   3.444  0.1436 -0.5004 -0.0216
   60MOL   C39028828   4.117   8.281   3.403  0.2482  0.1304 -0.2980
   60MOL   C39128829   4.126   8.352   3.287  0.5345  0.3159 -0.0699
   60MOL   S39228830   3.731   8.159   3.419 -0.2237  0.3591  0.3622
   60MOL   O39328831   3.623   8.253   3.415 -0.2803 -0.4949 -0.8368
   60MOL   O39428832   3.771   8.105   3.554  0.0812  0.0368 -0.1120
   60MOL   C39528833   3.685   8.024   3.314  1.0575 -0.5656  0.2227
   60MOL   C39628834   3.556   7.969   3.334  1.2002  0.0083  0.8728
   60MOL   C39728835   3.511   7.863   3.262 -0.3123 -0.7677  0.0734
   60MOL   C39828836   3.577   7.820   3.146  0.1009 -0.3121 -0.0281
   60MOL   C39928837   3.704   7.880   3.121 -0.2003  0.1388 -0.0267
   60MOL   C40028838   3.752   7.984   3.200  0.0192 -0.2363 -0.1382
   60MOL   O40128839   3.525   7.715   3.069  0.0414 -0.6548 -0.2831
   60MOL   H40228840   4.012   8.419   3.109  2.4633 -0.3558  0.0198
   60MOL   H40328841   3.815   8.290   3.152 -1.1956  0.2907  0.2228
   60MOL   H40428842   3.997   8.184   3.544  0.9608  2.2461  1.1900
   60MOL   H40528843   4.202   8.270   3.469 -0.2595 -1.8442  0.0443
   60MOL   H40628844   3.496   8.004   3.417  1.0169  1.4002  0.1728
   60MOL   H40728845   3.414   7.822   3.287 -1.3057  2.3412  1.6506
   60MOL   H40828846   3.755   7.851   3.030  0.5731 -0.1308  0.4932
   60MOL   H40928847   3.849   8.024   3.176 -0.5575  1.8189  0.8293
   60MOL   C41028848   3.439   7.751   2.838  0.6394  0.3020 -0.4383
   60MOL   C41128849   3.328   7.774   2.754  0.3440 -0.1391 -0.7948
   60MOL   C41228850   3.200   7.791   2.813 -0.8068  0.4770  0.2071
   60MOL   C41328851   3.184   7.773   2.948 -0.1163 -0.7021 -0.8947
   60MOL   C41428852   3.293   7.752   3.031 -0.3705  1.1815 -0.1028
   60MOL   C41528853   3.425   7.745   2.982  0.6899 -0.5583 -0.0975
   60MOL   S41628854   3.055   7.809   2.708  0.3880  0.4176  0.9074
   60MOL   O41728855   2.938   7.755   2.777 -0.1639 -0.3967 -0.0679
   60MOL   O41828856   3.084   7.756   2.573  0.3831  0.0694 -0.2391
   60MOL   C41928857   3.028   7.985   2.693 -0.2534 -0.0437 -0.0796
   60MOL   C42028858   2.999   8.056   2.808  0.9549 -0.1306  0.3583
   60MOL   C42128859   2.987   8.196   2.798  0.1314  0.9002  0.7963
   60MOL   C42228860   2.990   8.269   2.677  0.8102 -0.3190 -0.5071
   60MOL   C42328861   3.017   8.198   2.557  0.3083  0.0552 -0.0379
   60MOL   C42428862   3.040   8.056   2.567 -0.0035 -0.3170  0.1158
   60MOL   O42528863   2.969   8.406   2.659 -0.1634 -0.2835 -0.8010
   60MOL   H42628864   3.527   7.725   2.781 -0.4446 -2.3683 -0.9604
   60MOL   H42728865   3.338   7.766   2.647 -1.8854  0.2292 -1.0473
   60MOL   H42828866   3.083   7.783   2.985  0.2166 -1.8821  0.3611
   60MOL   H42928867   3.277   7.729   3.135 -0.7700 -3.9175 -1.1803
   60MOL   H43028868   2.983   7.999   2.898 -0.1254  1.0721  0.9466
   60MOL   H43128869   2.949   8.247   2.885 -1.1000  2.4935 -0.6232
   60MOL   H43228870   3.034   8.251   2.465 -0.6554 -0.3260 -0.4425
   60MOL   H43328871   3.060   7.999   2.477  0.6118 -2.1695  1.3901
   60MOL   C43428872   3.151   0.087   2.769 -0.5789 -0.3609  0.4766
   60MOL   C43528873   3.198   0.179   2.871 -0.5390  0.1570 -0.4986
   60MOL   C43628874   3.104   0.245   2.957  0.8953 -0.2119 -0.1477
   60MOL   C43728875   2.965   0.230   2.941 -0.3668  0.5027 -0.1506
   60MOL   C43828876   2.924   0.143   2.837 -0.1291  0.2511  0.4788
   60MOL   C43928877   3.013   0.069   2.755 -0.0661 -0.6565  0.1687
   60MOL   S44028878   3.159   0.359   3.090  0.2152 -0.7367 -0.1205
   60MOL   O44128879   3.300   0.333   3.118  0.1169 -0.3664  0.5930
   60MOL   O44228880   3.066   0.358   3.202 -0.4934  0.0846  0.0960
   60MOL   C44328881   3.162   0.515   3.022  0.1287  0.2265 -0.7607
   60MOL   C44428882   3.137   0.532   2.883  0.0586 -0.2299  0.6128
   60MOL   C44528883   3.154   0.664   2.833  0.1646  0.0356 -0.7551
   60MOL   C44628884   3.188   0.767   2.915  0.0583 -0.0348 -0.2657
   60MOL   C44728885   3.212   0.744   3.055  0.9006 -0.2936  0.3609
   60MOL   C44828886   3.193   0.621   3.107 -0.3275 -0.3561 -0.2115
   60MOL   O44928887   3.199   0.884   2.860 -0.0579  0.8204  0.4828
   60MOL   H45028888   3.215   0.031   2.704  0.3850  0.3698  0.7817
   60MOL   H45128889   3.301   0.208   2.886 -0.8882  2.2512 -1.9269
   60MOL   H45228890   2.900   0.289   3.004  1.7192  1.5676  1.0654
   60MOL   H45328891   2.817   0.145   2.821 -0.2196 -0.7813  0.9839
   60MOL   H45428892   3.112   0.458   2.808  0.8047  0.7827 -0.6649
   60MOL   H45528893   3.131   0.687   2.730 -0.7519  2.1304 -0.1047
   60MOL   H45628894   3.247   0.822   3.120  1.1373  0.5017 -0.7075
   60MOL   H45728895   3.206   0.594   3.210 -0.9225 -0.7822 -0.2417
   60MOL   C45828896   3.076   0.976   2.679 -0.1481 -0.0869  0.6125
   60MOL   C45928897   2.955   1.009   2.621  0.0801 -0.1110 -0.5195
   60MOL   C46028898   2.838   1.027   2.700  0.7443  0.3907 -0.0261
   60MOL   C46128899   2.848   0.998   2.838 -0.1898  0.2998 -0.4731
   60MOL   C46228900   2.973   0.959   2.896  0.1354  0.1930 -0.2778
   60MOL   C46328901   3.086   0.945   2.815 -0.4451 -0.9316  0.0628
   60MOL   S46428902   2.687   1.053   2.615 -0.1273 -0.0615 -0.0734
   60MOL   O46528903   2.569   0.994   2.682 -0.0876  0.0556 -0.0908
   60MOL   O46628904   2.715   1.010   2.472 -0.1008  0.0262  0.2105
   60MOL   C46728905   2.681   1.233   2.608 -0.4303  0.2885  0.2820
   60MOL   C46828906   2.785   1.300   2.543 -0.8838  0.4032 -0.1831
   60MOL   C46928907   2.787   1.442   2.546  0.2413 -0.2379 -0.1219
   60MOL   C47028908   2.683   1.508   2.614 -0.2899  0.1872 -0.2297
   60MOL   C47128909   2.571   1.438   2.671 -0.0766  0.2007  0.7348
   60MOL   C47228910   2.571   1.294   2.667  0.3086 -0.7573  0.0908
   60MOL   O47328911   2.671   1.648   2.597 -0.7047  0.5694  0.1918
   60MOL   H47428912   3.170   0.972   2.627 -0.7057 -1.2914 -0.3065
   60MOL   H47528913   2.956   1.005   2.514  0.6399  1.2184 -0.5740
   60MOL   H47628914   2.762   1.011   2.902 -0.0361  0.9572 -0.4004
   60MOL   H47728915   2.966   0.942   3.002  2.1975 -1.5337 -0.3878
   60MOL   H47828916   2.865   1.249   2.492  0.2776 -0.0880  2.0712
   60MOL   H47928917   2.866   1.502   2.502 -0.9835  1.3827 -0.1425
   60MOL   H48028918   2.491   1.501   2.708 -1.3976 -1.0795  0.1099
   60MOL   H48128919   2.490   1.234   2.705 -1.1296  1.7609  1.1394
   60MOL   H48228920   2.710   1.689   2.521  1.0907  0.6976  1.1476
   61MOL     C128921   4.823   0.696   1.781  0.3803 -0.5598 -0.2183
   61MOL     C228922   4.819   0.719   1.919  0.1329  0.3155 -0.1415
   61MOL     C328923   4.934   0.715   1.997 -0.2654  0.1980  0.5513
   61MOL     C428924   5.060   0.694   1.937  0.2275 -0.8188  0.8535
   61MOL     C528925   5.068   0.668   1.800 -0.3992  0.3232  0.6360
   61MOL     C628926   4.947   0.667   1.723 -0.1701  0.6817 -0.2676
   61MOL     S728927   4.925   0.760   2.173  0.4234  0.0899 -0.0584
   61MOL     O828928   4.801   0.836   2.199  0.3775  0.1065  0.3504
   61MOL     O928929   5.055   0.820   2.205 -0.0084 -0.3267  0.1183
   61MOL    C1028930   4.913   0.611   2.269  0.3242 -0.0664  0.7878
   61MOL    C1128931   4.802   0.523   2.250 -0.4879  0.0890  0.2234
   61MOL    C1228932   4.787   0.408   2.338  0.3602 -0.0231  0.7271
   61MOL    C1328933   4.885   0.385   2.438 -0.0303 -0.8663 -0.4083
   61MOL    C1428934   4.999   0.464   2.440  0.0059  0.1875 -0.4117
   61MOL    C1528935   5.015   0.579   2.360  0.3994 -0.2150 -0.1497
   61MOL    O1628936   4.873   0.272   2.516 -0.1590 -0.3170 -0.4175
   61MOL    H1728937   4.727   0.692   1.732 -0.0968  1.6290  0.4676
   61MOL    H1828938   4.725   0.729   1.971  0.8781 -1.4406  1.5930
   61MOL    H1928939   5.148   0.695   1.999  0.2669  2.9195  0.8487
   61MOL    H2028940   5.164   0.649   1.753 -1.2710 -0.6489 -0.7956
   61MOL    H2128941   4.718   0.537   2.185 -0.1241  0.2467 -0.2133
   61MOL    H2228942   4.701   0.348   2.312 -0.1308  0.9416  0.0892
   61MOL    H2328943   5.074   0.434   2.511  0.2840 -0.8715 -1.1417
   61MOL    H2428944   5.101   0.644   2.368  0.0937  0.0586  0.9355
   61MOL    H2528945   4.956   0.634   1.620  2.0365  0.0353  0.1074
   61MOL    C2628946   4.800   0.400   2.716 -0.0417 -0.7714  0.7150
   61MOL    C2728947   4.720   0.401   2.831 -0.0800  0.1243  0.2221
   61MOL    C2828948   4.659   0.282   2.883  0.2649 -0.1697  1.3146
   61MOL    C2928949   4.676   0.163   2.810  0.3883  0.4319  0.8581
   61MOL    C3028950   4.743   0.167   2.687 -0.4177 -0.1178  0.5347
   61MOL    C3128951   4.810   0.281   2.640  0.3749 -0.6001  0.1893
   61MOL    S3228952   4.558   0.284   3.027  0.0435  0.2526  0.1385
   61MOL    O3328953   4.500   0.147   3.034  0.1660  0.0217  0.2554
   61MOL    O3428954   4.458   0.391   3.014 -0.1299 -0.9500 -0.1003
   61MOL    C3528955   4.672   0.321   3.154  0.1332  0.3066 -0.1652
   61MOL    C3628956   4.669   0.455   3.204  0.0140 -0.1292  0.1170
   61MOL    C3728957   4.744   0.483   3.323  0.3745  0.3688  0.1507
   61MOL    C3828958   4.830   0.379   3.373  1.0138 -0.2420  0.1318
   61MOL    C3928959   4.830   0.251   3.314  0.2177 -0.5747  0.6793
   61MOL    C4028960   4.751   0.218   3.206  0.1162  0.2460 -0.1446
   61MOL    O4128961   4.900   0.397   3.487 -0.1643 -0.2591 -0.3217
   61MOL    H4228962   4.863   0.486   2.696  0.4061 -0.9913  1.1749
   61MOL    H4328963   4.708   0.488   2.894  0.3619  0.8710 -0.7179
   61MOL    H4428964   4.640   0.066   2.840 -0.1078 -0.3353 -2.1171
   61MOL    H4528965   4.747   0.074   2.631 -1.8995  0.3481 -0.3781
   61MOL    H4628966   4.598   0.521   3.157  0.0886  0.6632  1.1156
   61MOL    H4728967   4.731   0.578   3.373  1.1231  1.1435 -1.0883
   61MOL    H4828968   4.885   0.173   3.365 -1.8545 -1.9946  0.8124
   61MOL    H4928969   4.737   0.113   3.185 -2.2121  0.2623  1.1844
   61MOL    C5028970   5.096   0.482   3.370 -0.2573  0.1178 -0.1643
   61MOL    C5128971   5.209   0.558   3.367 -0.2298 -0.0265  0.2626
   61MOL    C5228972   5.248   0.622   3.488 -1.0942 -0.5293  0.0211
   61MOL    C5328973   5.182   0.596   3.607 -0.3402 -0.4777  0.3592
   61MOL    C5428974   5.060   0.529   3.606 -0.4149 -0.0100  0.1700
   61MOL    C5528975   5.019   0.466   3.491  0.3741 -0.5382  0.2491
   61MOL    S5628976   5.407   0.702   3.485 -0.1575 -0.1636 -0.4227
   61MOL    O5728977   5.385   0.825   3.562  0.2443 -0.7923 -0.1176
   61MOL    O5828978   5.449   0.718   3.345 -0.0079  0.7181 -0.3475
   61MOL    C5928979   5.541   0.605   3.574 -0.1623 -0.1556  0.0080
   61MOL    C6028980   5.668   0.662   3.593  0.1695  0.2107 -0.6481
   61MOL    C6128981   5.768   0.589   3.660 -0.2405 -0.0623  0.0842
   61MOL    C6228982   5.739   0.471   3.725  0.3082 -0.4136  0.5722
   61MOL    C6328983   5.604   0.417   3.725 -0.1903 -0.0197 -0.2012
   61MOL    C6428984   5.513   0.483   3.637  0.3684  1.1205 -0.1735
   61MOL    O6528985   5.849   0.399   3.769  0.1326 -0.7174 -0.2483
   61MOL    H6628986   5.054   0.442   3.278 -1.3939  0.7865  0.0503
   61MOL    H6728987   5.273   0.577   3.282  1.4716  3.0666  2.1669
   61MOL    H6828988   5.232   0.636   3.693  0.5963  3.1314 -1.7588
   61MOL    H6928989   5.009   0.521   3.701 -1.0787 -0.3912 -0.2126
   61MOL    H7028990   5.691   0.755   3.542  0.0686  1.5803  1.7111
   61MOL    H7128991   5.863   0.638   3.673 -0.5977  0.9554 -1.0683
   61MOL    H7228992   5.575   0.328   3.779 -3.6755  0.7154 -0.7237
   61MOL    H7328993   5.412   0.448   3.619  0.6472  0.8185 -1.2294
   61MOL    C7428994   5.945   0.276   3.593 -0.1336  0.2932  0.2435
   61MOL    C7528995   5.966   0.148   3.536 -0.2986 -0.2488 -0.6646
   61MOL    C7628996   5.910   0.030   3.587  0.7320 -0.4016 -0.2506
   61MOL    C7728997   5.838   0.035   3.708  0.1634  0.5426  0.2383
   61MOL    C7828998   5.820   0.163   3.765 -0.3613 -0.3635  0.3405
   61MOL    C7928999   5.872   0.283   3.710  0.1314 -0.1644  0.3179
   61MOL    S8029000   5.929   8.302   3.497 -0.4795 -0.1679  0.0264
   61MOL    O8129001   5.964   8.201   3.594  0.4615 -0.4597 -0.6207
   61MOL    O8229002   6.017   8.336   3.386 -0.2981  0.1392  0.1493
   61MOL    C8329003   5.769   8.265   3.425  0.8301  0.0042 -0.2414
   61MOL    C8429004   5.760   8.166   3.332  0.6611 -0.0041  0.9906
   61MOL    C8529005   5.636   8.127   3.278 -0.4631 -0.0509  0.7850
   61MOL    C8629006   5.524   8.202   3.316  0.1702 -0.4565  0.1275
   61MOL    C8729007   5.530   8.306   3.407  0.0676  0.3351 -0.2261
   61MOL    C8829008   5.650   8.332   3.470  0.2240  0.1266  0.0561
   61MOL    O8929009   5.405   8.158   3.269 -0.1461  0.1554  0.1016
   61MOL    H9029010   5.974   0.366   3.543 -0.7307  0.8684  0.9245
   61MOL    H9129011   6.033   0.148   3.451 -0.0319 -2.5734 -0.5060
   61MOL    H9229012   5.792   8.371   3.748 -0.5211  0.2241 -1.2146
   61MOL    H9329013   5.753   0.183   3.847  2.6976  2.5169  2.2881
   61MOL    H9429014   5.851   8.115   3.304  0.9877 -0.0858  2.1802
   61MOL    H9529015   5.628   8.044   3.210  2.3127  1.4974 -1.5553
   61MOL    H9629016   5.440   8.361   3.431  0.0323  1.5745 -3.0080
   61MOL    H9729017   5.653   8.404   3.550 -0.9129 -0.0437  0.2605
   61MOL    C9829018   5.188   8.220   3.214  0.4698 -0.0835 -1.1335
   61MOL    C9929019   5.108   8.296   3.135  0.4877 -0.2654  0.3628
   61MOL   C10029020   5.152   8.379   3.031  0.4136 -0.1605  0.6501
   61MOL   C10129021   5.293   8.385   3.004  0.2807  0.1355  0.4976
   61MOL   C10229022   5.379   8.304   3.082  0.4128  0.3321 -0.5810
   61MOL   C10329023   5.328   8.232   3.192  0.1649 -0.3273 -0.0361
   61MOL   S10429024   5.035   0.037   2.922 -0.1800  0.0912 -0.0285
   61MOL   O10529025   5.008   0.174   2.958 -0.0984 -0.2461  0.8379
   61MOL   O10629026   4.914   8.381   2.903  0.2357  0.2028  0.6897
   61MOL   C10729027   5.123   0.019   2.768  0.2882 -0.6657 -0.0347
   61MOL   C10829028   5.137   0.132   2.686 -0.0685 -0.2673 -0.0725
   61MOL   C10929029   5.193   0.125   2.556 -0.8955 -0.4973  0.5183
   61MOL   C11029030   5.239   8.420   2.508  0.0329 -0.0126 -0.3200
   61MOL   C11129031   5.233   8.309   2.597  0.2035 -0.1555 -0.6893
   61MOL   C11229032   5.167   8.318   2.722  0.0641  0.1699 -0.6007
   61MOL   O11329033   5.285   8.402   2.382  0.3140  0.1497 -0.2395
   61MOL   H11429034   5.147   8.151   3.286 -0.1355  0.7299 -0.6822
   61MOL   H11529035   5.004   8.282   3.158  0.3301  0.3071  0.0121
   61MOL   H11629036   5.327   0.035   2.934  0.6805  0.5865  1.1707
   61MOL   H11729037   5.485   8.318   3.067  0.7234  0.7226  1.8121
   61MOL   H11829038   5.094   0.225   2.722  3.6970  1.3478  0.5603
   61MOL   H11929039   5.200   0.208   2.487  1.1779 -0.3125  0.9193
   61MOL   H12029040   5.269   8.212   2.567 -1.6071 -0.7028 -1.1244
   61MOL   H12129041   5.167   8.231   2.785  0.9181 -1.6024 -2.9396
   61MOL   C12229042   5.401   0.158   2.272 -0.8828 -0.3901 -0.0783
   61MOL   C12329043   5.519   0.215   2.225 -0.4610  0.2758  0.5154
   61MOL   C12429044   5.641   0.142   2.247  0.5118  0.1294  0.4310
   61MOL   C12529045   5.650   0.028   2.328  1.1069  0.2803  0.8595
   61MOL   C12629046   5.526   8.401   2.371 -0.2996  0.5128 -0.0736
   61MOL   C12729047   5.401   0.038   2.346  0.3292 -0.1046  0.2729
   61MOL   S12829048   5.798   0.217   2.180 -0.2512  0.0485  0.0146
   61MOL   O12929049   5.906   0.175   2.270  0.0719 -0.1924 -0.3245
   61MOL   O13029050   5.771   0.362   2.161 -0.0080  0.7437  0.5910
   61MOL   C13129051   5.815   0.150   2.010 -0.0611  0.0220 -0.6026
   61MOL   C13229052   5.945   0.096   1.982 -0.3694  0.0213  0.6367
   61MOL   C13329053   5.965   0.039   1.852  0.2940 -0.8056  0.2545
   61MOL   C13429054   5.868   0.055   1.751  0.0514 -0.1514  0.5446
   61MOL   C13529055   5.737   0.115   1.782 -0.5110  0.1563 -0.0311
   61MOL   C13629056   5.710   0.158   1.916  0.3843  0.0921  0.7365
   61MOL   O13729057   5.906   0.020   1.619  0.3095  0.8112 -0.4045
   61MOL   H13829058   5.306   0.209   2.259 -0.2276  1.4625  2.0741
   61MOL   H13929059   5.507   0.304   2.165  0.4149  0.0619  0.0114
   61MOL   H14029060   5.739   8.392   2.330  0.7906 -0.1654  1.4044
   61MOL   H14129061   5.527   8.302   2.415  0.4638  0.7824  0.5271
   61MOL   H14229062   6.024   0.104   2.055 -0.1454 -2.2683  0.6624
   61MOL   H14329063   6.068   0.011   1.834  1.4890  3.1111  0.3201
   61MOL   H14429064   5.661   0.123   1.706 -1.5395  1.1932  1.0842
   61MOL   H14529065   5.618   0.211   1.937 -0.4367  0.3079 -2.9466
   61MOL   C14629066   5.770   8.230   1.616 -0.4363  0.0458  0.3268
   61MOL   C14729067   5.692   8.145   1.537  0.2266 -0.0229 -1.0261
   61MOL   C14829068   5.686   8.159   1.398 -0.2213  0.2989 -0.1710
   61MOL   C14929069   5.760   8.261   1.342  0.4617 -0.2512  0.6104
   61MOL   C15029070   5.837   8.346   1.421  0.9269 -0.0005  0.4314
   61MOL   C15129071   5.840   8.338   1.559 -0.0826 -0.5345  0.4197
   61MOL   S15229072   5.590   8.045   1.305  0.2909  0.2996 -0.0718
   61MOL   O15329073   5.523   7.949   1.396  0.6422 -0.2156 -0.0022
   61MOL   O15429074   5.660   7.986   1.192  0.0831  0.1463  0.3956
   61MOL   C15529075   5.464   8.151   1.233  0.4633  0.2175 -0.6945
   61MOL   C15629076   5.396   8.253   1.307 -0.6752  0.0401  1.3130
   61MOL   C15729077   5.314   8.344   1.238 -0.2211  0.0872 -0.2929
   61MOL   C15829078   5.291   8.329   1.101 -0.0049  0.4374 -0.3531
   61MOL   C15929079   5.353   8.225   1.033  0.7515 -0.2969  0.4156
   61MOL   C16029080   5.440   8.133   1.099 -0.0875 -0.2420 -0.5628
   61MOL   O16129081   5.208   8.415   1.019  0.4542  0.1651 -0.4319
   61MOL   H16229082   5.782   8.220   1.723 -0.4855 -0.2501  0.3030
   61MOL   H16329083   5.635   8.064   1.580  1.6896 -1.3395 -1.5444
   61MOL   H16429084   5.749   8.273   1.235  1.0008  1.6258  0.7611
   61MOL   H16529085   5.894   0.001   1.377  2.1724  0.0066  2.0141
   61MOL   H16629086   5.415   8.272   1.412 -0.1143 -0.8391  1.3766
   61MOL   H16729087   5.268   8.423   1.296 -0.6475  0.9841 -1.8335
   61MOL   H16829088   5.341   8.210   0.927  0.5200 -2.3321  0.6909
   61MOL   H16929089   5.490   8.063   1.034  0.6185  0.7283 -1.0700
   61MOL   C17029090   5.110   0.195   1.053 -0.5452  0.3108  0.4130
   61MOL   C17129091   5.115   0.337   1.074 -0.0355 -0.3646 -0.0471
   61MOL   C17229092   5.239   0.403   1.060 -0.3627  1.0102 -0.2861
   61MOL   C17329093   5.357   0.328   1.039 -0.2884  0.9534 -0.2755
   61MOL   C17429094   5.352   0.190   1.019  0.6789  0.0489 -0.3826
   61MOL   C17529095   5.226   0.125   1.029 -0.1390  0.4185 -0.4470
   61MOL   S17629096   5.239   0.583   1.066 -0.3749 -0.2069  0.4142
   61MOL   O17729097   5.103   0.619   1.113 -0.3678  0.1509  0.3233
   61MOL   O17829098   5.299   0.638   0.945 -0.1507  0.0348 -0.3122
   61MOL   C17929099   5.356   0.625   1.203 -0.3528  0.0241  0.9693
   61MOL   C18029100   5.472   0.690   1.172  0.0985  0.1728 -0.7176
   61MOL   C18129101   5.564   0.719   1.273 -0.5420 -0.3687 -0.0785
   61MOL   C18229102   5.541   0.670   1.405 -0.2891  0.4585  0.1437
   61MOL   C18329103   5.414   0.624   1.440  0.4073 -0.0002 -0.1103
   61MOL   C18429104   5.325   0.588   1.337  0.1576 -0.0177  0.3757
   61MOL   O18529105   5.639   0.688   1.491 -1.2608 -0.1387 -0.1627
   61MOL   H18629106   5.014   0.146   1.049  1.5456 -4.3078  2.2797
   61MOL   H18729107   5.018   0.385   1.082  0.9375  1.1985  3.1634
   61MOL   H18829108   5.454   0.372   1.022 -0.3916  1.1637 -0.3219
   61MOL   H18929109   5.443   0.141   0.989  1.2733  1.2942 -0.6547
   61MOL   H19029110   5.485   0.727   1.072  0.1841  2.6433  0.1527
   61MOL   H19129111   5.655   0.764   1.238 -0.4269 -0.0012  0.6796
   61MOL   H19229112   5.383   0.594   1.539 -0.5437 -0.2146 -0.4617
   61MOL   H19329113   5.230   0.552   1.374 -0.3375  2.0077  1.1585
   61MOL   C19429114   5.872   0.649   1.509  0.7586 -0.3153 -0.5576
   61MOL   C19529115   5.986   0.566   1.495  0.4375 -0.0873  0.7387
   61MOL   C19629116   5.960   0.425   1.474  0.5995  0.8388 -0.4871
   61MOL   C19729117   5.829   0.370   1.490  0.3997  0.3423 -0.6035
   61MOL   C19829118   5.719   0.459   1.490 -0.0472 -0.1175  0.4112
   61MOL   C19929119   5.740   0.600   1.497  0.1987  0.7465  0.3495
   61MOL   S20029120   6.104   0.313   1.467 -0.0420 -0.1145  0.4171
   61MOL   O20129121   6.079   0.198   1.374  0.1337 -0.0464 -0.1662
   61MOL   O20229122   6.133   0.284   1.608  0.8705  0.2923 -0.0228
   61MOL   C20329123   6.224   0.418   1.399 -0.0640  0.8347 -1.1456
   61MOL   C20429124   6.354   0.419   1.470  0.1212  0.2596  0.4422
   61MOL   C20529125   6.447   0.510   1.424 -0.3749 -0.2897 -1.0892
   61MOL   C20629126   6.420   0.596   1.318 -0.1971 -0.2296 -0.4288
   61MOL   C20729127   6.299   0.583   1.243  0.2306  0.1399 -0.0020
   61MOL   C20829128   6.200   0.495   1.288  0.1235  0.5015  0.0008
   61MOL   O20929129   6.519   0.687   1.278 -0.1368 -0.8305 -0.0824
   61MOL   H21029130   5.880   0.754   1.534 -0.2044 -0.0190 -1.4603
   61MOL   H21129131   6.086   0.607   1.496  0.9283 -1.2527  0.2764
   61MOL   H21229132   5.818   0.265   1.470 -0.7990  0.2766  0.3607
   61MOL   H21329133   5.620   0.415   1.485 -1.3814  2.8312 -0.2266
   61MOL   H21429134   6.362   0.354   1.556 -0.5649  0.4010  0.6185
   61MOL   H21529135   6.534   0.515   1.488 -2.0342 -0.0938  1.2196
   61MOL   H21629136   6.289   0.641   1.153  0.6052  0.7997  0.3765
   61MOL   H21729137   6.116   0.474   1.224 -0.0036  1.2272 -0.0716
   61MOL   C21829138   6.610   0.585   1.084 -0.0989 -0.8847 -0.2605
   61MOL   C21929139   6.723   0.544   1.009 -0.3799 -0.1645 -0.2468
   61MOL   C22029140   6.848   0.549   1.067 -1.2741 -0.2997  0.6950
   61MOL   C22129141   6.868   0.593   1.199  0.5700  0.3066  0.1173
   61MOL   C22229142   6.757   0.630   1.270  0.5806  0.2447 -0.6063
   61MOL   C22329143   6.624   0.629   1.217 -0.8327  0.0430  0.2430
   61MOL   S22429144   6.989   0.490   0.976  0.3849 -0.2190  0.3022
   61MOL   O22529145   6.935   0.444   0.847 -0.8145 -0.7695  0.6149
   61MOL   O22629146   7.064   0.402   1.068 -0.2663  1.1346  0.4969
   61MOL   C22729147   7.084   0.642   0.950 -1.2574 -0.9617  0.7852
   61MOL   C22829148   7.221   0.632   0.934  0.0046  0.8308  0.3701
   61MOL   C22929149   7.305   0.743   0.938  0.6691  0.0438  0.4100
   61MOL   C23029150   7.247   0.870   0.951 -0.1981  0.0050 -1.0455
   61MOL   C23129151   7.111   0.883   0.969 -0.3808 -0.2126  0.8344
   61MOL   C23229152   7.030   0.772   0.956 -0.3642  0.2598 -0.4282
   61MOL   O23329153   7.331   0.980   0.950 -0.0923  0.3488  0.2422
   61MOL   H23429154   6.520   0.586   1.025 -1.0697 -2.5917  1.1586
   61MOL   H23529155   6.694   0.515   0.909 -3.4070 -0.9960  0.8167
   61MOL   H23629156   6.968   0.604   1.239  0.8345 -1.0387 -0.1652
   61MOL   H23729157   6.760   0.664   1.372  1.9940  0.7786 -0.8172
   61MOL   H23829158   7.267   0.536   0.919 -3.6509 -1.2169  1.5480
   61MOL   H23929159   7.412   0.735   0.926  0.5857 -0.2579 -0.1646
   61MOL   H24029160   7.072   0.984   0.966  0.3313  0.0294 -0.7199
   61MOL   H24129161   6.922   0.782   0.956 -0.1819  2.4629  0.4392
   61MOL   C24229162   7.393   0.938   1.185  0.0102 -0.0596 -0.3117
   61MOL   C24329163   7.474   0.972   1.290  0.0524 -0.0233 -0.1122
   61MOL   C24429164   7.566   1.083   1.273  0.1647  0.0691  0.3944
   61MOL   C24529165   7.569   1.149   1.149 -0.0366  0.4400  0.1212
   61MOL   C24629166   7.482   1.122   1.047  0.4266  0.2927  0.3486
   61MOL   C24729167   7.407   1.005   1.062  0.0778  0.3608 -0.5119
   61MOL   S24829168   7.681   1.124   1.403 -0.5473  0.3616 -0.2118
   61MOL   O24929169   7.682   1.015   1.500 -0.2330  0.4301  0.6276
   61MOL   O25029170   7.647   1.255   1.447 -0.1727 -0.0217 -0.5590
   61MOL   C25129171   7.841   1.141   1.320  0.1011  0.8912 -1.0492
   61MOL   C25229172   7.876   1.258   1.254 -0.2856  0.0613  0.1193
   61MOL   C25329173   7.998   1.263   1.185 -0.5406  0.3935  0.1113
   61MOL   C25429174   8.088   1.158   1.187 -0.0665  0.1019 -0.0078
   61MOL   C25529175   8.056   1.037   1.256 -0.0509 -0.1913  0.6055
   61MOL   C25629176   7.928   1.033   1.316 -0.9128 -0.0767 -0.2765
   61MOL   O25729177   8.209   1.173   1.128  0.4030 -0.4720 -0.3934
   61MOL   H25829178   7.324   0.855   1.196 -1.3679  0.9543 -1.0646
   61MOL   H25929179   7.467   0.913   1.380 -1.3779  1.4741  0.7927
   61MOL   H26029180   7.623   1.242   1.143 -2.8942  2.0779 -1.3686
   61MOL   H26129181   7.503   1.180   0.959  1.3817  1.0774  1.0764
   61MOL   H26229182   7.812   1.345   1.250 -1.6298 -0.9649 -1.3418
   61MOL   H26329183   8.026   1.360   1.146  0.4839  0.3089  0.5968
   61MOL   H26429184   8.124   0.954   1.263 -1.2555 -1.1156  1.4351
   61MOL   H26529185   7.904   0.943   1.371 -0.5259 -0.8553 -1.3634
   61MOL   C26629186   8.170   1.127   0.898 -0.3596  0.0955 -0.0213
   61MOL   C26729187   8.200   1.062   0.778  0.8504 -0.4381  0.1790
   61MOL   C26829188   8.323   0.987   0.770  0.0405  0.4441  0.0105
   61MOL   C26929189   8.401   0.967   0.884  0.4551  0.2104  0.2412
   61MOL   C27029190   8.359   1.025   1.005 -0.0408  0.5755 -0.0262
   61MOL   C27129191   8.246   1.110   1.012  0.0820  0.0522 -0.0725
   61MOL   S27229192   8.379   0.933   0.615 -0.5614 -0.4173 -0.1239
   61MOL   O27329193   0.070   0.852   0.653 -0.0324 -0.3186  0.2009
   61MOL   O27429194   8.390   1.049   0.525 -0.5483 -0.2519 -0.1627
   61MOL   C27529195   8.263   0.818   0.542  0.1927  0.5748  0.4262
   61MOL   C27629196   8.249   0.814   0.398 -0.3221  0.0925  0.5763
   61MOL   C27729197   8.141   0.733   0.351 -0.0808  0.2564 -0.0318
   61MOL   C27829198   8.047   0.664   0.436  0.0127  0.3433 -0.0715
   61MOL   C27929199   8.082   0.662   0.577 -0.3442 -0.5064 -0.2177
   61MOL   C28029200   8.182   0.743   0.625  0.2428 -1.1701 -0.3614
   61MOL   O28129201   7.942   0.596   0.384  0.3599  0.3593 -0.3248
   61MOL   H28229202   8.086   1.195   0.894  0.2104  0.7984 -0.1619
   61MOL   H28329203   8.136   1.074   0.692 -0.2181 -0.3795  0.9726
   61MOL   H28429204   0.068   0.911   0.890  0.4982  0.3394  0.8559
   61MOL   H28529205   8.414   1.005   1.096  0.1538  1.4671  0.0613
   61MOL   H28629206   8.303   0.884   0.337  1.3612 -0.8294  0.9673
   61MOL   H28729207   8.115   0.734   0.246 -1.6105  1.4150  0.3410
   61MOL   H28829208   8.029   0.595   0.642  0.4419 -0.4339  0.5047
   61MOL   H28929209   8.187   0.753   0.733  0.0286 -0.6808 -0.3971
   61MOL   C29029210   7.805   0.795   0.386  0.1761  0.3509  0.4573
   61MOL   C29129211   7.687   0.856   0.347  0.5809 -0.2971 -0.7110
   61MOL   C29229212   7.617   0.808   0.239  0.7941  0.3308 -0.1893
   61MOL   C29329213   7.651   0.686   0.178 -0.3303  0.3919  0.1024
   61MOL   C29429214   7.766   0.619   0.221  0.1861 -0.3787  0.2143
   61MOL   C29529215   7.839   0.674   0.329 -0.6407  0.2309  0.5551
   61MOL   S29629216   7.474   0.893   0.191 -0.0479 -0.0938  0.0894
   61MOL   O29729217   7.419   0.963   0.307  0.3059 -0.5362  0.0032
   61MOL   O29829218   7.384   0.801   0.119 -0.4745  0.0913 -0.6313
   61MOL   C29929219   7.514   1.013   0.058  0.4578  0.0180  0.2426
   61MOL   C30029220   7.463   0.997   8.355  0.3600 -1.0207 -0.5163
   61MOL   C30129221   7.484   1.094   8.260  0.5645 -0.4386  0.2291
   61MOL   C30229222   7.550   1.212   8.289  0.4506 -1.0030 -1.1130
   61MOL   C30329223   7.606   1.227   8.412 -0.4172  0.3627 -0.0316
   61MOL   C30429224   7.588   1.132   0.091  0.3900  0.9067  0.2140
   61MOL   O30529225   7.571   1.308   8.198  0.3638 -0.4288 -0.0776
   61MOL   H30629226   7.858   0.827   0.474 -1.4815  3.4585  0.4031
   61MOL   H30729227   7.656   0.944   0.401  1.8460 -0.4844  0.3501
   61MOL   H30829228   7.587   0.639   0.105 -0.2622  1.4825 -0.6634
   61MOL   H30929229   7.789   0.521   0.183 -1.2647 -0.5165 -0.3188
   61MOL   H31029230   7.403   0.910   8.332 -0.2706 -1.1171  1.4150
   61MOL   H31129231   7.445   1.079   8.160 -2.3245  2.8346  0.7354
   61MOL   H31229232   7.673   1.308   0.013 -0.6338  0.1740  1.1530
   61MOL   H31329233   7.631   1.140   0.189  2.9441 -0.0174 -0.7819
   61MOL   C31429234   7.394   1.454   8.288 -0.3747 -0.0869  0.5685
   61MOL   C31529235   7.314   1.567   8.272 -0.2759 -0.0415  0.6443
   61MOL   C31629236   7.309   1.634   8.148  0.1571  0.2891  0.4063
   61MOL   C31729237   7.397   1.592   8.040  0.0174 -0.3679  0.4513
   61MOL   C31829238   7.484   1.485   8.062  0.9754  0.4905 -0.0823
   61MOL   C31929239   7.480   1.407   8.182 -0.6897 -0.1772 -0.5475
   61MOL   S32029240   7.203   1.780   8.129  0.1911 -0.3257 -0.0332
   61MOL   O32129241   7.102   1.776   8.236 -0.2112  0.6687 -0.1768
   61MOL   O32229242   7.165   1.803   7.991 -0.1072  0.5705  0.3000
   61MOL   C32329243   7.308   1.913   8.173  0.4268  0.4732  0.0234
   61MOL   C32429244   7.261   2.044   8.141  0.8325  0.4091  0.3784
   61MOL   C32529245   7.340   2.159   8.172 -0.5135  0.0823  0.3014
   61MOL   C32629246   7.463   2.140   8.239 -0.4736  0.0757  0.8928
   61MOL   C32729247   7.506   2.010   8.273 -0.4476  0.1846 -0.1103
   61MOL   C32829248   7.435   1.897   8.232  0.2254 -0.1396 -0.1304
   61MOL   O32929249   7.544   2.246   8.278 -0.7747 -0.4650 -0.5321
   61MOL   H33029250   7.392   1.413   8.388 -2.4085  0.5790  0.8168
   61MOL   H33129251   7.244   1.598   8.349 -0.3089 -0.7573  0.9106
   61MOL   H33229252   7.395   1.655   7.953  0.1142  1.0117  1.4328
   61MOL   H33329253   7.544   1.449   7.980  0.0874 -0.7496 -0.1869
   61MOL   H33429254   7.162   2.049   8.098  1.2999  1.9381 -0.5698
   61MOL   H33529255   7.305   2.259   8.152 -0.1659 -0.0289 -0.9100
   61MOL   H33629256   7.600   1.994   8.323 -0.3119  0.6790 -0.2132
   61MOL   H33729257   7.465   1.796   8.256  0.1247 -0.0950  0.1791
   61MOL   C33829258   7.585   2.358   8.071 -0.4750  0.2075 -0.1092
   61MOL   C33929259   7.588   2.478   7.996 -0.1049 -0.0475 -0.5727
   61MOL   C34029260   7.542   2.598   8.059  0.0350  0.8216 -0.3995
   61MOL   C34129261   7.499   2.601   8.194 -0.7907 -0.0802  0.5116
   61MOL   C34229262   7.503   2.479   8.270 -1.6349  0.4143 -0.0125
   61MOL   C34329263   7.543   2.361   8.206 -0.1874 -0.1247 -0.0051
   61MOL   S34429264   7.526   2.744   7.948 -0.2708  0.0199  0.2218
   61MOL   O34529265   7.615   2.717   7.831 -0.4376 -0.0855 -0.0117
   61MOL   O34629266   7.541   2.871   8.021  0.4820  0.3792 -0.3668
   61MOL   C34729267   7.361   2.750   7.883  0.2114  0.4257  0.2817
   61MOL   C34829268   7.261   2.682   7.954  0.1502  0.1867 -0.3876
   61MOL   C34929269   7.129   2.684   7.906 -0.3939  0.5753 -0.4914
   61MOL   C35029270   7.095   2.759   7.792  0.1504  0.6260 -0.1068
   61MOL   C35129271   7.199   2.822   7.725 -0.4482 -0.3918  0.2152
   61MOL   C35229272   7.332   2.820   7.764  0.1877 -0.2163 -0.3713
   61MOL   O35329273   6.967   2.777   7.751  0.0041 -0.1266 -0.6339
   61MOL   H35429274   7.618   2.267   8.023  1.7890 -0.2599  2.2009
   61MOL   H35529275   7.614   2.477   7.891 -1.8920 -0.2893 -1.0274
   61MOL   H35629276   7.472   2.698   8.235  0.5226  2.0496 -3.4712
   61MOL   H35729277   7.489   2.481   8.377  1.0642  1.2880  0.3487
   61MOL   H35829278   7.278   2.622   8.042 -2.0874  0.9981  0.6305
   61MOL   H35929279   7.052   2.627   7.955  1.1071 -2.3765 -1.4468
   61MOL   H36029280   7.164   2.895   7.654 -2.2702  0.6690  2.1417
   61MOL   H36129281   7.412   2.878   7.721  0.4286 -0.5533 -0.3785
   61MOL   C36229282   6.883   2.991   7.787  0.5972 -0.0650  0.4394
   61MOL   C36329283   6.798   3.085   7.848  0.0174 -0.1262 -0.6281
   61MOL   C36429284   6.724   3.033   7.962  0.5460 -0.1004  0.6622
   61MOL   C36529285   6.739   2.900   8.011 -0.0172 -0.4125  0.5791
   61MOL   C36629286   6.815   2.813   7.936 -0.4604  0.0329  0.0570
   61MOL   C36729287   6.882   2.862   7.820 -0.2770  0.3453  0.1768
   61MOL   S36829288   6.614   3.136   8.053  0.0693  0.4232 -0.1949
   61MOL   O36929289   6.691   3.181   8.173  0.1030  0.3024  0.3406
   61MOL   O37029290   6.484   3.073   8.076  0.1445 -0.0973 -0.2577
   61MOL   C37129291   6.578   3.277   7.957 -0.4488 -0.6245  0.1075
   61MOL   C37229292   6.604   3.411   8.009  0.3129  0.2224  0.2552
   61MOL   C37329293   6.577   3.520   7.926 -0.0769  0.5049  0.4391
   61MOL   C37429294   6.530   3.500   7.793  0.0959 -0.2461  0.1956
   61MOL   C37529295   6.499   3.375   7.745 -0.0618  0.3532  0.6807
   61MOL   C37629296   6.531   3.262   7.824  0.1979  0.4313  0.4032
   61MOL   O37729297   6.492   3.609   7.719  0.6127 -0.0012 -0.5074
   61MOL   H37829298   6.947   3.029   7.708  1.4056  0.9532  1.5529
   61MOL   H37929299   6.795   3.188   7.816 -0.1819 -0.5389 -1.9313
   61MOL   H38029300   6.680   2.880   8.099 -1.1563  0.6818  0.0777
   61MOL   H38129301   6.817   2.711   7.970  1.7956  0.7696  2.2371
   61MOL   H38229302   6.650   3.424   8.106  1.8717 -1.1817 -0.2618
   61MOL   H38329303   6.594   3.621   7.961 -2.2745  0.1557  2.6278
   61MOL   H38429304   6.452   3.354   7.649  0.1800 -0.2307  0.6857
   61MOL   H38529305   6.498   3.170   7.777 -1.7074  1.4617 -0.3675
   61MOL   C38629306   6.636   3.785   7.645  0.0432  0.5568 -0.1367
   61MOL   C38729307   6.728   3.848   7.549 -0.1197  0.0329  0.4491
   61MOL   C38829308   6.755   3.770   7.435 -0.2831  0.4948 -0.1249
   61MOL   C38929309   6.702   3.637   7.416  0.9304  0.4499  0.2303
   61MOL   C39029310   6.615   3.587   7.512  0.3947 -0.0493  0.4964
   61MOL   C39129311   6.582   3.655   7.625  0.3841  0.4117 -0.0736
   61MOL   S39229312   6.860   3.854   7.302  0.0805 -0.3524 -0.0657
   61MOL   O39329313   6.805   3.990   7.283  0.2476 -0.2281  0.1115
   61MOL   O39429314   6.860   3.766   7.184  0.2006  0.2989  0.3710
   61MOL   C39529315   7.019   3.878   7.375  0.3531  0.3107  0.7203
   61MOL   C39629316   7.129   3.798   7.346  0.2286  0.3488  0.3797
   61MOL   C39729317   7.258   3.833   7.390  0.4697  0.4766  0.2457
   61MOL   C39829318   7.280   3.942   7.480  0.0374 -0.3294 -0.5029
   61MOL   C39929319   7.165   4.017   7.524 -0.0084  0.2903 -0.9464
   61MOL   C40029320   7.034   3.992   7.464  0.5647  0.6436  0.5706
   61MOL   O40129321   7.410   3.968   7.527 -0.1045  0.3164 -0.1809
   61MOL   H40229322   6.600   3.844   7.728 -1.2005 -0.0555 -0.2446
   61MOL   H40329323   6.769   3.947   7.564  4.6087 -1.8252  0.6336
   61MOL   H40429324   6.718   3.587   7.322  0.1121 -0.6309  0.6620
   61MOL   H40529325   6.564   3.494   7.492  1.7456 -0.7366  0.2495
   61MOL   H40629326   7.109   3.710   7.286  2.5059 -1.2177  1.8516
   61MOL   H40729327   7.344   3.776   7.360 -0.2029 -1.0977  1.2518
   61MOL   H40829328   7.186   4.105   7.582 -1.4754  0.1879 -0.2386
   61MOL   H40929329   6.947   4.056   7.466  0.3030  0.3195 -0.3891
   61MOL   C41029330   7.481   4.198   7.482 -0.4332 -0.3917 -0.0067
   61MOL   C41129331   7.511   4.328   7.528  0.2253 -0.4766  0.3115
   61MOL   C41229332   7.504   4.350   7.668  0.5950  0.1675 -0.1821
   61MOL   C41329333   7.466   4.247   7.752 -0.2284 -0.1825  0.0293
   61MOL   C41429334   7.446   4.118   7.706 -0.2390  0.4749  0.3251
   61MOL   C41529335   7.446   4.093   7.568 -0.2855 -0.5593 -0.5126
   61MOL   S41629336   7.522   4.517   7.730  0.1827 -0.0288  0.0732
   61MOL   O41729337   7.618   4.587   7.643  0.5915 -0.1559  0.2661
   61MOL   O41829338   7.538   4.507   7.879 -0.5416 -0.0212  0.1459
   61MOL   C41929339   7.365   4.597   7.706 -0.8366  0.7395  0.2669
   61MOL   C42029340   7.357   4.735   7.684  0.0883 -0.1438 -0.4554
   61MOL   C42129341   7.234   4.797   7.662 -0.3104 -0.7612 -0.2306
   61MOL   C42229342   7.116   4.722   7.671  0.7648  1.0567 -0.1416
   61MOL   C42329343   7.126   4.580   7.697 -0.3638  0.0191  0.2035
   61MOL   C42429344   7.250   4.518   7.711  0.6252 -0.5145 -0.2693
   61MOL   O42529345   6.987   4.779   7.659  0.3822 -0.3703  0.1270
   61MOL   H42629346   7.485   4.180   7.375  0.7706  1.4880 -0.2975
   61MOL   H42729347   7.535   4.407   7.457 -3.7220  1.4440  1.0156
   61MOL   H42829348   7.464   4.271   7.858 -1.0753  0.2599 -0.0778
   61MOL   H42929349   7.418   4.041   7.776 -1.4002  2.7340  2.4345
   61MOL   H43029350   7.454   4.783   7.681  0.2788 -0.3447  1.9457
   61MOL   H43129351   7.235   4.899   7.626  0.4988 -0.6135  0.1914
   61MOL   H43229352   7.041   4.514   7.706 -0.1614 -0.4581 -1.1823
   61MOL   H43329353   7.258   4.411   7.727  0.5514 -0.7551 -1.7588
   61MOL   C43429354   6.814   4.707   7.804 -0.3455 -0.1484  0.0489
   61MOL   C43529355   6.748   4.732   7.924  0.4347  0.9065 -0.2746
   61MOL   C43629356   6.791   4.833   8.012  0.0487  0.5129 -0.5287
   61MOL   C43729357   6.900   4.914   7.987  0.1066  0.0545 -0.3213
   61MOL   C43829358   6.959   4.902   7.862  0.7626 -0.6091  0.8870
   61MOL   C43929359   6.916   4.797   7.775  0.1659  0.5292  0.0211
   61MOL   S44029360   6.718   4.831   8.173 -0.1291 -0.3144  0.2526
   61MOL   O44129361   6.749   4.960   8.226 -0.1926 -0.4095 -0.5371
   61MOL   O44229362   6.775   4.707   8.228  0.2224  0.4340 -0.8322
   61MOL   C44329363   6.547   4.821   8.134  0.5593 -0.0372 -0.0689
   61MOL   C44429364   6.470   4.702   8.160  0.2414 -0.1752  0.1995
   61MOL   C44529365   6.328   4.703   8.117 -0.0848  1.2339 -0.2876
   61MOL   C44629366   6.273   4.811   8.047 -0.5644 -0.5732  0.0395
   61MOL   C44729367   6.356   4.926   8.025  0.0124  0.2505  0.1099
   61MOL   C44829368   6.489   4.933   8.073 -0.1896 -0.4921  0.1816
   61MOL   O44929369   6.144   4.809   8.007  0.6563 -0.4103  0.2287
   61MOL   H45029370   6.780   4.630   7.737  0.1821 -0.2689 -0.0814
   61MOL   H45129371   6.666   4.670   7.955  0.4159  0.9083 -0.3211
   61MOL   H45229372   6.918   4.989   8.062 -0.4976 -0.3845  0.2632
   61MOL   H45329373   7.029   4.979   7.834 -0.6309  0.7875  1.1185
   61MOL   H45429374   6.503   4.609   8.203 -0.2740  0.4790  2.0589
   61MOL   H45529375   6.267   4.621   8.151  1.2782  0.7078  0.9446
   61MOL   H45629376   6.319   5.008   7.966  1.3205  1.5371  1.0279
   61MOL   H45729377   6.554   5.016   8.051 -1.7353  0.4898 -0.7926
   61MOL   C45829378   6.007   4.995   7.958  0.0793 -0.0435  0.1066
   61MOL   C45929379   5.916   5.095   8.001 -0.1697  0.4212 -0.6405
   61MOL   C46029380   5.875   5.108   8.134  0.6555 -0.2391  0.0380
   61MOL   C46129381   5.917   5.010   8.228 -0.3935 -0.5263  0.0911
   61MOL   C46229382   6.014   4.913   8.189  0.2788 -0.2348  0.7190
   61MOL   C46329383   6.052   4.906   8.053  0.1582  0.0851 -0.5698
   61MOL   S46429384   5.785   5.257   8.176  0.2854 -0.0923  0.1329
   61MOL   O46529385   5.704   5.307   8.062 -0.3617 -0.3446 -0.0684
   61MOL   O46629386   5.891   5.342   8.227  0.5446 -0.4489 -0.3624
   61MOL   C46729387   5.690   5.210   8.321  0.0977  0.2970  0.6989
   61MOL   C46829388   5.736   5.238   0.029  0.3183 -0.6518  0.4046
   61MOL   C46929389   5.643   5.229   0.138 -0.2582  0.4459  0.7416
   61MOL   C47029390   5.515   5.176   0.107  0.2246  0.0314  0.4105
   61MOL   C47129391   5.478   5.149   8.401  0.5975 -0.6765  0.0431
   61MOL   C47229392   5.561   5.166   8.292 -0.5334 -0.9394  0.1352
   61MOL   O47329393   5.426   5.158   0.209  1.2978 -0.0797  0.0778
   61MOL   H47429394   6.044   4.993   7.857  1.9546 -1.5699  0.7932
   61MOL   H47529395   5.879   5.154   7.919 -1.2175 -1.3381 -1.4586
   61MOL   H47629396   5.877   5.013   8.328 -0.4846 -1.4674  0.0869
   61MOL   H47729397   6.063   4.847   8.259  2.0379 -0.1204 -0.3718
   61MOL   H47829398   5.833   5.280   0.050 -0.9724  1.8120  1.6130
   61MOL   H47929399   5.662   5.246   0.242  2.4928 -3.1841  0.9267
   61MOL   H48029400   5.378   5.117   8.375 -0.2191  1.0699  0.9252
   61MOL   H48129401   5.533   5.159   8.188 -2.4883 -0.6218  0.6147
   61MOL   H48229402   5.346   5.113   0.185  0.0912  1.9923  0.1203
   62MOL     C129403   5.987   1.093   3.424  0.4957  0.8907  0.4207
   62MOL     C229404   6.054   1.007   3.334  0.4537  0.0456 -0.8178
   62MOL     C329405   6.159   0.926   3.384 -0.0609  0.7342 -0.5724
   62MOL     C429406   6.212   0.941   3.514 -0.1300  0.3050  0.0375
   62MOL     C529407   6.155   1.036   3.602  0.1013 -0.6146 -0.0843
   62MOL     C629408   6.042   1.107   3.557  0.4786 -0.2631  0.1571
   62MOL     S729409   6.203   0.774   3.293  0.0700  0.1337  0.4132
   62MOL     O829410   6.240   0.665   3.387  0.1159 -0.4704 -0.1002
   62MOL     O929411   6.300   0.813   3.191  0.5507  0.3372 -1.0712
   62MOL    C1029412   6.059   0.714   3.197  0.3273  0.3044 -0.2061
   62MOL    C1129413   6.074   0.670   3.068 -0.3295  0.0168  0.7159
   62MOL    C1229414   5.964   0.629   2.988  0.4341 -0.0048  0.0306
   62MOL    C1329415   5.842   0.613   3.051  0.2098  0.1648  0.2177
   62MOL    C1429416   5.820   0.655   3.186  0.2523  0.1399 -1.1003
   62MOL    C1529417   5.932   0.715   3.256  0.4068  0.5590 -0.5877
   62MOL    O1629418   5.743   0.560   2.970 -0.3157  0.0137  0.3751
   62MOL    H1729419   5.908   1.153   3.382  0.2926  0.6227  0.4245
   62MOL    H1829420   6.011   0.999   3.235 -1.8147  0.2861  0.1116
   62MOL    H1929421   6.292   0.880   3.553  0.3784  0.4011 -0.8448
   62MOL    H2029422   6.206   1.045   3.697  0.0204  2.6148 -0.3006
   62MOL    H2129423   6.177   0.678   3.037 -0.4194  0.1323  0.4455
   62MOL    H2229424   5.974   0.608   2.882  0.7234  1.5771 -0.2565
   62MOL    H2329425   5.723   0.652   3.231  1.1870  3.4700  1.2760
   62MOL    H2429426   5.922   0.736   3.361 -0.6452  0.3529 -0.6314
   62MOL    H2529427   6.008   1.197   3.606  0.2730  0.0276 -0.5187
   62MOL    C2629428   5.548   0.700   2.970 -0.3317 -0.2594  0.1566
   62MOL    C2729429   5.461   0.781   2.897 -0.1628 -0.5625 -0.0371
   62MOL    C2829430   5.478   0.808   2.759 -0.2220 -0.7023 -0.4271
   62MOL    C2929431   5.580   0.746   2.690 -0.0914  1.1149 -1.0063
   62MOL    C3029432   5.676   0.670   2.767  0.0039  0.3558  0.5292
   62MOL    C3129433   5.658   0.643   2.905  0.0433  0.1067 -0.0703
   62MOL    S3229434   5.348   0.899   2.669  0.0662 -0.1908  0.0697
   62MOL    O3329435   5.295   0.999   2.768  0.1399 -0.2216  0.5851
   62MOL    O3429436   5.257   0.803   2.609 -0.1980  0.0167 -0.5914
   62MOL    C3529437   5.418   0.993   2.534 -0.0527 -0.5108  0.4914
   62MOL    C3629438   5.391   0.975   2.398 -0.3378 -0.2776 -0.1532
   62MOL    C3729439   5.449   1.061   2.299 -0.2308  0.2955  0.2415
   62MOL    C3829440   5.538   1.163   2.340  0.4498  0.4454  0.4346
   62MOL    C3929441   5.563   1.179   2.477 -0.1367 -0.0765  0.7068
   62MOL    C4029442   5.504   1.097   2.576 -0.0972  0.4397 -0.0312
   62MOL    O4129443   5.598   1.249   2.252  0.1323  0.2199 -0.6009
   62MOL    H4229444   5.533   0.674   3.074 -2.7642 -0.0499 -0.1288
   62MOL    H4329445   5.380   0.827   2.953 -1.0310  0.0849 -1.7812
   62MOL    H4429446   5.594   0.755   2.583  1.1144  1.4248 -0.8292
   62MOL    H4529447   5.758   0.622   2.714 -1.4705 -1.1073 -0.4773
   62MOL    H4629448   5.328   0.894   2.363 -0.8754  0.2963 -0.5156
   62MOL    H4729449   5.434   1.025   2.198  0.9062  2.0027 -0.5632
   62MOL    H4829450   5.644   1.247   2.501 -1.4438  0.6195  3.3013
   62MOL    H4929451   5.540   1.112   2.677  0.0004  0.9572 -0.1435
   62MOL    C5029452   5.614   1.486   2.284 -0.4693 -0.2463  0.5155
   62MOL    C5129453   5.553   1.612   2.276 -0.3065  0.3767  0.5086
   62MOL    C5229454   5.418   1.627   2.231 -0.4804 -0.1062 -0.2518
   62MOL    C5329455   5.350   1.512   2.180 -0.4494  0.0896  0.7170
   62MOL    C5429456   5.421   1.390   2.167  0.0608 -0.5146 -0.2350
   62MOL    C5529457   5.547   1.372   2.230 -0.1782 -0.5839 -0.6548
   62MOL    S5629458   5.328   1.788   2.251  0.2515  0.3729  0.2910
   62MOL    O5729459   5.286   1.847   2.121 -0.2466  0.1183 -0.3320
   62MOL    O5829460   5.410   1.875   2.333 -0.6737 -0.0789  0.4510
   62MOL    C5929461   5.179   1.755   2.344  0.0343  0.1295  0.5750
   62MOL    C6029462   5.186   1.772   2.483 -0.0648 -1.1548 -0.7275
   62MOL    C6129463   5.070   1.742   2.561 -0.5184 -0.1835  0.0115
   62MOL    C6229464   4.947   1.709   2.496 -0.6850 -0.1048 -0.3654
   62MOL    C6329465   4.940   1.703   2.355 -0.8571  0.2610  0.8306
   62MOL    C6429466   5.057   1.720   2.283 -0.1573  0.0346 -0.2207
   62MOL    O6529467   4.831   1.697   2.567 -0.1083 -0.0419 -0.1613
   62MOL    H6629468   5.703   1.483   2.345  0.1773 -1.7565 -0.4615
   62MOL    H6729469   5.606   1.699   2.311 -1.5655  0.9278  1.0426
   62MOL    H6829470   5.251   1.515   2.136 -0.5453  0.8100  0.9822
   62MOL    H6929471   5.375   1.307   2.116 -0.7931  0.7902 -1.6191
   62MOL    H7029472   5.282   1.798   2.526 -0.4630  2.8971 -1.9931
   62MOL    H7129473   5.073   1.755   2.669  2.0276 -2.6737  0.2943
   62MOL    H7229474   4.850   1.671   2.305 -0.7545  0.1054  0.7451
   62MOL    H7329475   5.062   1.704   2.177  1.2058  0.9164 -0.3105
   62MOL    C7429476   4.807   1.461   2.616  0.8143  0.5387  0.0943
   62MOL    C7529477   4.709   1.362   2.631  0.3431 -0.0010  0.3412
   62MOL    C7629478   4.584   1.373   2.560 -0.6386  0.8241 -0.1313
   62MOL    C7729479   4.555   1.481   2.477 -0.1534  1.1323  0.0290
   62MOL    C7829480   4.643   1.587   2.480 -0.0432 -0.1291 -1.0114
   62MOL    C7929481   4.762   1.582   2.554 -1.2306  0.2285 -0.2539
   62MOL    S8029482   4.469   1.241   2.586  0.3526  0.0785  0.0636
   62MOL    O8129483   4.542   1.147   2.669  0.4124  0.4113 -0.1941
   62MOL    O8229484   4.416   1.196   2.459  0.2446 -0.1761 -0.0173
   62MOL    C8329485   4.344   1.322   2.687  0.2640 -0.4007 -0.5961
   62MOL    C8429486   4.204   1.291   2.674 -0.5585  0.2232 -0.0722
   62MOL    C8529487   4.108   1.348   2.766  0.5890 -1.1736 -0.4669
   62MOL    C8629488   4.154   1.440   2.867 -0.9677  0.1707 -0.1276
   62MOL    C8729489   4.290   1.467   2.876  0.2765 -0.3253  0.4801
   62MOL    C8829490   4.382   1.414   2.787  0.2279 -0.3115  0.1908
   62MOL    O8929491   4.069   1.492   2.957 -0.1910  0.5957  0.1663
   62MOL    H9029492   4.905   1.440   2.657 -0.1839  0.1425  2.3711
   62MOL    H9129493   4.737   1.264   2.667 -1.3467  0.0972  1.9636
   62MOL    H9229494   4.461   1.484   2.424 -0.0215  3.0615 -0.1060
   62MOL    H9329495   4.617   1.679   2.430  1.6960  0.0475 -1.6380
   62MOL    H9429496   4.182   1.217   2.599  1.7516  0.0038 -0.5825
   62MOL    H9529497   4.003   1.326   2.766  0.7583 -2.0826  0.9233
   62MOL    H9629498   4.324   1.537   2.951  0.7720 -0.1537  0.0980
   62MOL    H9729499   4.486   1.440   2.797  0.2767 -0.9138  1.2721
   62MOL    C9829500   4.109   1.506   3.195  0.7491  0.1575  0.2323
   62MOL    C9929501   4.124   1.451   3.320 -0.7337  0.6469 -0.7409
   62MOL   C10029502   4.076   1.322   3.350  1.0869  0.6124 -0.0475
   62MOL   C10129503   4.027   1.253   3.243  0.0993 -0.9338  0.0353
   62MOL   C10229504   4.019   1.303   3.107  0.2077  0.2637 -0.2564
   62MOL   C10329505   4.066   1.432   3.084 -0.5150 -0.3915  0.0275
   62MOL   S10429506   4.077   1.247   3.522  0.2398  0.1390  0.2438
   62MOL   O10529507   4.109   1.106   3.504  0.1573  0.2101 -0.5910
   62MOL   O10629508   3.953   1.286   3.586  0.2196  0.7910  0.1141
   62MOL   C10729509   4.204   1.334   3.619 -0.1334 -0.5215  0.1159
   62MOL   C10829510   4.335   1.282   3.602  0.8499 -0.1577 -0.3123
   62MOL   C10929511   4.445   1.367   3.633 -0.3366 -0.4754 -0.4493
   62MOL   C11029512   4.426   1.496   3.698 -0.2491 -0.9201  0.2708
   62MOL   C11129513   4.293   1.539   3.725  0.2611  0.1868  0.4925
   62MOL   C11229514   4.180   1.458   3.685  0.1341  0.4414 -0.0661
   62MOL   O11329515   4.528   1.572   3.748  0.6285 -0.4229 -0.3683
   62MOL   H11429516   4.157   1.603   3.193  3.3319 -1.0791 -1.6805
   62MOL   H11529517   4.180   1.507   3.393 -1.0624  4.1241 -3.0820
   62MOL   H11629518   3.979   1.157   3.258  0.0937 -0.9145  0.1379
   62MOL   H11729519   3.981   1.237   3.031  1.1089  0.7727 -1.1677
   62MOL   H11829520   4.341   1.183   3.559  0.4895 -0.2592 -0.1234
   62MOL   H11929521   4.549   1.339   3.619  0.1405  1.8254 -1.7334
   62MOL   H12029522   4.273   1.635   3.771  1.0816 -0.3146  1.9196
   62MOL   H12129523   4.079   1.495   3.688  0.5965  1.5936  1.6889
   62MOL   C12229524   4.616   1.691   3.561  0.7036 -0.0190 -0.0999
   62MOL   C12329525   4.721   1.726   3.477  0.3315  0.6174 -0.3137
   62MOL   C12429526   4.853   1.664   3.501 -0.3658 -0.6683 -0.2255
   62MOL   C12529527   4.873   1.571   3.606 -0.1621 -0.0299  0.3146
   62MOL   C12629528   4.763   1.539   3.688 -0.2112 -0.1673  0.3919
   62MOL   C12729529   4.634   1.596   3.668 -0.2521  0.5515  0.2825
   62MOL   S12829530   4.990   1.681   3.378 -0.0946 -0.0728  0.1874
   62MOL   O12929531   5.087   1.770   3.444  0.0296  0.0040 -0.5541
   62MOL   O13029532   4.937   1.735   3.248 -0.2830  0.3896 -0.1459
   62MOL   C13129533   5.073   1.519   3.352  0.5720  0.1045 -0.4827
   62MOL   C13229534   4.992   1.407   3.350 -0.5761  0.6329 -0.3327
   62MOL   C13329535   5.043   1.278   3.323 -0.1491  0.4124  0.8560
   62MOL   C13429536   5.180   1.263   3.311 -0.3222 -0.1476 -0.0495
   62MOL   C13529537   5.264   1.378   3.319  0.7655  0.8739  0.3649
   62MOL   C13629538   5.214   1.506   3.338 -0.6930 -0.4440 -0.3907
   62MOL   O13729539   5.226   1.132   3.303  0.2086  0.0038 -0.2472
   62MOL   H13829540   4.520   1.739   3.544  0.2592 -0.6910  0.5034
   62MOL   H13929541   4.696   1.777   3.385 -2.6708 -0.2216 -0.0136
   62MOL   H14029542   4.963   1.516   3.628 -1.6132 -1.5384  2.5571
   62MOL   H14129543   4.779   1.476   3.774  0.4093  1.8164  1.7763
   62MOL   H14229544   4.890   1.424   3.379 -0.2835  0.6550  0.6916
   62MOL   H14329545   4.968   1.200   3.324  1.7418 -1.4482 -0.0329
   62MOL   H14429546   5.367   1.361   3.292  0.1388 -1.1024 -0.9477
   62MOL   H14529547   5.272   1.597   3.337 -2.8760  0.9726 -0.8467
   62MOL   C14629548   5.460   1.067   3.296  0.3747  0.0515  0.0743
   62MOL   C14729549   5.573   1.038   3.222  0.3476 -0.5081 -0.1063
   62MOL   C14829550   5.579   1.070   3.084  0.4111  0.0362 -0.6116
   62MOL   C14929551   5.464   1.112   3.020  0.7538 -0.0923 -0.6791
   62MOL   C15029552   5.340   1.128   3.091  0.4226  0.1281  0.5728
   62MOL   C15129553   5.342   1.110   3.230  0.4001 -0.0516 -0.0027
   62MOL   S15229554   5.734   1.056   3.004  0.0259 -0.2534 -0.0751
   62MOL   O15329555   5.717   0.984   2.878  0.0528 -0.7236  0.0724
   62MOL   O15429556   5.837   1.006   3.096  0.3957  0.3967 -0.0955
   62MOL   C15529557   5.795   1.217   2.961 -0.5054  0.4588  0.3553
   62MOL   C15629558   5.814   1.261   2.825 -0.4981  0.2361  0.3017
   62MOL   C15729559   5.854   1.391   2.794  0.8000 -0.5273  0.4492
   62MOL   C15829560   5.856   1.484   2.897 -0.8272  0.6561 -0.2204
   62MOL   C15929561   5.858   1.442   3.030 -0.4286 -0.3007  0.1761
   62MOL   C16029562   5.825   1.310   3.067 -0.3565 -0.5589 -0.1700
   62MOL   O16129563   5.879   1.617   2.871 -0.2538  0.5253  0.5651
   62MOL   H16229564   5.458   1.052   3.403 -0.7451  0.6768  0.1428
   62MOL   H16329565   5.660   1.003   3.274  0.2715  0.7286  0.8703
   62MOL   H16429566   5.465   1.127   2.914 -1.8072  2.5543 -0.3828
   62MOL   H16529567   5.254   1.154   3.030  0.5952 -0.4845  0.0543
   62MOL   H16629568   5.810   1.191   2.742  0.8704  1.4973 -0.8574
   62MOL   H16729569   5.877   1.415   2.691 -1.8849 -0.4472 -0.1674
   62MOL   H16829570   5.886   1.505   3.113 -1.3493 -0.6408  0.7549
   62MOL   H16929571   5.838   1.278   3.169  1.7240  1.1335  0.1102
   62MOL   C17029572   6.107   1.687   2.884 -0.0342  0.5172  0.0242
   62MOL   C17129573   6.206   1.761   2.950 -0.2610  0.3110  0.5115
   62MOL   C17229574   6.169   1.843   3.059 -0.2229 -0.5546  0.0337
   62MOL   C17329575   6.039   1.848   3.108  0.6037  0.0560  0.6750
   62MOL   C17429576   5.949   1.764   3.048  0.0505  0.6370 -0.4948
   62MOL   C17529577   5.977   1.683   2.937 -0.4745 -0.9431  0.3790
   62MOL   S17629578   6.288   1.962   3.133  0.1305  0.5150  0.3693
   62MOL   O17729579   6.426   1.923   3.104  0.0479 -0.6647  0.0005
   62MOL   O17829580   6.239   1.993   3.269 -0.2752  0.5521  0.0352
   62MOL   C17929581   6.255   2.113   3.043 -0.6884 -0.2433  0.0404
   62MOL   C18029582   6.363   2.188   2.989  0.4031 -0.2515  0.0396
   62MOL   C18129583   6.338   2.309   2.924 -0.1694  0.1191  0.0993
   62MOL   C18229584   6.209   2.355   2.914 -0.3864  0.0211  0.2643
   62MOL   C18329585   6.103   2.286   2.976  0.1886 -0.1726 -0.0494
   62MOL   C18429586   6.125   2.163   3.038 -0.8177  0.3191  0.3299
   62MOL   O18529587   6.184   2.470   2.846  0.1326 -0.5108 -0.5889
   62MOL   H18629588   6.128   1.637   2.790  0.0839 -0.4103  0.5439
   62MOL   H18729589   6.309   1.755   2.919 -0.6358  0.1873 -0.7301
   62MOL   H18829590   6.009   1.906   3.195 -2.3229 -0.6294  0.1835
   62MOL   H18929591   5.845   1.750   3.074 -0.0476 -0.1170 -1.2687
   62MOL   H19029592   6.463   2.154   3.013  0.2467 -0.7004  0.0640
   62MOL   H19129593   6.424   2.366   2.894 -0.3060 -0.2959 -1.0987
   62MOL   H19229594   6.006   2.332   2.962  0.9515  1.5991  0.2777
   62MOL   H19329595   6.047   2.098   3.075  0.9401 -1.9434  0.1861
   62MOL   C19429596   6.109   2.628   3.014 -0.1245 -0.3727 -0.3231
   62MOL   C19529597   6.022   2.736   3.056 -0.0981 -0.1144  0.0269
   62MOL   C19629598   5.923   2.778   2.969  0.0865  0.0523  0.0308
   62MOL   C19729599   5.905   2.715   2.845  0.5682 -0.4329 -0.0906
   62MOL   C19829600   5.994   2.612   2.810 -0.3442 -0.2670  0.0224
   62MOL   C19929601   6.088   2.562   2.892  0.2290  0.7683  1.2023
   62MOL   S20029602   5.839   2.938   3.002 -0.2385  0.1189 -0.0516
   62MOL   O20129603   5.937   3.041   2.992  0.5640 -0.4026 -0.0200
   62MOL   O20229604   5.761   2.923   3.129 -0.0075  0.2045 -0.2995
   62MOL   C20329605   5.719   2.954   2.871  0.1979 -0.8649  0.4631
   62MOL   C20429606   5.751   3.038   2.763  0.6605 -0.5099 -0.5578
   62MOL   C20529607   5.652   3.065   2.662 -0.0873 -0.7578  1.2340
   62MOL   C20629608   5.520   3.012   2.680 -0.2658 -0.9754  0.3133
   62MOL   C20729609   5.497   2.926   2.790 -0.3129 -0.6352 -0.3060
   62MOL   C20829610   5.591   2.907   2.890  0.2053 -0.0277 -0.0702
   62MOL   O20929611   5.431   3.051   2.586 -0.5132  0.0829  0.0276
   62MOL   H21029612   6.185   2.585   3.079  0.3650 -0.3826 -0.8949
   62MOL   H21129613   6.051   2.785   3.148  0.8775 -0.3412 -0.1551
   62MOL   H21229614   5.826   2.738   2.774  1.0449  1.1135 -0.1312
   62MOL   H21329615   5.991   2.566   2.712 -1.0232 -0.5334  0.1678
   62MOL   H21429616   5.851   3.078   2.755  0.7545 -0.8432 -1.1031
   62MOL   H21529617   5.666   3.134   2.581  0.4308 -2.0681  0.1738
   62MOL   H21629618   5.396   2.890   2.802 -0.6898  0.5994  0.3283
   62MOL   H21729619   5.563   2.848   2.976  2.3379 -1.1616 -0.1133
   62MOL   C21829620   5.312   2.834   2.555  0.1608 -0.3372 -0.7314
   62MOL   C21929621   5.184   2.772   2.557 -0.7585 -0.5308  1.0411
   62MOL   C22029622   5.065   2.847   2.581 -0.1882 -0.1488  0.4159
   62MOL   C22129623   5.073   2.984   2.595 -0.3217  1.0545  0.6025
   62MOL   C22229624   5.198   3.046   2.597  0.0991  0.1261 -0.4024
   62MOL   C22329625   5.320   2.972   2.586  0.4059 -0.8374  0.2699
   62MOL   S22429626   4.896   2.777   2.577 -0.3135  0.1483 -0.0668
   62MOL   O22529627   4.815   2.855   2.484 -0.2268 -0.0072  0.1616
   62MOL   O22629628   4.850   2.758   2.715  0.1610 -0.2868 -0.1592
   62MOL   C22729629   4.908   2.607   2.512  0.6328 -0.6574  0.6777
   62MOL   C22829630   4.943   2.499   2.599  0.0961  0.3802 -0.3069
   62MOL   C22929631   4.953   2.367   2.542  0.1777 -0.0664  0.1989
   62MOL   C23029632   4.944   2.344   2.402  0.8531  0.2672 -0.0166
   62MOL   C23129633   4.908   2.451   2.320 -0.2866  0.1410 -0.3011
   62MOL   C23229634   4.886   2.583   2.373 -0.3098  0.0204  0.4091
   62MOL   O23329635   4.961   2.214   2.358 -0.0390  0.7211  0.1625
   62MOL   H23429636   5.397   2.772   2.532 -0.7755 -1.3886 -1.4065
   62MOL   H23529637   5.190   2.666   2.539  0.1857  0.0072 -2.3458
   62MOL   H23629638   4.980   3.039   2.598 -1.0849 -0.3160  2.0877
   62MOL   H23729639   5.202   3.154   2.602  1.4809  0.0760 -0.0839
   62MOL   H23829640   4.942   2.525   2.703 -1.7771  0.7346 -0.3947
   62MOL   H23929641   4.972   2.278   2.601 -1.1928 -0.4233  0.1038
   62MOL   H24029642   4.893   2.433   2.215  0.5545 -2.0883 -0.0836
   62MOL   H24129643   4.859   2.665   2.308  1.0392 -1.2864 -1.8778
   62MOL   C24229644   5.088   2.192   2.151 -0.2825  0.2220 -0.1098
   62MOL   C24329645   5.210   2.161   2.081  0.2707  0.7421  0.0557
   62MOL   C24429646   5.332   2.156   2.146 -0.5404 -0.0910  0.3872
   62MOL   C24529647   5.330   2.184   2.285 -0.3759  0.3261  0.2186
   62MOL   C24629648   5.207   2.187   2.360 -0.4194  0.0719  0.0246
   62MOL   C24729649   5.080   2.199   2.294  0.1399  0.2486  0.3392
   62MOL   S24829650   5.485   2.149   2.055 -0.0349 -0.3310  0.2890
   62MOL   O24929651   5.547   2.277   2.085  0.6857 -0.4252  0.2224
   62MOL   O25029652   5.449   2.115   1.912  0.0584  0.0353  0.0127
   62MOL   C25129653   5.600   2.023   2.110 -0.6243  0.5524 -0.0820
   62MOL   C25229654   5.660   2.033   2.237  0.0170 -0.8498  0.2233
   62MOL   C25329655   5.744   1.932   2.273 -0.5096  0.1179  0.3658
   62MOL   C25429656   5.783   1.827   2.188 -0.3469 -0.2939 -0.5887
   62MOL   C25529657   5.728   1.818   2.058  0.4688  0.7861  0.4079
   62MOL   C25629658   5.629   1.914   2.026  0.4136  0.3785  0.1925
   62MOL   O25729659   5.866   1.726   2.233  0.2176  0.1481 -0.5346
   62MOL   H25829660   5.003   2.220   2.090 -0.2566  0.1556 -0.1770
   62MOL   H25929661   5.219   2.161   1.973 -1.1604  2.3531 -0.0877
   62MOL   H26029662   5.424   2.198   2.337  0.5503 -1.1485 -1.0125
   62MOL   H26129663   5.211   2.196   2.468 -0.7304  0.1333  0.0312
   62MOL   H26229664   5.636   2.121   2.295 -0.8898 -0.3569 -0.8893
   62MOL   H26329665   5.783   1.940   2.373 -1.8668 -1.8671  1.0688
   62MOL   H26429666   5.749   1.736   1.991 -0.5489  0.5799  0.3260
   62MOL   H26529667   5.590   1.915   1.926  0.8330 -0.6198  0.0123
   62MOL   C26629668   5.935   1.723   2.454  0.2178  0.0531  0.2215
   62MOL   C26729669   6.009   1.777   2.564 -0.3320 -0.1973  0.4650
   62MOL   C26829670   6.108   1.874   2.533 -0.0953  0.5017 -0.1841
   62MOL   C26929671   6.152   1.897   2.396 -0.4434  0.0116  0.5065
   62MOL   C27029672   6.071   1.846   2.294 -0.6916 -0.0542  0.2583
   62MOL   C27129673   5.959   1.767   2.324 -0.4583  0.2980  0.7797
   62MOL   S27229674   6.184   1.968   2.667 -0.0298  0.2112 -0.0188
   62MOL   O27329675   6.308   1.898   2.703 -0.5823 -0.1454  0.4912
   62MOL   O27429676   6.079   1.988   2.772 -0.0134  0.1275  0.5923
   62MOL   C27529677   6.234   2.124   2.602  0.5503  0.1648 -0.5952
   62MOL   C27629678   6.135   2.226   2.603 -0.2424  0.2055 -0.4492
   62MOL   C27729679   6.175   2.351   2.565  0.6741  0.4942  0.1947
   62MOL   C27829680   6.310   2.373   2.520 -0.6005  0.3197  0.2539
   62MOL   C27929681   6.405   2.267   2.518 -0.8855 -0.3086 -0.5795
   62MOL   C28029682   6.365   2.137   2.556  0.3217 -0.1946  0.1307
   62MOL   O28129683   6.355   2.495   2.484 -0.3493 -0.3888 -0.0383
   62MOL   H28229684   5.852   1.656   2.469  0.2982 -0.6798 -2.2711
   62MOL   H28329685   5.987   1.761   2.668 -1.1985  2.0000  0.6588
   62MOL   H28429686   6.225   1.964   2.354  0.0340 -0.2755  0.8859
   62MOL   H28529687   6.094   1.843   2.189  2.0112 -0.2210  0.8060
   62MOL   H28629688   6.034   2.200   2.633 -1.1125  0.1485 -3.2595
   62MOL   H28729689   6.098   2.427   2.558  0.1725 -0.1783 -1.7712
   62MOL   H28829690   6.503   2.285   2.476 -0.4060  0.6751  0.9062
   62MOL   H28929691   6.440   2.060   2.547  0.3226 -0.3521  1.4375
   62MOL   C29029692   6.339   2.654   2.662 -0.0602 -0.1069  0.4737
   62MOL   C29129693   6.397   2.713   2.773  0.5541  0.4389  0.3513
   62MOL   C29229694   6.527   2.680   2.807 -1.1914 -1.4177 -0.1474
   62MOL   C29329695   6.606   2.604   2.731 -0.6971  0.0630 -0.6235
   62MOL   C29429696   6.550   2.535   2.619  0.2056 -0.1847 -0.5233
   62MOL   C29529697   6.419   2.564   2.583  0.4344  0.4170 -0.1225
   62MOL   S29629698   6.589   2.751   2.953  0.0630 -0.2039 -0.2225
   62MOL   O29729699   6.507   2.851   3.013 -0.3152 -0.4559 -0.7926
   62MOL   O29829700   6.727   2.792   2.929  0.4848 -0.1971  0.0603
   62MOL   C29929701   6.591   2.613   3.063  0.5038 -0.0047 -0.4468
   62MOL   C30029702   6.469   2.581   3.139 -0.4783 -0.3352  0.2829
   62MOL   C30129703   6.459   2.452   3.200 -0.1413 -0.0664  0.0913
   62MOL   C30229704   6.573   2.364   3.197  0.2938  0.4065 -0.4756
   62MOL   C30329705   6.695   2.401   3.133 -0.8579  0.0102 -0.2939
   62MOL   C30429706   6.706   2.528   3.063  0.2446 -0.0393  0.0410
   62MOL   O30529707   6.574   2.238   3.256  0.3779  0.3010 -0.3101
   62MOL   H30629708   6.235   2.666   2.635 -0.7143 -2.0698  1.9784
   62MOL   H30729709   6.338   2.780   2.833 -1.9470 -0.3017 -1.1759
   62MOL   H30829710   6.707   2.577   2.760 -0.1368  1.5565 -1.1131
   62MOL   H30929711   6.616   2.471   2.562  1.8167 -0.8388  1.9545
   62MOL   H31029712   6.382   2.645   3.137 -0.4275 -0.2825 -0.8881
   62MOL   H31129713   6.370   2.417   3.251 -0.2224 -1.6543 -1.0866
   62MOL   H31229714   6.768   2.321   3.126 -1.1327 -0.2814  0.1517
   62MOL   H31329715   6.788   2.564   3.002  0.2105  3.1636  1.8110
   62MOL   C31429716   6.669   2.329   3.449  0.5261  0.1408  0.3487
   62MOL   C31529717   6.686   2.335   3.590  0.5810  0.3731 -0.0044
   62MOL   C31629718   6.632   2.228   3.665 -0.4108 -0.2855 -0.6212
   62MOL   C31729719   6.552   2.127   3.602  0.4083 -0.3424 -0.0022
   62MOL   C31829720   6.530   2.135   3.461 -0.2766  0.3446  0.5369
   62MOL   C31929721   6.589   2.235   3.388 -0.1108 -0.2058 -0.1746
   62MOL   S32029722   6.686   2.223   3.829  0.4293 -0.3832 -0.0218
   62MOL   O32129723   6.582   2.264   3.924  0.2144  0.4010 -0.0509
   62MOL   O32229724   6.823   2.281   3.828 -0.1332  0.1681 -0.6288
   62MOL   C32329725   6.712   2.045   3.848 -0.9546 -0.1154  0.0974
   62MOL   C32429726   6.681   1.991   3.974  0.0523  0.2472 -0.1571
   62MOL   C32529727   6.739   1.865   4.008 -0.0961 -0.2898  0.3386
   62MOL   C32629728   6.819   1.794   3.912 -0.3385  0.4338  0.3972
   62MOL   C32729729   6.865   1.859   3.793 -0.3954 -0.5988 -0.1677
   62MOL   C32829730   6.802   1.983   3.756 -0.0783 -0.4101  0.3181
   62MOL   O32929731   6.870   1.670   3.941 -0.4706  0.5196 -0.0310
   62MOL   H33029732   6.715   2.401   3.383  1.1959 -1.4782 -0.9899
   62MOL   H33129733   6.733   2.422   3.633  2.1134  0.0379 -0.9624
   62MOL   H33229734   6.497   2.051   3.656 -0.3916  0.2241 -0.0163
   62MOL   H33329735   6.471   2.057   3.414  0.1004  0.9791 -1.0316
   62MOL   H33429736   6.628   2.045   4.050  1.3419 -0.0259  0.9489
   62MOL   H33529737   6.730   1.825   4.108 -0.1694 -0.3595  0.3045
   62MOL   H33629738   6.927   1.813   3.718 -1.6243 -2.6694  0.0414
   62MOL   H33729739   6.839   2.028   3.665 -1.5489  0.0957 -0.0548
   62MOL   C33829740   7.108   1.735   3.960 -0.3030 -0.2654 -0.0721
   62MOL   C33929741   7.231   1.724   4.030  0.2177 -0.1773 -0.0943
   62MOL   C34029742   7.242   1.633   4.139  0.3123  0.4220 -0.3131
   62MOL   C34129743   7.129   1.562   4.190  0.7363 -0.7239  0.3664
   62MOL   C34229744   7.009   1.577   4.118  0.3274 -0.4585  0.0972
   62MOL   C34329745   6.995   1.662   4.006  0.8112  0.2953  0.8406
   62MOL   S34429746   7.404   1.621   4.225  0.1184 -0.2468  0.4381
   62MOL   O34529747   7.372   1.611   4.366  0.6886 -0.3117 -0.4463
   62MOL   O34629748   7.485   1.732   4.177  0.0721 -0.1863 -0.2733
   62MOL   C34729749   7.475   1.461   4.187  0.2954  0.7555  0.7251
   62MOL   C34829750   7.561   1.407   4.280  0.3331 -0.0942  0.2928
   62MOL   C34929751   7.606   1.276   4.273  0.1560  0.0910  0.2316
   62MOL   C35029752   7.578   1.201   4.161 -0.7045  0.4222  0.6078
   62MOL   C35129753   7.494   1.255   4.060 -0.2873 -0.3221 -0.3218
   62MOL   C35229754   7.437   1.385   4.074 -0.9559 -0.0635  0.1328
   62MOL   O35329755   7.641   1.083   4.144 -0.1960 -0.3518  0.6186
   62MOL   H35429756   7.091   1.798   3.874 -1.6595 -2.5255 -1.5219
   62MOL   H35529757   7.313   1.782   3.991 -0.7518  0.3287 -1.4502
   62MOL   H35629758   7.140   1.492   4.272  0.3842  0.5461  1.5182
   62MOL   H35729759   6.919   1.525   4.148 -0.4429 -0.1310 -1.5583
   62MOL   H35829760   7.597   1.462   4.366 -0.0191  1.0711 -0.2928
   62MOL   H35929761   7.672   1.241   4.350  1.9605 -0.1642 -1.3755
   62MOL   H36029762   7.457   1.187   3.984 -1.4268  0.3751 -0.4107
   62MOL   H36129763   7.361   1.423   4.008 -0.2712  1.3956  0.1679
   62MOL   C36229764   7.454   0.943   4.202  1.1971 -0.0289  0.1157
   62MOL   C36329765   7.403   0.819   4.246 -0.5097  0.4124  0.2924
   62MOL   C36429766   7.488   0.706   4.260 -0.0827  0.5989 -0.5695
   62MOL   C36529767   7.628   0.726   4.244 -0.5853  0.0716 -0.4325
   62MOL   C36629768   7.673   0.852   4.202  0.0703  0.4530  0.4851
   62MOL   C36729769   7.589   0.961   4.181  0.8371 -0.7609 -0.0554
   62MOL   S36829770   7.411   0.551   4.324 -0.1615  0.1597 -0.0746
   62MOL   O36929771   7.512   0.442   4.313 -0.6690  0.0301 -0.0381
   62MOL   O37029772   7.279   0.534   4.260  0.3102 -0.0248  0.7228
   62MOL   C37129773   7.375   0.576   4.499  0.3703  0.2992 -0.5537
   62MOL   C37229774   7.445   0.519   4.608  0.1236  0.4647 -0.4741
   62MOL   C37329775   7.404   0.546   4.737  0.9912  0.3789 -0.6122
   62MOL   C37429776   7.294   0.628   4.765  0.1356 -0.4012 -0.1867
   62MOL   C37529777   7.221   0.681   4.658  0.1248 -0.1216  1.3963
   62MOL   C37629778   7.257   0.651   4.527 -0.0817 -0.3090 -1.1086
   62MOL   O37729779   7.258   0.655   4.898 -0.2137 -0.3131 -0.1593
   62MOL   H37829780   7.390   1.030   4.196 -1.2972 -1.9758 -2.5556
   62MOL   H37929781   7.298   0.800   4.261 -0.4195 -1.2715 -0.9651
   62MOL   H38029782   7.684   0.633   4.251 -0.8408  0.0424  1.4290
   62MOL   H38129783   7.778   0.870   4.185  0.0295 -0.4994 -0.8580
   62MOL   H38229784   7.531   0.458   4.585  1.4212  1.9071  0.4915
   62MOL   H38329785   7.470   0.512   4.815 -0.1265 -0.7220 -0.1357
   62MOL   H38429786   7.142   0.749   4.683  0.4221  0.5451  0.5336
   62MOL   H38529787   7.197   0.687   4.445 -1.4558 -0.8393 -0.3536
   62MOL   C38629788   7.143   0.456   4.977 -0.7577 -0.6814  0.6782
   62MOL   C38729789   7.135   0.358   5.078  0.4030  1.1145 -0.5576
   62MOL   C38829790   7.220   0.362   5.188  0.1632 -0.2444  0.1893
   62MOL   C38929791   7.323   0.457   5.197  0.3981  0.0393 -0.1852
   62MOL   C39029792   7.338   0.551   5.095  0.6650  0.3090  0.5081
   62MOL   C39129793   7.243   0.554   4.986 -0.2836 -0.9401 -0.0066
   62MOL   S39229794   7.212   0.231   5.317  0.1323 -0.1710 -0.1949
   62MOL   O39329795   7.339   0.150   5.320 -0.1408 -0.0619  0.4582
   62MOL   O39429796   7.085   0.164   5.302 -0.6429  0.2061 -0.3228
   62MOL   C39529797   7.204   0.322   5.468 -0.7450 -0.5327 -0.7030
   62MOL   C39629798   7.079   0.360   5.524  0.0365  0.0704  0.0865
   62MOL   C39729799   7.065   0.423   5.648 -0.4949  0.3890 -0.0133
   62MOL   C39829800   7.183   0.439   5.729 -0.1933 -0.5889  0.4911
   62MOL   C39929801   7.308   0.409   5.672  0.1449 -0.3986  0.5608
   62MOL   C40029802   7.318   0.350   5.544  0.0506  0.7091  0.3690
   62MOL   O40129803   7.170   0.480   5.858 -0.6065 -0.0405 -0.0320
   62MOL   H40229804   7.076   0.465   4.893  0.4847  1.2831 -0.1443
   62MOL   H40329805   7.058   0.283   5.067  1.9103 -0.8745  2.0627
   62MOL   H40429806   7.391   0.457   5.281  1.3724  0.0017 -0.9743
   62MOL   H40529807   7.415   0.626   5.089 -1.0296  2.1133  1.0337
   62MOL   H40629808   6.997   0.327   5.460  0.0289  0.1986  0.0309
   62MOL   H40729809   6.971   0.455   5.690  0.1425  0.1919  1.5820
   62MOL   H40829810   7.401   0.435   5.720 -0.0130 -0.8019  1.0985
   62MOL   H40929811   7.411   0.310   5.506  0.1107 -0.4569  1.6717
   62MOL   C41029812   7.234   0.301   6.012  0.2951  0.1008  0.5601
   62MOL   C41129813   7.287   0.259   6.140  0.1613  1.1099 -0.1724
   62MOL   C41229814   7.354   0.359   6.216 -0.5383  0.1445 -0.2149
   62MOL   C41329815   7.368   0.494   6.168  0.1619 -0.3922 -0.5493
   62MOL   C41429816   7.316   0.525   6.040  0.0752  0.8455  0.2300
   62MOL   C41529817   7.246   0.432   5.963 -0.7462 -0.4741 -0.0799
   62MOL   S41629818   7.414   0.337   6.381 -0.4035 -0.1550 -0.6515
   62MOL   O41729819   7.323   0.412   6.468  0.6818  0.0676  0.1046
   62MOL   O41829820   7.559   0.361   6.379  0.0507  0.0585 -0.4309
   62MOL   C41929821   7.386   0.159   6.427  0.3256 -0.4673  0.2920
   62MOL   C42029822   7.490   0.068   6.411 -0.3700  0.8945  0.5197
   62MOL   C42129823   7.469   8.357   6.400  0.1557 -0.2890 -0.1976
   62MOL   C42229824   7.339   8.304   6.398  0.5362  0.2919  0.1464
   62MOL   C42329825   7.230   8.390   6.420  0.1545  0.6120 -0.6610
   62MOL   C42429826   7.255   0.109   6.429  0.7775  0.1618 -0.3924
   62MOL   O42529827   7.322   8.166   6.387 -0.1471 -0.7005 -0.0878
   62MOL   H42629828   7.178   0.233   5.948 -0.7989  1.4194  0.1026
   62MOL   H42729829   7.269   0.163   6.186 -2.2666  0.5653 -2.1629
   62MOL   H42829830   7.425   0.565   6.227  1.9224  0.2395 -2.9319
   62MOL   H42929831   7.323   0.627   6.004  0.3174  0.7673  0.0556
   62MOL   H43029832   7.590   0.109   6.416 -1.3472  3.3574  0.5161
   62MOL   H43129833   7.562   8.305   6.385 -0.1890 -1.4576  1.5201
   62MOL   H43229834   7.130   8.350   6.410  0.0088 -0.3283  3.6519
   62MOL   H43329835   7.170   0.176   6.429  0.6529  0.0144  0.8225
   62MOL   C43429836   7.458   8.092   6.203 -0.7354  0.1262  0.6046
   62MOL   C43529837   7.466   8.043   6.075 -0.5280  0.6276 -0.2623
   62MOL   C43629838   7.349   8.004   6.002 -0.2663 -0.5222 -0.0379
   62MOL   C43729839   7.223   7.999   6.069  0.2027  0.6436 -0.2739
   62MOL   C43829840   7.218   8.051   6.199  0.4690 -0.7184  0.1196
   62MOL   C43929841   7.331   8.109   6.261  0.6803 -0.3583 -0.8448
   62MOL   S44029842   7.360   7.959   5.825 -0.2601 -0.2889  0.1599
   62MOL   O44129843   7.492   8.008   5.779  0.1121 -0.2517 -0.2010
   62MOL   O44229844   7.229   8.002   5.762  0.3214  0.4858 -0.7760
   62MOL   C44329845   7.374   7.785   5.819 -0.7860  0.2959 -0.6354
   62MOL   C44429846   7.501   7.723   5.812 -0.0439  0.3355  0.1479
   62MOL   C44529847   7.516   7.588   5.783 -0.0916  0.0662 -0.0421
   62MOL   C44629848   7.398   7.510   5.764  0.2056 -0.9227 -0.8022
   62MOL   C44729849   7.267   7.564   5.786 -0.6986  0.0534 -0.3738
   62MOL   C44829850   7.261   7.704   5.815 -0.6807 -0.0100 -0.0940
   62MOL   O44929851   7.414   7.378   5.725 -0.1380  0.4504  0.4830
   62MOL   H45029852   7.554   8.113   6.246 -0.8197 -3.3954  2.7300
   62MOL   H45129853   7.568   8.044   6.037 -1.1271 -0.4343 -1.9590
   62MOL   H45229854   7.135   7.964   6.016 -0.0496 -0.9187  1.1185
   62MOL   H45329855   7.125   8.048   6.253 -0.3322 -0.6815 -1.2238
   62MOL   H45429856   7.588   7.786   5.822  0.9525 -1.6340  4.8834
   62MOL   H45529857   7.617   7.552   5.769  0.1307 -0.3873  2.4000
   62MOL   H45629858   7.180   7.501   5.771 -2.5358  2.6398 -0.9009
   62MOL   H45729859   7.169   7.759   5.830 -0.8577 -0.1434 -0.7159
   62MOL   C45829860   7.317   7.259   5.923  0.7101  0.0057 -0.8510
   62MOL   C45929861   7.255   7.144   5.979  0.4711  0.4123  0.4216
   62MOL   C46029862   7.228   7.040   5.887  0.4088  0.1950  0.1194
   62MOL   C46129863   7.252   7.056   5.745  0.1758  0.5929 -0.4716
   62MOL   C46229864   7.317   7.164   5.694  0.2831 -0.7374  0.2018
   62MOL   C46329865   7.350   7.270   5.782 -0.4118 -0.1750 -0.6643
   62MOL   S46429866   7.177   6.875   5.935  0.3886  0.4337 -0.5146
   62MOL   O46529867   7.222   6.845   6.074  0.6407 -0.1680  0.0899
   62MOL   O46629868   7.219   6.786   5.827 -0.1659 -0.4961 -0.5283
   62MOL   C46729869   7.002   6.885   5.918 -0.6240 -0.3671 -0.9872
   62MOL   C46829870   6.930   6.966   6.012 -0.0027 -0.2828 -0.1987
   62MOL   C46929871   6.795   6.996   5.984  0.7857  0.0815  0.0206
   62MOL   C47029872   6.727   6.941   5.871  0.0164 -0.6547 -0.0118
   62MOL   C47129873   6.794   6.864   5.776 -0.3434  0.2653  0.3082
   62MOL   C47229874   6.932   6.839   5.797 -0.4151 -0.3608 -1.5737
   62MOL   O47329875   6.595   6.972   5.860  0.0115 -0.1267 -0.0241
   62MOL   H47429876   7.343   7.338   5.992 -2.1653  0.3615 -0.1237
   62MOL   H47529877   7.235   7.116   6.081 -0.8108 -4.0346 -0.9079
   62MOL   H47629878   7.226   6.974   5.679  2.5245 -0.5788 -0.0064
   62MOL   H47729879   7.337   7.182   5.590 -1.0512  0.2420  0.1018
   62MOL   H47829880   6.982   7.021   6.089 -0.4336 -1.0065  0.6189
   62MOL   H47929881   6.734   7.047   6.057  1.1745 -0.4247  0.7062
   62MOL   H48029882   6.760   6.822   5.683 -1.4055 -1.1778  1.3169
   62MOL   H48129883   6.982   6.775   5.726  1.0843 -1.1414  0.1501
   62MOL   H48229884   6.581   7.043   5.920 -1.4631 -1.4129  1.1756
   63MOL     C129885   6.674   1.542   2.854 -0.7684  0.3065 -0.0003
   63MOL     C229886   6.731   1.423   2.886 -0.3748  0.2582 -0.5658
   63MOL     C329887   6.693   1.369   3.009 -0.5218 -0.6699  0.0739
   63MOL     C429888   6.605   1.426   3.100  0.4935  0.2009  0.0193
   63MOL     C529889   6.556   1.558   3.068  0.3135  0.0223 -0.1101
   63MOL     C629890   6.591   1.617   2.945  0.4632 -0.0367 -0.5868
   63MOL     S729891   6.748   1.208   3.055  0.1155 -0.0272 -0.0112
   63MOL     O829892   6.751   1.195   3.203 -0.2673  0.0657 -0.4251
   63MOL     O929893   6.866   1.181   2.979 -0.9292 -0.1000 -0.0763
   63MOL    C1029894   6.629   1.097   2.994  0.9242 -0.6612 -0.0762
   63MOL    C1129895   6.532   1.136   2.896 -0.8589  0.9699 -0.1328
   63MOL    C1229896   6.459   1.038   2.820  0.0898 -0.6012  0.3549
   63MOL    C1329897   6.473   0.901   2.854 -0.1223 -0.3153  0.0065
   63MOL    C1429898   6.557   0.864   2.963 -0.2219  0.7848 -0.1387
   63MOL    C1529899   6.638   0.962   3.030  0.1857 -0.3370 -0.9866
   63MOL    O1629900   6.406   0.801   2.795 -0.1358  0.4225  0.3106
   63MOL    H1729901   6.687   1.590   2.758 -3.1057  1.6003  0.2934
   63MOL    H1829902   6.777   1.363   2.809  3.6977  1.2754  0.9702
   63MOL    H1929903   6.580   1.378   3.193 -0.8584 -3.2627 -2.0218
   63MOL    H2029904   6.504   1.618   3.141  1.3298  0.9179 -0.1124
   63MOL    H2129905   6.530   1.236   2.854 -0.5111  1.3888  0.8506
   63MOL    H2229906   6.400   1.069   2.735 -2.0171  0.0313  2.0010
   63MOL    H2329907   6.559   0.759   2.990 -0.9980  1.1158  1.2377
   63MOL    H2429908   6.705   0.938   3.111  0.3402  0.3728 -0.9038
   63MOL    H2529909   6.554   1.715   2.919  1.3864 -0.2339 -2.6676
   63MOL    C2629910   6.265   0.797   2.602 -0.0954 -0.3018  0.3097
   63MOL    C2729911   6.142   0.805   2.540 -0.1614  0.7999 -0.1287
   63MOL    C2829912   6.035   0.851   2.616 -0.1395 -0.3467 -0.1679
   63MOL    C2929913   6.041   0.883   2.754 -0.1705 -0.6801  0.2055
   63MOL    C3029914   6.170   0.867   2.810 -0.4105 -0.4113 -0.0402
   63MOL    C3129915   6.279   0.820   2.740  0.9041 -0.1905  0.0519
   63MOL    S3229916   5.880   0.874   2.523 -0.2903  0.0480  0.3193
   63MOL    O3329917   5.778   0.932   2.609  0.4223  0.1717  0.4389
   63MOL    O3429918   5.854   0.740   2.464  0.1044 -0.1073  0.6429
   63MOL    C3529919   5.919   0.985   2.391  0.5190  0.3908  0.4640
   63MOL    C3629920   5.936   0.940   2.257  0.5464  0.1707 -0.5221
   63MOL    C3729921   5.967   1.035   2.150  0.7211  0.1502 -0.9516
   63MOL    C3829922   5.974   1.176   2.190  0.2267  0.2494  0.2109
   63MOL    C3929923   5.935   1.222   2.316  0.3597  0.4696 -0.3048
   63MOL    C4029924   5.923   1.124   2.416 -0.6077 -1.0848  0.3659
   63MOL    O4129925   6.005   1.270   2.093 -0.8373  0.9925 -0.3520
   63MOL    H4229926   6.357   0.764   2.554  0.3811 -0.7352  1.5015
   63MOL    H4329927   6.142   0.788   2.433 -1.8008 -0.5666  0.0717
   63MOL    H4429928   5.956   0.913   2.813 -1.8378 -4.0110 -0.3952
   63MOL    H4529929   6.182   0.886   2.916 -2.0268  0.8906 -0.0582
   63MOL    H4629930   5.924   0.835   2.233 -1.9477  0.4160 -0.5315
   63MOL    H4729931   5.990   1.008   2.048  2.4556 -0.2123 -0.4700
   63MOL    H4829932   5.933   1.327   2.344 -1.4310  0.1037  1.0466
   63MOL    H4929933   5.903   1.146   2.520  0.1673 -1.0415  0.5113
   63MOL    C5029934   6.243   1.289   2.121 -0.6731 -0.3969 -0.1238
   63MOL    C5129935   6.347   1.381   2.129  0.8872  0.6481 -0.0011
   63MOL    C5229936   6.327   1.520   2.149  0.7014 -0.2470  0.5830
   63MOL    C5329937   6.196   1.565   2.139 -0.9760 -1.3860  0.4449
   63MOL    C5429938   6.090   1.481   2.122 -0.4695  0.1396  0.3848
   63MOL    C5529939   6.116   1.346   2.119  0.4680 -0.9790  0.4243
   63MOL    S5629940   6.461   1.634   2.145  0.0436  0.2431 -0.6575
   63MOL    O5729941   6.589   1.566   2.165  0.6082  0.4673  0.5792
   63MOL    O5829942   6.433   1.743   2.238  0.2996 -0.1488  0.5080
   63MOL    C5929943   6.467   1.710   1.981 -0.7569 -0.0323  1.3302
   63MOL    C6029944   6.465   1.851   1.963 -0.9525 -0.3235 -0.4585
   63MOL    C6129945   6.482   1.904   1.836 -0.3133  0.7129  0.1683
   63MOL    C6229946   6.472   1.819   1.727 -0.0399  0.1324 -0.5782
   63MOL    C6329947   6.470   1.680   1.748 -0.1729  0.0839  0.0836
   63MOL    C6429948   6.460   1.622   1.876 -0.4810 -0.2695  0.4181
   63MOL    O6529949   6.473   1.869   1.599 -0.2527  0.4114  0.2961
   63MOL    H6629950   6.270   1.186   2.100 -0.1408 -0.7514  2.2237
   63MOL    H6729951   6.447   1.344   2.119  0.4989  0.1169 -2.2762
   63MOL    H6829952   6.185   1.673   2.145 -1.1576 -1.4545  1.4314
   63MOL    H6929953   5.988   1.514   2.117 -0.2799  0.6433 -0.2122
   63MOL    H7029954   6.474   1.922   2.044 -0.7192 -1.3510  0.4285
   63MOL    H7129955   6.488   2.010   1.819 -0.1875  0.8626  1.1344
   63MOL    H7229956   6.455   1.615   1.664  0.8102 -0.3173  0.2114
   63MOL    H7329957   6.458   1.514   1.882  2.3442 -0.3222  1.1437
   63MOL    C7429958   6.609   1.914   1.406  0.6507  0.3954  0.5580
   63MOL    C7529959   6.732   1.929   1.349  0.3428 -0.3192  0.6949
   63MOL    C7629960   6.854   1.921   1.419 -0.3069 -0.5805 -0.4597
   63MOL    C7729961   6.850   1.880   1.557 -0.1903  0.0867 -0.4298
   63MOL    C7829962   6.720   1.864   1.618 -0.2280 -0.0961  0.1553
   63MOL    C7929963   6.601   1.882   1.542  0.5052 -0.0471  0.3909
   63MOL    S8029964   7.006   1.960   1.337 -0.2338 -0.2478  0.0636
   63MOL    O8129965   7.094   2.028   1.427  0.2338  0.8984 -0.4009
   63MOL    O8229966   6.970   2.035   1.213  0.0160 -0.3149 -0.9745
   63MOL    C8329967   7.091   1.804   1.305 -0.1674 -0.3274 -0.0571
   63MOL    C8429968   7.097   1.703   1.398  0.2771 -0.0849  0.2563
   63MOL    C8529969   7.155   1.582   1.371  0.0083 -0.2914  0.6395
   63MOL    C8629970   7.225   1.564   1.249  0.2471  0.0619 -0.6344
   63MOL    C8729971   7.216   1.665   1.155 -0.1443 -0.0566  0.8138
   63MOL    C8829972   7.156   1.792   1.185  0.2610 -0.2292 -0.1720
   63MOL    O8929973   7.280   1.437   1.211  0.0477 -0.2645  0.1200
   63MOL    H9029974   6.517   1.926   1.351  0.4113 -1.8344  0.3914
   63MOL    H9129975   6.737   1.950   1.243 -1.4745 -1.2948  0.3918
   63MOL    H9229976   6.939   1.867   1.617 -0.9098  1.2109  0.9109
   63MOL    H9329977   6.709   1.849   1.724  1.4113 -4.9127 -0.2285
   63MOL    H9429978   7.048   1.719   1.493 -0.9309 -2.0015 -0.0046
   63MOL    H9529979   7.163   1.505   1.447 -0.4077  0.8736  1.8735
   63MOL    H9629980   7.273   1.658   1.063  0.2116 -2.5699  1.2032
   63MOL    H9729981   7.156   1.877   1.118  0.1568  0.8826  1.2098
   63MOL    C9829982   7.277   1.244   1.351  0.3764  0.4527 -0.0925
   63MOL    C9929983   7.210   1.137   1.404  0.6144  0.5495 -0.0503
   63MOL   C10029984   7.078   1.101   1.363 -0.0960 -0.5720  0.0097
   63MOL   C10129985   7.020   1.168   1.257  0.3744  0.0095  0.4682
   63MOL   C10229986   7.093   1.279   1.205  0.6036  1.3519  0.0869
   63MOL   C10329987   7.220   1.322   1.255 -0.2807  0.2024  0.2411
   63MOL   S10429988   7.002   0.955   1.430  0.0974  0.2063 -0.4520
   63MOL   O10529989   7.092   0.841   1.396  0.1865  0.2671  0.0595
   63MOL   O10629990   6.862   0.939   1.383  0.1908 -0.2356  0.3496
   63MOL   C10729991   6.991   0.972   1.605 -0.1390  0.5223  0.5891
   63MOL   C10829992   6.983   0.852   1.679  0.8818  0.0288 -0.1908
   63MOL   C10929993   6.970   0.869   1.821 -0.2135 -1.0351 -0.1308
   63MOL   C11029994   6.959   0.995   1.877  0.2272  0.0078 -0.4322
   63MOL   C11129995   6.966   1.110   1.799  0.0098 -0.5861 -0.2059
   63MOL   C11229996   6.977   1.100   1.662  0.5582  0.0088 -0.4290
   63MOL   O11329997   6.948   1.019   2.006 -0.0926 -0.2935 -0.6486
   63MOL   H11429998   7.375   1.271   1.388  1.0612  0.3688 -1.7993
   63MOL   H11529999   7.260   1.075   1.477 -1.1829 -1.2905 -0.3433
   63MOL   H11630000   6.922   1.131   1.231  0.5929 -0.6979  0.6575
   63MOL   H11730001   7.040   1.330   1.126 -4.7527 -2.0537  1.2342
   63MOL   H11830002   6.993   0.759   1.624  1.0616  0.9876 -1.8185
   63MOL   H11930003   6.958   0.784   1.886 -0.9781 -0.7542  0.0998
   63MOL   H12030004   6.958   1.204   1.851  0.6319 -0.1933 -0.7953
   63MOL   H12130005   6.986   1.183   1.594  0.8360 -1.1912 -1.8855
   63MOL   C12230006   6.829   0.847   2.124  0.4221  0.6398 -0.0779
   63MOL   C12330007   6.709   0.801   2.184 -0.0158  0.8160 -0.8270
   63MOL   C12430008   6.609   0.894   2.212 -0.1175  0.9327 -0.5264
   63MOL   C12530009   6.623   1.027   2.181  0.3822 -0.1544  0.3041
   63MOL   C12630010   6.735   1.074   2.114  0.2178  0.2058  0.1412
   63MOL   C12730011   6.840   0.978   2.077  0.2467 -0.3525 -0.4619
   63MOL   S12830012   6.461   0.831   2.291 -0.3274  0.0343 -0.1382
   63MOL   O12930013   6.386   0.938   2.357  0.5599  0.3791 -0.3171
   63MOL   O13030014   6.501   0.715   2.372  0.1148  0.2159 -0.0701
   63MOL   C13130015   6.346   0.777   2.157 -0.1057  0.4560 -0.5669
   63MOL   C13230016   6.361   0.838   2.031  0.0293 -0.0946  0.5190
   63MOL   C13330017   6.272   0.798   1.929 -0.6741  0.4630  0.9473
   63MOL   C13430018   6.182   0.694   1.948 -0.1365 -0.6054 -0.1587
   63MOL   C13530019   6.171   0.638   2.074 -0.1749  0.1288  0.7386
   63MOL   C13630020   6.249   0.683   2.180  0.4793  0.3296 -0.1000
   63MOL   O13730021   6.114   0.641   1.838 -0.1388  0.2391  0.2717
   63MOL   H13830022   6.897   0.769   2.093 -0.1496  0.8651 -1.9370
   63MOL   H13930023   6.693   0.696   2.203 -0.9233  0.7041 -2.1144
   63MOL   H14030024   6.537   1.092   2.192 -0.1515 -0.8384  0.2409
   63MOL   H14130025   6.747   1.175   2.079  1.4541  2.1339  5.5850
   63MOL   H14230026   6.430   0.916   2.003 -0.1535  1.0065  2.9697
   63MOL   H14330027   6.280   0.844   1.831  0.8586  0.3214  0.9888
   63MOL   H14430028   6.098   0.562   2.097 -0.8984  1.2322  2.2005
   63MOL   H14530029   6.249   0.646   2.282  1.2959  1.4184  0.2936
   63MOL   C14630030   5.896   0.529   1.859  0.0036  0.1568 -0.3143
   63MOL   C14730031   5.751   0.540   1.855  0.3373  0.0129  0.3068
   63MOL   C14830032   5.694   0.669   1.858  0.3416  0.1060  0.0950
   63MOL   C14930033   5.774   0.785   1.842  0.5189  0.2427 -0.0972
   63MOL   C15030034   5.914   0.776   1.836  0.5995 -0.2307  0.2822
   63MOL   C15130035   5.972   0.647   1.843  0.1671 -0.4238  0.3017
   63MOL   S15230036   5.516   0.697   1.858 -0.0520 -0.3306  0.0705
   63MOL   O15330037   5.458   0.596   1.771  0.0897  0.4279  0.1838
   63MOL   O15430038   5.484   0.837   1.837  0.3845 -0.1608  0.4686
   63MOL   C15530039   5.467   0.671   2.022 -0.3604  0.2315 -0.3386
   63MOL   C15630040   5.365   0.582   2.060 -0.2304  0.0038 -0.3486
   63MOL   C15730041   5.353   0.558   2.199  0.8914  0.0698 -0.0914
   63MOL   C15830042   5.432   0.623   2.295 -0.3352 -0.6812  0.1220
   63MOL   C15930043   5.526   0.720   2.258 -0.6506 -0.0085 -0.2760
   63MOL   C16030044   5.539   0.749   2.120  0.0556  0.2427  0.5953
   63MOL   O16130045   5.415   0.580   2.423  0.1618 -0.5908  0.6142
   63MOL   H16230046   5.953   0.438   1.851 -2.1341 -1.2365 -0.0340
   63MOL   H16330047   5.679   0.461   1.866 -0.4608  0.4399 -1.6357
   63MOL   H16430048   5.727   0.882   1.831  3.6824  1.6238 -2.2529
   63MOL   H16530049   5.976   0.864   1.823 -0.8670  0.6411 -0.9249
   63MOL   H16630050   5.302   0.536   1.985  0.5232  0.1799 -1.1021
   63MOL   H16730051   5.279   0.484   2.226 -1.1987  2.2480  0.3261
   63MOL   H16830052   5.589   0.781   2.322 -0.8069  2.5986 -2.4845
   63MOL   H16930053   5.617   0.812   2.079 -1.1980  0.8596 -0.8979
   63MOL   C17030054   5.629   0.470   2.454  0.1292 -0.2919 -0.2439
   63MOL   C17130055   5.709   0.375   2.516  0.0110  0.5609 -0.1745
   63MOL   C17230056   5.647   0.286   2.606  0.5602 -0.3471  0.1295
   63MOL   C17330057   5.510   0.290   2.629 -0.2637  0.6036  0.3520
   63MOL   C17430058   5.431   0.390   2.570 -0.4460 -1.1835  0.0063
   63MOL   C17530059   5.491   0.482   2.480 -0.1247 -0.1603 -0.2444
   63MOL   S17630060   5.755   0.172   2.694 -0.2465  0.7984  0.0519
   63MOL   O17730061   5.741   0.046   2.618 -0.0171 -0.0990  0.1445
   63MOL   O17830062   5.721   0.178   2.837  0.0303 -0.2098  0.1284
   63MOL   C17930063   5.929   0.223   2.662 -0.3136 -0.2477 -0.0598
   63MOL   C18030064   5.971   0.342   2.719 -0.0754  0.4598 -1.0221
   63MOL   C18130065   6.093   0.403   2.688 -0.5940  0.7322 -0.2270
   63MOL   C18230066   6.184   0.337   2.597  0.3456 -0.1456  0.2091
   63MOL   C18330067   6.149   0.216   2.539 -0.1093 -1.3497 -0.6482
   63MOL   C18430068   6.018   0.162   2.572 -0.3889  0.0792 -1.1614
   63MOL   O18530069   6.300   0.405   2.565  0.3174 -0.0652 -0.1646
   63MOL   H18630070   5.664   0.545   2.384 -2.1424  0.5632 -0.5185
   63MOL   H18730071   5.816   0.372   2.501  0.2774 -0.9538  1.8276
   63MOL   H18830072   5.472   0.214   2.695  1.6813 -0.0329  0.7646
   63MOL   H18930073   5.324   0.378   2.580 -0.9329  0.2395 -2.8513
   63MOL   H19030074   5.897   0.388   2.782 -2.3839 -3.6096 -0.5715
   63MOL   H19130075   6.124   0.497   2.732  1.4263  0.5090 -1.0788
   63MOL   H19230076   6.204   0.167   2.461 -0.4457 -1.1902 -0.9869
   63MOL   H19330077   5.994   0.073   2.517 -1.4972 -0.2090 -0.2336
   63MOL   C19430078   6.507   0.489   2.654  0.2911 -0.3718  0.3787
   63MOL   C19530079   6.614   0.459   2.735 -0.7494  0.2866 -0.1603
   63MOL   C19630080   6.633   0.329   2.789  0.2328 -0.5201 -0.0902
   63MOL   C19730081   6.542   0.226   2.765  0.0336  0.3625 -0.5996
   63MOL   C19830082   6.435   0.253   2.683  0.1674 -0.3438 -0.5290
   63MOL   C19930083   6.417   0.381   2.632  0.5470 -0.0633 -0.1470
   63MOL   S20030084   6.756   0.307   2.913  0.1733  0.2125 -0.2692
   63MOL   O20130085   6.837   0.430   2.933  0.2362 -0.0837 -0.1006
   63MOL   O20230086   6.826   0.184   2.888 -0.1951 -0.2854 -0.5243
   63MOL   C20330087   6.647   0.285   3.057 -0.3731 -1.2082  0.5899
   63MOL   C20430088   6.684   0.192   3.157 -0.7416  0.1238 -0.2553
   63MOL   C20530089   6.601   0.181   3.273  0.0002 -0.1379  0.2326
   63MOL   C20630090   6.493   0.268   3.296 -0.3232 -0.5418 -0.4002
   63MOL   C20730091   6.470   0.367   3.202 -0.2874 -0.1158 -0.5426
   63MOL   C20830092   6.538   0.375   3.081  0.3403 -0.5840 -0.3589
   63MOL   O20930093   6.427   0.261   3.415 -0.4470 -0.0971  0.3418
   63MOL   H21030094   6.471   0.587   2.628  1.3810  0.2256  1.0798
   63MOL   H21130095   6.680   0.542   2.757 -1.6981  0.6725  1.2774
   63MOL   H21230096   6.568   0.127   2.799  1.9761  0.7889 -0.7900
   63MOL   H21330097   6.366   0.174   2.657 -1.5679  0.8572  0.3395
   63MOL   H21430098   6.762   0.120   3.142  0.0131  0.5002  1.7157
   63MOL   H21530099   6.616   0.097   3.340 -0.1420 -0.6816 -0.4173
   63MOL   H21630100   6.390   0.438   3.220 -0.3864  0.5747 -3.4346
   63MOL   H21730101   6.521   0.451   3.007  1.8584  1.5989  1.4644
   63MOL   C21830102   6.296   0.385   3.561 -0.5381 -0.5140  0.4857
   63MOL   C21930103   6.288   0.479   3.665  0.0654  0.4239 -0.8990
   63MOL   C22030104   6.400   0.553   3.704 -0.2498  0.0315 -0.1368
   63MOL   C22130105   6.517   0.546   3.629  0.0371  0.0125  0.7290
   63MOL   C22230106   6.534   0.445   3.528  0.2254 -0.1012 -0.0880
   63MOL   C22330107   6.422   0.366   3.504  0.4893 -0.2552 -0.0060
   63MOL   S22430108   6.393   0.658   3.852  0.1189 -0.0483  0.2546
   63MOL   O22530109   6.319   0.586   3.957 -0.5547  0.7984  0.1761
   63MOL   O22630110   6.361   0.798   3.816  0.0927  0.3636  0.4672
   63MOL   C22730111   6.558   0.655   3.920  0.6449  0.3858  0.0253
   63MOL   C22830112   6.643   0.545   3.897  0.0005  0.1936  0.2576
   63MOL   C22930113   6.768   0.539   3.962 -0.5483 -0.7825 -0.4024
   63MOL   C23030114   6.810   0.642   4.050  0.1816 -1.0012 -0.0046
   63MOL   C23130115   6.724   0.755   4.065  0.5558 -0.0726 -0.0491
   63MOL   C23230116   6.601   0.760   3.996  0.0311 -0.1506 -0.0110
   63MOL   O23330117   6.934   0.640   4.117 -0.0079  0.0608  0.1201
   63MOL   H23430118   6.211   0.323   3.536 -1.5317  0.6275  0.9741
   63MOL   H23530119   6.192   0.483   3.716 -0.0506  0.7548 -1.1401
   63MOL   H23630120   6.605   0.604   3.652 -0.5441  0.9683  0.5393
   63MOL   H23730121   6.629   0.415   3.486  0.5051  0.1611  0.3564
   63MOL   H23830122   6.618   0.461   3.834 -0.9837  1.2515 -0.7734
   63MOL   H23930123   6.832   0.453   3.948 -0.0261 -0.6161  0.8446
   63MOL   H24030124   6.762   0.839   4.121 -0.3070  0.9592 -0.9746
   63MOL   H24130125   6.534   0.845   4.000  1.3359  0.9536 -1.1274
   63MOL   C24230126   6.944   0.595   4.353 -0.6307 -0.2739 -0.3694
   63MOL   C24330127   6.959   0.509   4.459 -0.5191 -0.7268  0.6403
   63MOL   C24430128   6.990   0.373   4.436 -0.1348  0.6354 -0.2889
   63MOL   C24530129   6.990   0.323   4.304  0.3650 -0.4886  0.0077
   63MOL   C24630130   6.976   0.415   4.198 -0.8516  0.1679  1.0722
   63MOL   C24730131   6.954   0.552   4.218 -0.8224  0.0739  0.0679
   63MOL   S24830132   7.033   0.267   4.569  0.3509 -0.2706  0.7157
   63MOL   O24930133   6.915   0.191   4.610  0.0488  0.5710 -0.2314
   63MOL   O25030134   7.088   0.348   4.676  0.0929 -0.1421 -0.5880
   63MOL   C25130135   7.161   0.151   4.511  0.5799 -0.1191  0.4784
   63MOL   C25230136   7.117   0.024   4.479 -0.2492  0.2997 -0.4981
   63MOL   C25330137   7.211   8.358   4.420 -0.0937  0.5426 -0.2613
   63MOL   C25430138   7.352   8.393   4.404 -0.1843 -1.0163 -0.5440
   63MOL   C25530139   7.385   0.100   4.431 -0.1023 -0.1614  0.4289
   63MOL   C25630140   7.292   0.190   4.496 -0.1443  0.2167 -0.1870
   63MOL   O25730141   7.447   8.307   4.357 -0.0504  0.0750  0.6553
   63MOL   H25830142   6.921   0.696   4.383  0.3313 -0.7631  2.0617
   63MOL   H25930143   6.949   0.548   4.559 -0.3291  1.6332 -0.2319
   63MOL   H26030144   7.003   0.216   4.292 -0.7755 -0.5119 -1.1062
   63MOL   H26130145   6.985   0.387   4.094  2.2967  0.6612  1.1668
   63MOL   H26230146   7.014   0.007   4.505 -1.2323  4.9405 -0.9947
   63MOL   H26330147   7.172   8.263   4.385 -3.3535  0.8853  2.2154
   63MOL   H26430148   7.481   0.140   4.399 -1.0226  0.5360 -1.5546
   63MOL   H26530149   7.317   0.293   4.514 -1.9027  0.3589  1.7966
   63MOL   C26630150   7.332   8.181   4.181 -0.1089  0.0099 -0.7041
   63MOL   C26730151   7.288   8.057   4.134  0.8517 -0.1718  0.2061
   63MOL   C26830152   7.326   7.940   4.205  0.2323 -0.2602 -0.4173
   63MOL   C26930153   7.423   7.947   4.310 -0.7241  0.6817  0.0789
   63MOL   C27030154   7.459   8.071   4.362  0.1449 -0.0161 -0.3175
   63MOL   C27130155   7.416   8.188   4.299  0.4575  0.0172  0.7660
   63MOL   S27230156   7.257   7.783   4.167 -0.1377 -0.0688  0.2161
   63MOL   O27330157   7.113   7.805   4.142 -0.3300 -0.4104  0.3650
   63MOL   O27430158   7.292   7.685   4.265 -0.1837 -0.0811 -0.1736
   63MOL   C27530159   7.338   7.723   4.015 -0.5388 -0.1147 -0.5231
   63MOL   C27630160   7.449   7.637   4.024 -0.3917 -0.3542  0.6719
   63MOL   C27730161   7.511   7.592   3.905 -0.0106  0.0881 -0.1563
   63MOL   C27830162   7.464   7.634   3.778 -0.2862 -0.1906 -0.4137
   63MOL   C27930163   7.351   7.718   3.768  0.1616  0.7964 -0.1058
   63MOL   C28030164   7.293   7.762   3.888 -0.6241  0.8833  0.2067
   63MOL   O28130165   7.525   7.585   3.666  0.3688  0.6679 -0.3327
   63MOL   H28230166   7.297   8.270   4.132 -3.4685  0.1280  1.7998
   63MOL   H28330167   7.207   8.060   4.062 -1.3461  1.0255  2.6306
   63MOL   H28430168   7.450   7.855   4.360 -2.6560  1.2310  2.2416
   63MOL   H28530169   7.524   8.074   4.448 -0.3787 -1.0862  0.1220
   63MOL   H28630170   7.485   7.609   4.122 -0.8645  1.9748  1.5546
   63MOL   H28730171   7.606   7.541   3.913 -1.1938 -1.7005  4.0166
   63MOL   H28830172   7.306   7.741   3.673 -1.1098  0.9570  0.5323
   63MOL   H28930173   7.205   7.823   3.874 -1.3970 -0.2703 -0.0721
   63MOL   C29030174   7.647   7.783   3.572 -0.4981  0.0155 -0.2282
   63MOL   C29130175   7.671   7.862   3.458 -0.8717 -0.3942 -0.1185
   63MOL   C29230176   7.600   7.843   3.340 -0.1120 -1.0318  0.0499
   63MOL   C29330177   7.513   7.740   3.330 -0.3363  0.4722 -0.4747
   63MOL   C29430178   7.483   7.658   3.436  0.9058 -0.0612  0.1610
   63MOL   C29530179   7.551   7.672   3.558 -0.4727  0.2516 -0.1209
   63MOL   S29630180   7.630   7.948   3.199 -0.2766 -0.2453  0.1028
   63MOL   O29730181   7.524   7.909   3.107 -0.1335  0.3460  0.4727
   63MOL   O29830182   7.769   7.937   3.154 -0.0481  0.5642  0.4563
   63MOL   C29930183   7.604   8.115   3.252  0.0984  0.0719  0.1231
   63MOL   C30030184   7.492   8.136   3.332  0.9527  0.2631 -0.2493
   63MOL   C30130185   7.475   8.263   3.391  0.4591 -0.3116 -0.3790
   63MOL   C30230186   7.562   8.371   3.362  0.4701 -0.7894  0.2047
   63MOL   C30330187   7.664   8.354   3.265 -0.2870 -0.0877 -0.2084
   63MOL   C30430188   7.684   8.221   3.211  0.0904  0.7128  0.5402
   63MOL   O30530189   7.554   0.069   3.419 -0.2213 -0.0181  0.2713
   63MOL   H30630190   7.708   7.801   3.659  2.0741  0.2336 -2.0059
   63MOL   H30730191   7.734   7.949   3.465  0.7169 -1.1433 -3.6079
   63MOL   H30830192   7.456   7.722   3.240  1.2120 -2.4677 -0.9510
   63MOL   H30930193   7.404   7.587   3.415  1.9300 -1.1210 -0.1219
   63MOL   H31030194   7.428   8.054   3.362 -0.0532  0.5329 -1.5932
   63MOL   H31130195   7.391   8.265   3.459  1.3673  1.2479  0.7670
   63MOL   H31230196   7.740   0.003   3.243 -0.3590 -0.0768 -0.4288
   63MOL   H31330197   7.758   8.189   3.139 -1.0107 -0.1798 -0.2036
   63MOL   C31430198   7.379   0.197   3.326  0.0813  0.4281 -0.0816
   63MOL   C31530199   7.253   0.245   3.335  0.4034 -0.3338  0.0458
   63MOL   C31630200   7.177   0.246   3.454  0.0169 -0.2147 -0.2330
   63MOL   C31730201   7.235   0.186   3.571 -0.1554  0.3324  0.0295
   63MOL   C31830202   7.362   0.128   3.560 -0.2002 -0.9774 -0.2504
   63MOL   C31930203   7.434   0.135   3.437  1.1745 -0.7591 -0.5994
   63MOL   S32030204   7.005   0.297   3.460  0.0266  0.0138 -0.2114
   63MOL   O32130205   6.973   0.329   3.601  0.1915  0.0317  0.0406
   63MOL   O32230206   6.933   0.183   3.394  0.1851  1.0437  0.2834
   63MOL   C32330207   6.994   0.442   3.360  0.6288 -0.4648  0.6579
   63MOL   C32430208   7.083   0.550   3.363 -0.2631 -0.1661 -0.4268
   63MOL   C32530209   7.073   0.667   3.290  0.0209  0.3736  0.0166
   63MOL   C32630210   6.961   0.678   3.205  0.3103 -0.1268 -0.5943
   63MOL   C32730211   6.868   0.575   3.204  0.0988 -0.7852  0.1752
   63MOL   C32830212   6.879   0.460   3.285 -0.6628  0.0033 -0.1196
   63MOL   O32930213   6.942   0.783   3.120 -0.0389 -0.8243 -0.1690
   63MOL   H33030214   7.428   0.186   3.230  2.8197 -1.6220  1.4448
   63MOL   H33130215   7.200   0.288   3.251 -0.5296 -2.0016 -0.2426
   63MOL   H33230216   7.186   0.192   3.668  0.4182 -1.5977  0.4393
   63MOL   H33330217   7.420   0.086   3.641 -0.4905  0.1080  0.5436
   63MOL   H33430218   7.165   0.528   3.429  0.4346 -1.4560 -1.6982
   63MOL   H33530219   7.140   0.750   3.301 -1.7180  1.8408 -0.1541
   63MOL   H33630220   6.776   0.593   3.151  1.0204 -0.1086 -1.2185
   63MOL   H33730221   6.799   0.389   3.301  0.6932 -1.6656 -0.5151
   63MOL   C33830222   6.981   0.986   3.253  0.1117 -0.2918  0.3480
   63MOL   C33930223   7.029   1.117   3.264  0.7118  0.4607 -0.5235
   63MOL   C34030224   7.112   1.163   3.157  0.0840  0.4100 -0.3247
   63MOL   C34130225   7.153   1.079   3.052 -0.1370  0.5304  0.6404
   63MOL   C34230226   7.092   0.955   3.044 -0.0266 -0.3576  0.1952
   63MOL   C34330227   7.004   0.907   3.135 -0.0169  0.3102  0.4618
   63MOL   S34430228   7.172   1.331   3.169  0.0112  0.4081 -0.0787
   63MOL   O34530229   7.050   1.413   3.147  0.0306  0.3311 -0.4094
   63MOL   O34630230   7.289   1.330   3.085  0.5471 -0.4278  0.5507
   63MOL   C34730231   7.228   1.368   3.341  0.0374 -0.0281 -0.7984
   63MOL   C34830232   7.165   1.469   3.419 -0.2095  0.4191 -0.7957
   63MOL   C34930233   7.200   1.485   3.555  0.2584 -0.0789  0.5357
   63MOL   C35030234   7.293   1.397   3.617 -0.0663  0.7031  0.6301
   63MOL   C35130235   7.358   1.291   3.543 -0.1115  0.5387  0.1816
   63MOL   C35230236   7.318   1.277   3.408  0.2437  0.7120 -0.1011
   63MOL   O35330237   7.323   1.411   3.745  0.3111  0.0095 -0.1788
   63MOL   H35430238   6.914   0.945   3.326  0.4103 -2.4694 -0.5760
   63MOL   H35530239   7.005   1.185   3.345  0.4545 -0.6395  0.3319
   63MOL   H35630240   7.214   1.111   2.968  0.4718  1.9373  1.6031
   63MOL   H35730241   7.111   0.884   2.965  3.1094 -0.3686  0.9002
   63MOL   H35830242   7.095   1.534   3.368 -0.5118  1.3172  0.7402
   63MOL   H35930243   7.156   1.565   3.612  1.9019  1.0333  0.2778
   63MOL   H36030244   7.433   1.227   3.585 -0.8808  0.5857  1.6407
   63MOL   H36130245   7.352   1.193   3.348 -1.9125 -0.0274 -0.3301
   63MOL   C36230246   7.558   1.474   3.792 -0.4766  0.0845  0.1032
   63MOL   C36330247   7.652   1.576   3.805 -0.7527  0.1334 -0.2104
   63MOL   C36430248   7.613   1.710   3.796  0.3165 -0.9192  0.0480
   63MOL   C36530249   7.483   1.740   3.771  0.4675  0.3413  0.1637
   63MOL   C36630250   7.381   1.642   3.757  0.6073  0.0450 -0.2855
   63MOL   C36730251   7.419   1.506   3.766  0.0682 -0.0379  0.0433
   63MOL   S36830252   7.733   1.842   3.814 -0.0712 -0.2512 -0.4466
   63MOL   O36930253   7.676   1.949   3.729  0.3078  0.0974 -0.1242
   63MOL   O37030254   7.866   1.793   3.772  0.6413  0.2316 -0.1127
   63MOL   C37130255   7.734   1.885   3.985 -0.7104 -0.1806  0.7060
   63MOL   C37230256   7.812   1.809   4.073  0.3730  0.4766  0.1138
   63MOL   C37330257   7.810   1.841   4.210  0.5507 -0.0131 -0.3575
   63MOL   C37430258   7.753   1.959   4.256  0.6250 -0.9133 -0.1750
   63MOL   C37530259   7.688   2.041   4.161  0.6931 -0.0220 -0.0350
   63MOL   C37630260   7.672   2.004   4.029  0.2176  0.0561 -0.9998
   63MOL   O37730261   7.749   1.999   4.389 -0.2710 -0.4069  0.6767
   63MOL   H37830262   7.591   1.371   3.797 -1.3438 -0.1306  1.6968
   63MOL   H37930263   7.756   1.554   3.822 -0.9124  0.5077  1.2873
   63MOL   H38030264   7.457   1.843   3.751 -0.4527 -0.0465 -0.7007
   63MOL   H38130265   7.275   1.659   3.750  0.3873  0.5263  3.4099
   63MOL   H38230266   7.870   1.728   4.031  1.0677  0.2140  1.5619
   63MOL   H38330267   7.862   1.776   4.279  0.8273 -0.7239 -1.2275
   63MOL   H38430268   7.634   2.130   4.191 -1.3788 -0.4021 -2.3903
   63MOL   H38530269   7.609   2.063   3.965 -0.7906  1.1312  0.9407
   63MOL   C38630270   7.576   1.861   4.485  0.7110  0.0454  0.4661
   63MOL   C38730271   7.458   1.860   4.568  0.0081 -0.4800  0.0014
   63MOL   C38830272   7.399   1.983   4.613 -0.1914 -0.3704  0.3882
   63MOL   C38930273   7.456   2.108   4.575  0.2019 -0.8940 -0.2532
   63MOL   C39030274   7.568   2.113   4.496 -0.0380 -0.4760 -0.4454
   63MOL   C39130275   7.629   1.992   4.451 -0.2126 -0.2794 -0.0785
   63MOL   S39230276   7.256   1.976   4.713 -0.2794  0.0385  0.1190
   63MOL   O39330277   7.240   2.113   4.770  0.3749  0.0962  0.0989
   63MOL   O39430278   7.274   1.858   4.797 -0.0478 -0.3797 -0.7163
   63MOL   C39530279   7.123   1.947   4.596  0.3448  0.5818  0.1372
   63MOL   C39630280   7.011   2.031   4.573 -0.0581 -0.5853 -0.0291
   63MOL   C39730281   6.917   2.001   4.476  0.1581 -0.5117 -0.5686
   63MOL   C39830282   6.921   1.881   4.411 -0.6643  0.0225 -0.0809
   63MOL   C39930283   7.027   1.791   4.431  0.7824 -0.0721  0.5285
   63MOL   C40030284   7.124   1.825   4.531  0.3423  0.1259 -0.2926
   63MOL   O40130285   6.820   1.849   4.323  0.5014 -0.1408 -0.4951
   63MOL   H40230286   7.641   1.776   4.468 -2.4301 -1.8012 -2.8229
   63MOL   H40330287   7.419   1.768   4.609 -0.1142 -0.3783  0.1150
   63MOL   H40430288   7.406   2.200   4.603  1.1565 -0.8335  1.2915
   63MOL   H40530289   7.610   2.203   4.453 -1.9153  0.9877  0.7420
   63MOL   H40630290   7.003   2.120   4.634 -2.2140 -0.6478 -0.2102
   63MOL   H40730291   6.837   2.072   4.462 -1.3489 -2.2598 -0.8754
   63MOL   H40830292   7.039   1.706   4.367  1.2604 -1.4993  2.4708
   63MOL   H40930293   7.202   1.756   4.561  0.0889 -0.2835 -0.5647
   63MOL   C41030294   6.605   1.871   4.408  0.3569  0.2148  0.7061
   63MOL   C41130295   6.493   1.812   4.466  0.2119  0.7539 -0.0119
   63MOL   C41230296   6.497   1.675   4.501  0.1767  0.0339  0.1253
   63MOL   C41330297   6.609   1.595   4.470 -0.8410  0.3484 -0.7915
   63MOL   C41430298   6.717   1.652   4.406 -0.4285 -0.2556  0.1707
   63MOL   C41530299   6.713   1.789   4.376 -0.2896 -0.5206  0.2641
   63MOL   S41630300   6.361   1.589   4.574 -0.0984 -0.3147 -0.0624
   63MOL   O41730301   6.255   1.689   4.598 -0.6434  0.0008  0.4104
   63MOL   O41830302   6.408   1.505   4.688  0.0999 -0.7324  0.1337
   63MOL   C41930303   6.302   1.482   4.451 -0.0614  0.7046  0.1785
   63MOL   C42030304   6.230   1.537   4.350 -0.4211  0.1852  0.5687
   63MOL   C42130305   6.192   1.459   4.240  0.1892 -0.3690  0.6306
   63MOL   C42230306   6.219   1.322   4.233 -0.1823 -1.0799 -0.2660
   63MOL   C42330307   6.299   1.265   4.335  0.1391 -0.1222 -0.3682
   63MOL   C42430308   6.336   1.350   4.443  0.0321 -0.1762 -0.2383
   63MOL   O42530309   6.185   1.255   4.117  0.0984 -0.1140 -0.4607
   63MOL   H42630310   6.613   1.971   4.370  1.0821 -0.0956  0.0093
   63MOL   H42730311   6.400   1.865   4.475 -0.0057  0.0223  2.2694
   63MOL   H42830312   6.611   1.492   4.503 -0.0196  0.7824  0.5401
   63MOL   H42930313   6.803   1.601   4.365  0.1833  0.8075  0.1168
   63MOL   H43030314   6.195   1.638   4.360 -1.7259 -0.3143  1.1099
   63MOL   H43130315   6.129   1.498   4.162 -0.2509 -0.9528  0.6961
   63MOL   H43230316   6.332   1.162   4.341  0.5308  0.0478  0.4681
   63MOL   H43330317   6.397   1.308   4.522  0.0680  0.0849 -0.1279
   63MOL   C43430318   6.005   1.122   4.219  0.9803 -0.7521 -0.3994
   63MOL   C43530319   5.905   1.019   4.209  0.3587  0.6926  0.0819
   63MOL   C43630320   5.879   0.960   4.082 -0.0724 -0.0651 -0.5318
   63MOL   C43730321   5.947   1.008   3.965 -1.2022  0.3423 -0.1281
   63MOL   C43830322   6.045   1.115   3.977  0.0653 -0.5753  0.3367
   63MOL   C43930323   6.079   1.166   4.107  0.0342  0.2662 -0.1447
   63MOL   S44030324   5.757   0.829   4.053 -0.1627  0.2889 -0.1680
   63MOL   O44130325   5.722   0.823   3.911 -0.3287  0.6195  0.1209
   63MOL   O44230326   5.648   0.842   4.157 -0.0976 -0.0882  0.2675
   63MOL   C44330327   5.851   0.685   4.088  0.3997  0.3605  0.1323
   63MOL   C44430328   5.984   0.682   4.128 -0.5651 -0.0352 -0.4877
   63MOL   C44530329   6.044   0.555   4.146  0.5265 -0.2029 -0.5151
   63MOL   C44630330   5.971   0.435   4.141  0.5659 -0.6990 -0.3713
   63MOL   C44730331   5.838   0.440   4.100 -0.7012  0.6962 -0.2597
   63MOL   C44830332   5.780   0.563   4.075  0.3024  0.2894 -0.6724
   63MOL   O44930333   6.044   0.319   4.164 -0.1329  1.1329 -0.2864
   63MOL   H45030334   6.035   1.154   4.318 -3.2200 -0.1004  0.7591
   63MOL   H45130335   5.860   0.982   4.300 -0.1976  1.5184  0.1446
   63MOL   H45230336   5.930   0.955   3.872 -1.5969  1.6563 -0.8076
   63MOL   H45330337   6.087   1.156   3.887 -2.3294  1.0634 -0.0755
   63MOL   H45430338   6.044   0.771   4.133  0.3421 -0.6354 -0.7014
   63MOL   H45530339   6.147   0.555   4.176  0.7065 -1.5202 -1.1218
   63MOL   H45630340   5.781   0.351   4.081  0.4504  0.2689 -1.8376
   63MOL   H45730341   5.679   0.567   4.038 -0.3197  0.0987  0.9796
   63MOL   C45830342   5.890   0.153   4.249  0.3705  0.5950 -0.1677
   63MOL   C45930343   5.821   0.033   4.234 -0.0510 -0.5904  0.7483
   63MOL   C46030344   5.855   8.381   4.125 -0.1328  0.1064 -0.2923
   63MOL   C46130345   5.959   8.418   4.032  0.4978 -0.2491  0.1896
   63MOL   C46230346   6.014   0.118   4.043  0.3008 -0.0281 -0.3739
   63MOL   C46330347   5.980   0.198   4.154  0.4165 -0.2629  0.0625
   63MOL   S46430348   5.767   8.221   4.112 -0.1204  0.4922  0.4139
   63MOL   O46530349   5.676   8.239   3.997 -0.0405  0.2626 -0.3975
   63MOL   O46630350   5.718   8.180   4.248 -0.3927  0.4853 -0.2224
   63MOL   C46730351   5.894   8.106   4.060  0.6184 -0.9229 -0.2767
   63MOL   C46830352   5.978   8.057   4.154 -0.6638 -0.8425  0.1710
   63MOL   C46930353   6.090   7.978   4.114 -0.5007  0.0022 -0.3007
   63MOL   C47030354   6.109   7.948   3.977 -0.3450  0.0807 -1.0743
   63MOL   C47130355   6.013   7.990   3.884  0.5808  0.4859  0.8873
   63MOL   C47230356   5.908   8.082   3.921 -0.3083 -0.6562 -1.2916
   63MOL   O47330357   6.220   7.886   3.937  0.3632 -0.0355  0.9636
   63MOL   H47430358   5.854   0.219   4.327 -0.5275  0.1636 -0.2107
   63MOL   H47530359   5.754   8.423   4.312  0.2161 -1.1321  0.7370
   63MOL   H47630360   5.986   8.353   3.950  2.7828  0.0904  0.6467
   63MOL   H47730361   6.094   0.147   3.977  0.7068 -2.7801 -1.1328
   63MOL   H47830362   5.975   8.081   4.260  0.8352 -1.7833  0.4393
   63MOL   H47930363   6.152   7.930   4.188  0.3540 -1.6202 -2.0098
   63MOL   H48030364   6.023   7.966   3.779  0.4108 -1.3645  1.2666
   63MOL   H48130365   5.835   8.126   3.855 -1.6064 -1.0323 -0.1452
   63MOL   H48230366   6.274   7.942   3.884 -0.6218  0.0312  0.0109
   64MOL     C130367   4.564   2.377   2.347  0.1665  0.7268 -0.0750
   64MOL     C230368   4.430   2.344   2.375  0.0270 -0.1778 -0.4008
   64MOL     C330369   4.327   2.404   2.309  0.3552  0.1803  0.2048
   64MOL     C430370   4.347   2.498   2.210  0.3718 -0.2397  0.5887
   64MOL     C530371   4.482   2.529   2.177  0.1779  0.0860 -0.4944
   64MOL     C630372   4.585   2.462   2.244 -0.4056  0.1661 -0.0594
   64MOL     S730373   4.162   2.353   2.351 -0.2818 -0.3050  0.4386
   64MOL     O830374   4.169   2.235   2.434 -0.1675 -0.4372 -0.6737
   64MOL     O930375   4.078   2.348   2.234 -0.6859  0.1331 -0.5763
   64MOL    C1030376   4.104   2.487   2.461  0.1449  0.1860 -0.6092
   64MOL    C1130377   4.184   2.530   2.566 -0.2697  0.0296 -1.6536
   64MOL    C1230378   4.147   2.632   2.652  0.4305  0.4394  0.3877
   64MOL    C1330379   4.024   2.701   2.629 -0.6435 -0.1576  0.8093
   64MOL    C1430380   3.941   2.658   2.522  1.1673 -0.0021 -0.4056
   64MOL    C1530381   3.979   2.548   2.443  0.3657  0.6065 -0.4842
   64MOL    O1630382   3.989   2.809   2.705 -0.5079 -0.5114 -0.5230
   64MOL    H1730383   4.643   2.329   2.404  1.5374 -0.3753 -2.8019
   64MOL    H1830384   4.405   2.272   2.451  1.2378  0.4333  0.5936
   64MOL    H1930385   4.260   2.543   2.166  0.1023 -1.6252 -0.3333
   64MOL    H2030386   4.513   2.601   2.104 -0.3765  0.7690 -0.0626
   64MOL    H2130387   4.277   2.476   2.578  0.4318  1.9969  2.4802
   64MOL    H2230388   4.214   2.658   2.733 -0.3893 -0.1454  1.2766
   64MOL    H2330389   3.841   2.700   2.525  1.1767 -0.0832  3.3028
   64MOL    H2430390   3.920   2.495   2.369 -0.6224  1.3495 -0.2329
   64MOL    H2530391   4.685   2.476   2.206 -0.7346  0.4530 -0.8182
   64MOL    C2630392   4.038   2.852   2.938  0.4251  0.2428  0.5311
   64MOL    C2730393   4.006   2.859   3.074 -0.3534  0.4102 -0.7116
   64MOL    C2830394   3.875   2.824   3.115 -0.7209 -0.1326 -0.5270
   64MOL    C2930395   3.786   2.781   3.016  0.0233  0.0200 -0.0945
   64MOL    C3030396   3.824   2.771   2.882  0.1364 -0.1408  0.4625
   64MOL    C3130397   3.954   2.810   2.841  0.3405 -0.5977  0.5416
   64MOL    S3230398   3.840   2.804   3.291 -0.0461  0.2942 -0.6190
   64MOL    O3330399   3.964   2.797   3.372 -0.1633  0.0809  0.0212
   64MOL    O3430400   3.742   2.697   3.302  0.0482 -0.2515  0.1857
   64MOL    C3530401   3.754   2.946   3.334  0.1526  0.8563  0.0395
   64MOL    C3630402   3.637   2.979   3.263  0.2148 -0.2480 -0.3210
   64MOL    C3730403   3.556   3.079   3.310 -0.0538  0.9266 -0.7403
   64MOL    C3830404   3.584   3.148   3.429 -0.2661  0.8280  0.1918
   64MOL    C3930405   3.699   3.123   3.505  0.2300  0.0175  0.0309
   64MOL    C4030406   3.792   3.021   3.450 -0.2021  0.2827  0.3371
   64MOL    O4130407   3.491   3.249   3.471 -0.0856 -0.0177 -0.6713
   64MOL    H4230408   4.130   2.901   2.907 -0.1428  0.2604 -1.1595
   64MOL    H4330409   4.068   2.904   3.150 -2.7929  1.7918  0.5040
   64MOL    H4430410   3.687   2.743   3.038  0.7361 -2.3968 -0.8949
   64MOL    H4530411   3.749   2.746   2.808  0.7262 -0.7981  0.0803
   64MOL    H4630412   3.601   2.927   3.175 -1.0271  1.2104 -0.7050
   64MOL    H4730413   3.468   3.119   3.261  0.2797  1.6880 -0.7309
   64MOL    H4830414   3.729   3.182   3.590 -0.4227 -0.1255  0.3612
   64MOL    H4930415   3.875   2.991   3.513 -0.5183 -2.0748 -0.3248
   64MOL    C5030416   3.256   3.298   3.452 -0.3248  0.4004  0.0350
   64MOL    C5130417   3.123   3.257   3.468 -0.8548  0.6036 -0.4350
   64MOL    C5230418   3.092   3.128   3.507  0.1386  0.0632 -0.1487
   64MOL    C5330419   3.192   3.027   3.512 -0.5711  0.3593 -0.2632
   64MOL    C5430420   3.324   3.067   3.505 -0.2997 -0.0737 -0.0502
   64MOL    C5530421   3.361   3.203   3.480 -0.1865  0.1182 -0.3153
   64MOL    S5630422   2.923   3.085   3.527 -0.0783 -0.4002 -0.3759
   64MOL    O5730423   2.903   2.939   3.543  0.4727 -0.1782 -0.5850
   64MOL    O5830424   2.852   3.151   3.417 -0.0174  0.0140  0.7897
   64MOL    C5930425   2.872   3.161   3.679  0.0893  0.1562  0.4486
   64MOL    C6030426   2.744   3.209   3.678  0.1242  0.0854  0.4123
   64MOL    C6130427   2.698   3.279   3.793  0.3231  0.1511  0.4025
   64MOL    C6230428   2.786   3.306   3.901  0.2306  0.0476 -0.3639
   64MOL    C6330429   2.916   3.259   3.895 -0.1789  0.1270  0.5070
   64MOL    C6430430   2.961   3.179   3.789  0.3647  0.1225  0.1850
   64MOL    O6530431   2.739   3.371   4.011  0.0019 -0.2025  0.9411
   64MOL    H6630432   3.282   3.401   3.432  1.5120  0.6217  3.2064
   64MOL    H6730433   3.047   3.334   3.468 -1.5004 -0.0352 -1.5179
   64MOL    H6830434   3.172   2.922   3.526 -0.1204  0.2551 -0.3976
   64MOL    H6930435   3.403   2.995   3.519  1.0027  0.7932 -2.5821
   64MOL    H7030436   2.680   3.181   3.596  1.6740 -0.4251 -0.6510
   64MOL    H7130437   2.602   3.328   3.798  0.5593  0.7179 -0.4802
   64MOL    H7230438   2.975   3.256   3.986  2.1018  1.0219 -0.8948
   64MOL    H7330439   3.062   3.140   3.789  0.1529 -0.4537 -0.5355
   64MOL    C7430440   2.795   3.600   3.973  1.1549 -0.1502  0.4088
   64MOL    C7530441   2.850   3.720   4.016 -0.5951  0.5183 -0.6644
   64MOL    C7630442   2.906   3.724   4.149 -0.7130 -0.0784  0.0667
   64MOL    C7730443   2.924   3.604   4.223 -0.5590 -0.3018  0.2922
   64MOL    C7830444   2.865   3.487   4.175 -0.1483 -0.0183  1.0867
   64MOL    C7930445   2.803   3.480   4.047 -0.4131  0.1189  0.3246
   64MOL    S8030446   2.970   3.871   4.227 -0.0288 -0.4855  0.2640
   64MOL    O8130447   3.017   3.959   4.120  0.4959 -0.2898 -0.5201
   64MOL    O8230448   3.066   3.833   4.330  0.4475 -0.1675 -0.2290
   64MOL    C8330449   2.835   3.962   4.310  0.8458 -0.3479 -0.1518
   64MOL    C8430450   2.796   4.097   4.283  0.1388  0.0498  0.1125
   64MOL    C8530451   2.683   4.146   4.347  0.2832 -0.3770 -0.8507
   64MOL    C8630452   2.617   4.077   4.452 -0.8410  0.6967  0.1934
   64MOL    C8730453   2.661   3.948   4.484 -0.2005  0.2497 -0.3880
   64MOL    C8830454   2.771   3.896   4.414 -0.0845  0.4213 -0.0426
   64MOL    O8930455   2.502   4.125   4.502 -0.2011 -0.5107 -0.7891
   64MOL    H9030456   2.752   3.591   3.874  1.2560  1.9182  0.1352
   64MOL    H9130457   2.847   3.805   3.949 -1.0688 -1.2926 -3.0239
   64MOL    H9230458   2.987   3.601   4.311  0.6143  2.2333 -0.4098
   64MOL    H9330459   2.875   3.393   4.227 -0.9659 -1.5529 -1.4063
   64MOL    H9430460   2.843   4.155   4.204 -1.1405 -1.3791 -1.7438
   64MOL    H9530461   2.653   4.247   4.323  0.0994 -0.0708  0.6460
   64MOL    H9630462   2.618   3.881   4.556  0.1490  0.3835 -0.0503
   64MOL    H9730463   2.793   3.795   4.445 -2.0063  0.3826  1.3074
   64MOL    C9830464   2.307   3.991   4.502 -0.0807  0.4234  0.4896
   64MOL    C9930465   2.207   3.928   4.427 -0.5917  0.5282  0.1325
   64MOL   C10030466   2.190   3.953   4.294  0.1441  0.1737  0.3379
   64MOL   C10130467   2.257   4.057   4.232 -0.0658  0.0314  0.4312
   64MOL   C10230468   2.361   4.130   4.307 -0.5957 -0.8463  0.6785
   64MOL   C10330469   2.390   4.084   4.435  0.3123 -0.2223 -0.4907
   64MOL   S10430470   2.044   3.867   4.218  0.0072  0.2829 -0.4110
   64MOL   O10530471   1.944   3.859   4.326 -0.4702  0.0472  0.1052
   64MOL   O10630472   2.093   3.739   4.160  0.4294  0.2818  0.5904
   64MOL   C10730473   1.984   3.969   4.083  0.0257  0.5174 -0.6074
   64MOL   C10830474   1.962   3.908   3.956  0.1204 -0.4519  0.4861
   64MOL   C10930475   1.916   3.989   3.848  0.1603  0.1689  0.5166
   64MOL   C11030476   1.896   4.131   3.865 -0.5288  0.0973 -0.0882
   64MOL   C11130477   1.922   4.191   3.989  0.2700  0.2934  0.0068
   64MOL   C11230478   1.960   4.107   4.097  0.3086 -0.1966  0.2013
   64MOL   O11330479   1.864   4.215   3.760  0.6840  0.6630 -0.2654
   64MOL   H11430480   2.317   3.961   4.605  1.8340  0.2306  0.2672
   64MOL   H11530481   2.147   3.854   4.477 -0.9186  0.4250 -0.4120
   64MOL   H11630482   2.229   4.084   4.131 -1.3512 -0.4555  0.6494
   64MOL   H11730483   2.433   4.201   4.270 -3.4629  2.0005  0.2987
   64MOL   H11830484   1.999   3.809   3.934  1.1228 -0.3751  1.7829
   64MOL   H11930485   1.904   3.946   3.749 -0.2116 -1.7035  1.3718
   64MOL   H12030486   1.904   4.297   4.004  0.2435  0.2889  0.0041
   64MOL   H12130487   1.974   4.151   4.195  0.2374 -0.8161  0.4950
   64MOL   C12230488   1.909   4.125   3.538  0.5913 -0.1013 -0.6788
   64MOL   C12330489   1.986   4.126   3.422 -0.7917 -0.1350  0.6573
   64MOL   C12430490   2.112   4.190   3.428 -0.0430  0.2449 -0.3225
   64MOL   C12530491   2.159   4.251   3.548 -0.3316 -0.4388 -0.3967
   64MOL   C12630492   2.065   4.273   3.651  0.3515 -0.4801  0.0129
   64MOL   C12730493   1.942   4.204   3.650  0.1998 -0.0833 -0.7692
   64MOL   S12830494   2.207   4.189   3.280  0.2700  0.0088 -0.1383
   64MOL   O12930495   2.156   4.090   3.181  0.0687  0.1668  0.3752
   64MOL   O13030496   2.347   4.167   3.320  0.0010  0.5674 -0.3226
   64MOL   C13130497   2.205   4.359   3.214  0.6206 -0.7244 -0.2608
   64MOL   C13230498   2.207   4.377   3.067  0.1400  0.5470  0.6790
   64MOL   C13330499   2.214   4.495   3.010  0.6601  0.3368  0.0861
   64MOL   C13430500   2.227   4.611   3.099  0.2832  1.1083 -0.9273
   64MOL   C13530501   2.231   4.606   3.244 -0.4833 -0.1767 -0.1828
   64MOL   C13630502   2.224   4.475   3.296 -0.2442  0.8514  0.0187
   64MOL   O13730503   2.238   4.730   3.032  0.6941  0.0616 -0.2502
   64MOL   H13830504   1.813   4.079   3.519  1.0997 -0.0208 -3.8019
   64MOL   H13930505   1.943   4.083   3.332 -0.9041 -0.6011  0.9326
   64MOL   H14030506   2.257   4.294   3.542  0.7412 -2.6094  0.9708
   64MOL   H14130507   2.087   4.339   3.733 -1.0348  1.5108 -1.1618
   64MOL   H14230508   2.187   4.292   3.004  0.0052  2.1626 -1.4955
   64MOL   H14330509   2.226   4.501   2.903  0.0337 -1.2988 -0.0868
   64MOL   H14430510   2.239   4.687   3.315 -1.0206 -1.3947  1.2851
   64MOL   H14530511   2.235   4.468   3.403  0.8243  2.6969  0.0497
   64MOL   C14630512   2.151   4.947   3.073  0.2830  0.9265 -0.6262
   64MOL   C14730513   2.042   5.032   3.072  0.2150 -0.7298 -0.7287
   64MOL   C14830514   1.916   4.991   3.040 -0.1312  0.3960 -0.0405
   64MOL   C14930515   1.891   4.858   3.000 -0.5846  0.4067 -0.1244
   64MOL   C15030516   2.000   4.766   3.005  0.7440  0.2649 -0.3156
   64MOL   C15130517   2.130   4.814   3.038 -0.5505 -0.7639  0.2159
   64MOL   S15230518   1.773   5.092   3.062  0.1629  0.0622  0.1946
   64MOL   O15330519   1.677   5.085   2.946 -0.9903 -0.8141  0.0386
   64MOL   O15430520   1.816   5.225   3.104 -0.1672 -0.6539  0.8056
   64MOL   C15530521   1.689   5.028   3.206  0.4765  0.1879 -0.2556
   64MOL   C15630522   1.740   5.056   3.330  0.3103 -0.5808  0.5315
   64MOL   C15730523   1.694   4.989   3.446  0.0328  0.8302 -0.3185
   64MOL   C15830524   1.586   4.896   3.432 -0.2971  0.7003  0.6691
   64MOL   C15930525   1.517   4.890   3.308 -0.4923  0.3135 -0.2155
   64MOL   C16030526   1.575   4.948   3.193 -0.3495  0.3396  0.0475
   64MOL   O16130527   1.541   4.823   3.542  0.4697  0.0032 -0.6444
   64MOL   H16230528   2.251   4.982   3.094  0.2583  1.5096 -1.4234
   64MOL   H16330529   2.058   5.136   3.092 -1.5026 -0.9273  1.8993
   64MOL   H16430530   1.796   4.823   2.961 -1.3352  1.8000  0.3821
   64MOL   H16530531   1.986   4.663   2.977  0.4004 -0.0304  0.8925
   64MOL   H16630532   1.826   5.120   3.343  0.6871 -1.1119  0.7216
   64MOL   H16730533   1.746   5.003   3.539 -0.8598  0.8621  0.1828
   64MOL   H16830534   1.421   4.841   3.300  0.1558 -1.0131 -0.0578
   64MOL   H16930535   1.527   4.930   3.098  2.7606 -1.1884 -1.3180
   64MOL   C17030536   1.734   4.713   3.637  0.2537 -0.1785  0.4696
   64MOL   C17130537   1.827   4.705   3.741 -0.0391 -0.6804 -0.4807
   64MOL   C17230538   1.802   4.772   3.863  0.0235  0.6290  0.2256
   64MOL   C17330539   1.682   4.851   3.882  0.5825  0.4190 -0.4130
   64MOL   C17430540   1.590   4.860   3.775 -0.4205 -0.1191 -0.3436
   64MOL   C17530541   1.627   4.803   3.649 -0.6895  0.8397 -0.5154
   64MOL   S17630542   1.921   4.743   3.995  0.4120 -0.1188 -0.0429
   64MOL   O17730543   2.010   4.632   3.953 -0.1386  0.1846  0.1408
   64MOL   O17830544   1.851   4.728   4.121 -0.3613 -0.1647 -0.4820
   64MOL   C17930545   2.030   4.888   4.012  0.8905 -0.0676 -0.2507
   64MOL   C18030546   2.160   4.866   4.064  0.0841 -0.0399  0.1296
   64MOL   C18130547   2.238   4.983   4.082  0.3773  0.2402 -0.1164
   64MOL   C18230548   2.200   5.114   4.035 -0.0016  0.1484 -0.1528
   64MOL   C18330549   2.066   5.134   3.986 -0.3970  0.1974 -1.1017
   64MOL   C18430550   1.982   5.015   3.981 -0.4572 -0.4499  0.3021
   64MOL   O18530551   2.297   5.218   4.044 -0.5022  0.1306  0.0498
   64MOL   H18630552   1.758   4.660   3.546 -2.9747 -2.2639  0.7244
   64MOL   H18730553   1.917   4.646   3.733  0.6507  0.4203 -0.9481
   64MOL   H18830554   1.659   4.897   3.976 -1.6089 -1.2619 -0.0922
   64MOL   H18930555   1.500   4.916   3.792 -0.6518 -0.4555 -0.4610
   64MOL   H19030556   2.208   4.772   4.084 -0.1617 -0.2281 -0.1518
   64MOL   H19130557   2.335   4.967   4.126  0.5129 -1.6233 -1.0375
   64MOL   H19230558   2.024   5.224   3.944 -3.0092 -0.4649  0.0323
   64MOL   H19330559   1.877   5.024   3.958 -0.1394  0.6747 -0.8063
   64MOL   C19430560   2.173   5.366   4.198 -0.4185  0.3909 -0.0574
   64MOL   C19530561   2.149   5.493   4.253  0.3691 -0.4161  0.8571
   64MOL   C19630562   2.233   5.601   4.212  0.4021 -0.2040 -0.4895
   64MOL   C19730563   2.332   5.583   4.115  0.1543  0.0127 -0.5788
   64MOL   C19830564   2.354   5.455   4.063  0.7422  0.4962  0.9399
   64MOL   C19930565   2.272   5.343   4.101  0.8050  0.2129 -0.2631
   64MOL   S20030566   2.198   5.771   4.261 -0.2131 -0.0364  0.3428
   64MOL   O20130567   2.111   5.827   4.157 -0.6792  0.2377  0.3152
   64MOL   O20230568   2.332   5.833   4.295  0.2215 -0.6828  0.5283
   64MOL   C20330569   2.112   5.762   4.417  0.4864  0.0237  0.2014
   64MOL   C20430570   2.180   5.774   4.536  0.0387 -0.8214  0.0045
   64MOL   C20530571   2.113   5.772   4.659 -0.3521  0.5625  0.3038
   64MOL   C20630572   1.978   5.765   4.660  0.3950 -0.2440  0.9470
   64MOL   C20730573   1.901   5.752   4.543  0.5773  0.5039  0.2929
   64MOL   C20830574   1.970   5.752   4.418 -0.1830 -0.1986 -0.3660
   64MOL   O20930575   1.915   5.782   4.783  0.0593 -0.6518  0.3949
   64MOL   H21030576   2.107   5.285   4.225  0.0210  0.2762  0.7004
   64MOL   H21130577   2.053   5.500   4.303  0.6142 -2.6072  1.6855
   64MOL   H21230578   2.385   5.670   4.082 -0.3666 -0.4681 -2.7796
   64MOL   H21330579   2.424   5.426   3.987 -1.0588  1.0376 -0.9877
   64MOL   H21430580   2.285   5.796   4.522  0.0464 -1.0452 -0.2986
   64MOL   H21530581   2.156   5.798   4.755  0.9526 -0.9764  0.1613
   64MOL   H21630582   1.795   5.734   4.547  0.7231 -0.5593 -0.3695
   64MOL   H21730583   1.905   5.757   4.332  2.1779  0.5031 -2.1757
   64MOL   C21830584   1.769   5.626   4.887 -0.1459 -0.5684 -0.3917
   64MOL   C21930585   1.739   5.527   4.989  0.5846 -0.0639 -0.6306
   64MOL   C22030586   1.850   5.469   5.049 -0.7034  0.1838  0.7987
   64MOL   C22130587   1.983   5.509   5.020 -0.3596 -0.2382 -0.1809
   64MOL   C22230588   2.004   5.611   4.925  0.1887  0.2825 -0.0093
   64MOL   C22330589   1.897   5.674   4.862 -0.9058 -0.1056 -0.6961
   64MOL   S22430590   1.816   5.341   5.166 -0.0683 -0.1114 -0.3135
   64MOL   O22530591   1.686   5.375   5.232  0.6454  0.6252 -0.0778
   64MOL   O22630592   1.936   5.324   5.246  0.1765  0.8334 -0.3342
   64MOL   C22730593   1.783   5.193   5.077 -0.6586 -0.0435 -0.4985
   64MOL   C22830594   1.789   5.074   5.155  0.3246  0.7595 -0.1335
   64MOL   C22930595   1.754   4.945   5.105  0.0593  0.2774 -0.8515
   64MOL   C23030596   1.703   4.944   4.968 -0.0946  0.2464 -0.1319
   64MOL   C23130597   1.690   5.057   4.893 -0.8221  0.1280  0.1033
   64MOL   C23230598   1.738   5.187   4.942 -0.0518 -0.2223  0.4114
   64MOL   O23330599   1.652   4.826   4.908 -0.0252 -0.3747  0.2097
   64MOL   H23430600   1.684   5.662   4.831 -1.1580 -1.3177  0.6446
   64MOL   H23530601   1.638   5.495   5.011  0.6528  0.6652  0.8474
   64MOL   H23630602   2.061   5.453   5.068  0.1408  0.6415  0.0440
   64MOL   H23730603   2.094   5.665   4.900 -0.4361  1.6685  0.7093
   64MOL   H23830604   1.823   5.075   5.257  0.5243  0.4274 -0.1949
   64MOL   H23930605   1.770   4.856   5.164 -2.4187 -0.9141 -1.8539
   64MOL   H24030606   1.652   5.058   4.792 -1.2556  0.5549  0.2657
   64MOL   H24130607   1.726   5.274   4.880  0.6102 -0.0601  0.5074
   64MOL   C24230608   1.785   4.641   4.977 -0.2960 -0.6018  0.3691
   64MOL   C24330609   1.800   4.519   5.044 -0.2022  0.1346  0.1052
   64MOL   C24430610   1.685   4.449   5.093 -0.1877 -0.9397  0.5028
   64MOL   C24530611   1.556   4.501   5.075 -0.7833  0.7167  0.3319
   64MOL   C24630612   1.548   4.632   5.018  0.3758  0.3861  0.1268
   64MOL   C24730613   1.662   4.703   4.970 -1.1025  0.3234 -0.4499
   64MOL   S24830614   1.695   4.282   5.160 -0.1648 -0.3144  0.0164
   64MOL   O24930615   1.829   4.233   5.143  0.7544  0.3928 -0.4206
   64MOL   O25030616   1.586   4.199   5.107  0.3330 -0.3029 -0.3894
   64MOL   C25130617   1.677   4.288   5.332 -0.2073  0.5165  0.1492
   64MOL   C25230618   1.706   4.409   5.402  0.5016  0.2522  0.6041
   64MOL   C25330619   1.703   4.413   5.549 -0.1204  0.7094 -0.0553
   64MOL   C25430620   1.672   4.297   5.620 -0.3831  0.2319  0.1391
   64MOL   C25530621   1.636   4.184   5.543 -0.1045 -0.1269  0.3705
   64MOL   C25630622   1.641   4.175   5.406 -0.2237  0.1718  0.0510
   64MOL   O25730623   1.675   4.289   5.755 -0.5337  0.0956  0.0449
   64MOL   H25830624   1.867   4.706   4.951 -0.3300 -1.2558 -1.4355
   64MOL   H25930625   1.900   4.478   5.046  0.3788  1.5429  0.5812
   64MOL   H26030626   1.471   4.447   5.112 -0.1444  0.0189  0.7803
   64MOL   H26130627   1.454   4.682   5.002  1.0634  1.3190 -1.0902
   64MOL   H26230628   1.746   4.493   5.347  1.4691 -0.8478 -0.4066
   64MOL   H26330629   1.740   4.502   5.596 -0.4531  1.0707 -0.4685
   64MOL   H26430630   1.590   4.101   5.596 -2.1824  0.4219 -0.5581
   64MOL   H26530631   1.618   4.084   5.351 -2.4018  1.2066 -0.8244
   64MOL   C26630632   1.894   4.205   5.816  0.5473  0.8190  0.5690
   64MOL   C26730633   2.025   4.233   5.866  0.2690 -0.3519  0.4174
   64MOL   C26830634   2.056   4.364   5.904 -0.6494 -0.3231 -0.1526
   64MOL   C26930635   1.960   4.464   5.908 -0.5434 -0.1283  0.4622
   64MOL   C27030636   1.832   4.436   5.865  0.4422  0.1090 -0.9467
   64MOL   C27130637   1.797   4.311   5.808  0.2348  0.1006 -0.4717
   64MOL   S27230638   2.225   4.416   5.947  0.0986  0.0308  0.6698
   64MOL   O27330639   2.247   4.381   6.087 -0.1115  0.3039  0.1271
   64MOL   O27430640   2.240   4.557   5.909 -0.0750 -0.3411 -0.4495
   64MOL   C27530641   2.333   4.314   5.841  0.6478  0.4539  0.1747
   64MOL   C27630642   2.374   4.360   5.712  0.0352  0.3699  0.3866
   64MOL   C27730643   2.464   4.281   5.638 -0.3840  0.0101  0.0525
   64MOL   C27830644   2.520   4.164   5.695 -0.3077  0.4634 -0.6336
   64MOL   C27930645   2.474   4.120   5.819 -0.0359 -0.5867 -0.2357
   64MOL   C28030646   2.374   4.190   5.892  0.5524  0.1106 -0.5168
   64MOL   O28130647   2.625   4.088   5.647 -0.1157 -0.1843  0.1967
   64MOL   H28230648   1.866   4.111   5.770 -1.1361  1.7158 -0.2929
   64MOL   H28330649   2.104   4.161   5.854  2.6270  2.6544 -3.5589
   64MOL   H28430650   1.987   4.565   5.938 -0.5323  0.0624 -0.1838
   64MOL   H28530651   1.751   4.508   5.871 -1.4576 -2.0687  0.4577
   64MOL   H28630652   2.344   4.454   5.669 -1.2558  0.0080  0.4745
   64MOL   H28730653   2.497   4.305   5.538 -0.0120 -1.4583 -0.1951
   64MOL   H28830654   2.522   4.033   5.860  1.7004  0.6280  0.3237
   64MOL   H28930655   2.337   4.152   5.986 -0.9528  0.5822 -0.9148
   64MOL   C29030656   2.821   4.186   5.552 -0.5632 -0.2252 -0.4713
   64MOL   C29130657   2.907   4.199   5.439  0.0452  0.4913 -1.2062
   64MOL   C29230658   2.860   4.151   5.316  0.0549 -0.0750  0.9469
   64MOL   C29330659   2.725   4.114   5.295  0.1712 -0.0133 -0.1295
   64MOL   C29430660   2.649   4.097   5.411 -0.4336 -0.0804 -0.1139
   64MOL   C29530661   2.698   4.128   5.539 -0.2722  0.6104  0.1343
   64MOL   S29630662   2.968   4.184   5.177  0.0299  0.2646  0.1103
   64MOL   O29730663   3.105   4.165   5.226  0.4513  0.4010  0.2850
   64MOL   O29830664   2.927   4.320   5.134 -0.3972  0.5456 -0.1436
   64MOL   C29930665   2.923   4.074   5.053  0.5809  0.2206  0.0705
   64MOL   C30030666   2.996   3.957   5.024  0.4996  0.5096  0.2083
   64MOL   C30130667   2.954   3.875   4.916  0.4838  0.5188 -0.5416
   64MOL   C30230668   2.850   3.912   4.828 -0.4537  0.6478 -0.0222
   64MOL   C30330669   2.785   4.031   4.859  0.5186 -0.5621 -0.2828
   64MOL   C30430670   2.818   4.108   4.966  0.1958  0.3401 -0.6100
   64MOL   O30530671   2.818   3.832   4.724 -0.3498 -0.0461 -0.0211
   64MOL   H30630672   2.850   4.225   5.649 -0.0015 -0.9624 -0.3445
   64MOL   H30730673   3.004   4.242   5.458  0.5494  0.0655 -2.7743
   64MOL   H30830674   2.682   4.090   5.199  1.9077  0.4274 -1.0305
   64MOL   H30930675   2.554   4.046   5.401 -0.6935  0.2895  0.4312
   64MOL   H31030676   3.079   3.937   5.091 -0.4491  0.0422  1.2695
   64MOL   H31130677   3.008   3.785   4.890 -0.4263  0.5409 -2.6020
   64MOL   H31230678   2.711   4.055   4.784  2.4653  0.4053 -1.9391
   64MOL   H31330679   2.773   4.202   4.995 -4.0714 -2.1623  1.5112
   64MOL   C31430680   2.796   3.598   4.678 -0.8603 -0.8660  0.3859
   64MOL   C31530681   2.724   3.476   4.688  0.4843  0.3003  0.5458
   64MOL   C31630682   2.611   3.466   4.772 -0.3222  0.2000 -0.1166
   64MOL   C31730683   2.567   3.579   4.840  0.3649 -0.7729  0.6688
   64MOL   C31830684   2.636   3.702   4.828 -1.0701 -0.8715 -0.2188
   64MOL   C31930685   2.753   3.713   4.747  0.1447  0.0821 -0.5099
   64MOL   S32030686   2.523   3.310   4.791 -0.2296 -0.0640  0.2085
   64MOL   O32130687   2.480   3.268   4.657 -0.1086  0.5530  0.2673
   64MOL   O32230688   2.420   3.328   4.897 -0.0629  0.5319 -0.3044
   64MOL   C32330689   2.648   3.195   4.852  0.1311 -0.5813  0.2180
   64MOL   C32430690   2.648   3.059   4.806  0.1183  0.7012  0.9718
   64MOL   C32530691   2.741   2.966   4.856  0.2886  0.2701  0.0264
   64MOL   C32630692   2.821   3.002   4.965  0.0252  0.3973 -0.4553
   64MOL   C32730693   2.824   3.134   5.016  0.4790 -0.6918 -0.5731
   64MOL   C32830694   2.732   3.227   4.965  0.0102  0.0551 -0.6213
   64MOL   O32930695   2.910   2.912   5.018  0.5124  0.0618 -0.0289
   64MOL   H33030696   2.882   3.603   4.614 -0.9305  0.9220  0.4203
   64MOL   H33130697   2.761   3.390   4.633 -0.2539  0.3471 -0.0275
   64MOL   H33230698   2.469   3.585   4.885  0.1485 -0.7080  0.1947
   64MOL   H33330699   2.589   3.780   4.885 -2.0142 -1.1989 -0.5425
   64MOL   H33430700   2.577   3.024   4.732  0.3840 -0.0220  1.0655
   64MOL   H33530701   2.740   2.862   4.825 -0.1078  0.8543 -2.0141
   64MOL   H33630702   2.901   3.171   5.082  0.9675 -0.8669 -1.0419
   64MOL   H33730703   2.725   3.329   4.999  1.6652 -0.4079  1.1562
   64MOL   C33830704   3.001   2.896   5.248  0.0915  0.6922 -0.4004
   64MOL   C33930705   2.992   2.853   5.386 -0.2173  0.0302 -0.1458
   64MOL   C34030706   2.865   2.812   5.424  0.4001 -0.2826  0.1012
   64MOL   C34130707   2.754   2.812   5.336 -0.4798  0.1433  0.5570
   64MOL   C34230708   2.769   2.844   5.198 -0.1449 -0.0708 -0.4775
   64MOL   C34330709   2.893   2.882   5.152  0.3896  0.3485 -0.7629
   64MOL   S34430710   2.834   2.778   5.596 -0.0315  0.2657  0.1839
   64MOL   O34530711   2.863   2.634   5.617 -0.3709 -0.2641 -0.1481
   64MOL   O34630712   2.700   2.828   5.627  0.6104 -0.5318 -0.4103
   64MOL   C34730713   2.947   2.887   5.684 -0.2258 -0.5865  0.2142
   64MOL   C34830714   3.050   2.840   5.764  0.4192 -0.0141 -0.4361
   64MOL   C34930715   3.130   2.928   5.840 -0.0748 -0.0494 -0.1685
   64MOL   C35030716   3.100   3.063   5.848  0.2602 -0.0864 -0.6948
   64MOL   C35130717   2.995   3.115   5.764  0.2555 -0.1934 -0.1881
   64MOL   C35230718   2.920   3.030   5.675  0.4758 -0.1196 -0.3518
   64MOL   O35330719   3.164   3.138   5.938 -0.2264  0.2391  0.3148
   64MOL   H35430720   3.095   2.931   5.208  0.6123  1.0518  1.1166
   64MOL   H35530721   3.067   2.863   5.464 -1.1924 -3.1302  1.2719
   64MOL   H35630722   2.651   2.790   5.362 -0.3701 -4.2501 -2.2590
   64MOL   H35730723   2.686   2.842   5.130 -0.6716  1.3971  0.0967
   64MOL   H35830724   3.068   2.734   5.773  0.1325 -0.0819 -0.6472
   64MOL   H35930725   3.211   2.891   5.901 -0.7368 -2.1495 -0.5089
   64MOL   H36030726   2.959   3.217   5.765  1.9642  0.4364 -1.5078
   64MOL   H36130727   2.850   3.071   5.604 -1.1467 -2.3379 -0.0961
   64MOL   C36230728   2.982   3.117   6.105  0.7913  0.3968 -0.3713
   64MOL   C36330729   2.938   3.110   6.236 -0.1284  0.0147  0.0112
   64MOL   C36430730   3.030   3.115   6.340 -0.1364  0.5130  0.2498
   64MOL   C36530731   3.164   3.121   6.311 -0.2804  0.2003 -0.2390
   64MOL   C36630732   3.210   3.115   6.176  0.1367  0.0565  0.4163
   64MOL   C36730733   3.121   3.119   6.070 -0.1692  0.4985 -0.2746
   64MOL   S36830734   2.987   3.132   6.506 -0.3822  0.2150  0.5653
   64MOL   O36930735   3.101   3.097   6.594  0.1067  0.0710  0.4067
   64MOL   O37030736   2.861   3.058   6.520  0.3756 -1.0282 -0.2527
   64MOL   C37130737   2.955   3.313   6.520 -0.7780 -0.2233  0.0075
   64MOL   C37230738   2.820   3.359   6.533  0.6844 -0.1662  0.4322
   64MOL   C37330739   2.799   3.496   6.564  0.8194 -0.8152  0.5302
   64MOL   C37430740   2.905   3.589   6.569 -0.0206 -0.2445 -0.3581
   64MOL   C37530741   3.034   3.543   6.541 -0.8945 -0.0467 -0.4179
   64MOL   C37630742   3.059   3.404   6.518  0.0432 -0.2402 -0.4268
   64MOL   O37730743   2.876   3.720   6.592  0.4887 -0.6293  0.2842
   64MOL   H37830744   2.901   3.123   6.034 -0.9474  1.3829  1.6430
   64MOL   H37930745   2.835   3.109   6.268  0.0882 -1.4125  0.7267
   64MOL   H38030746   3.235   3.113   6.392  0.3621  0.1296 -0.8001
   64MOL   H38130747   3.316   3.126   6.159  0.3054  4.1683  3.2963
   64MOL   H38230748   2.740   3.287   6.541 -0.3139  0.7705 -0.7105
   64MOL   H38330749   2.699   3.519   6.599  1.0560  0.6660  0.2522
   64MOL   H38430750   3.119   3.609   6.536 -0.5263 -0.5632 -1.1567
   64MOL   H38530751   3.157   3.364   6.499  0.8539  1.4119  0.2079
   64MOL   C38630752   2.791   3.768   6.370  0.8519  0.6136  0.1179
   64MOL   C38730753   2.700   3.840   6.288  0.6715  0.3389 -0.1253
   64MOL   C38830754   2.598   3.920   6.339 -0.4198 -0.2845 -0.0372
   64MOL   C38930755   2.589   3.940   6.477 -0.3113 -0.4843 -0.4777
   64MOL   C39030756   2.684   3.876   6.562  0.4391  0.4649 -0.8659
   64MOL   C39130757   2.779   3.785   6.509  0.4228 -0.7712 -0.3552
   64MOL   S39230758   2.498   4.014   6.229  0.3632  0.1844  0.1778
   64MOL   O39330759   2.384   4.045   6.318  0.2595 -0.3271 -0.2030
   64MOL   O39430760   2.475   3.933   6.107 -0.9158 -0.1550 -0.4197
   64MOL   C39530761   2.568   4.167   6.186  0.1521 -0.4523 -0.5977
   64MOL   C39630762   2.695   4.169   6.125 -0.3406 -0.5808  0.3717
   64MOL   C39730763   2.745   4.296   6.087 -0.1441  0.3156 -0.1668
   64MOL   C39830764   2.668   4.411   6.110 -0.4375  0.3046  0.6870
   64MOL   C39930765   2.553   4.404   6.186 -0.4764 -0.9210 -0.0265
   64MOL   C40030766   2.506   4.282   6.225  0.0199  0.1814 -0.1382
   64MOL   O40130767   2.716   4.531   6.079  0.4733  0.3591 -0.0556
   64MOL   H40230768   2.857   3.700   6.318  1.0908  1.7475 -1.0752
   64MOL   H40330769   2.697   3.825   6.181  1.0643  2.2163 -0.4213
   64MOL   H40430770   2.512   4.002   6.519  2.0996  0.3822  2.7994
   64MOL   H40530771   2.687   3.902   6.667 -0.0519 -0.7739 -0.5304
   64MOL   H40630772   2.748   4.079   6.097  0.9286  0.7729 -1.7635
   64MOL   H40730773   2.844   4.308   6.045 -0.0218  0.4818  0.1614
   64MOL   H40830774   2.496   4.490   6.218 -0.5688 -1.3368  0.9266
   64MOL   H40930775   2.417   4.277   6.286  0.5705 -1.9486  0.5251
   64MOL   C41030776   2.548   4.700   6.080 -0.2472  0.1349 -0.0279
   64MOL   C41130777   2.466   4.787   6.017  0.6844  0.3750 -0.3144
   64MOL   C41230778   2.469   4.803   5.881 -0.7715  0.3148  0.1998
   64MOL   C41330779   2.552   4.716   5.805  0.6101 -0.0139  0.2979
   64MOL   C41430780   2.635   4.615   5.871  0.2806  0.1590  0.5522
   64MOL   C41530781   2.635   4.614   6.010 -0.1782 -0.7115 -0.0591
   64MOL   S41630782   2.362   4.924   5.795 -0.7777  0.1396  0.2100
   64MOL   O41730783   2.463   5.009   5.729 -0.7415 -0.4794 -0.3089
   64MOL   O41830784   2.270   4.971   5.892  0.1653 -0.5182  0.6222
   64MOL   C41930785   2.272   4.830   5.673 -0.5757 -0.1857 -0.7441
   64MOL   C42030786   2.323   4.795   5.548 -0.4653  0.9156  0.4662
   64MOL   C42130787   2.242   4.724   5.451 -0.2150  0.1171 -0.4400
   64MOL   C42230788   2.111   4.692   5.482  0.0984 -0.0898 -0.7195
   64MOL   C42330789   2.059   4.739   5.604  0.2152 -0.0107 -0.3469
   64MOL   C42430790   2.135   4.804   5.698 -0.5507  0.6608 -0.4018
   64MOL   O42530791   2.034   4.623   5.393  0.1312 -0.1109 -0.3499
   64MOL   H42630792   2.546   4.701   6.188 -0.6818  0.9049 -0.0349
   64MOL   H42730793   2.407   4.854   6.079  2.1976  0.4624  1.0770
   64MOL   H42830794   2.548   4.716   5.698 -1.3440  1.1474  0.3530
   64MOL   H42930795   2.697   4.548   5.813  0.3202  0.4964  0.2011
   64MOL   H43030796   2.425   4.823   5.526 -0.9824  0.6384 -2.4923
   64MOL   H43130797   2.271   4.691   5.352 -1.7408  0.7269 -1.0977
   64MOL   H43230798   1.958   4.714   5.632 -0.5651  1.8681 -1.4457
   64MOL   H43330799   2.094   4.843   5.791  0.0194 -1.8098  0.9139
   64MOL   C43430800   2.111   4.439   5.269 -0.5000  0.1803  1.2483
   64MOL   C43530801   2.141   4.301   5.254  0.7622 -0.4009 -0.0027
   64MOL   C43630802   2.126   4.216   5.366  0.1127  0.5633 -0.0538
   64MOL   C43730803   2.068   4.270   5.486 -0.2119 -0.9485  0.4534
   64MOL   C43830804   2.033   4.406   5.499 -0.2537  0.0460 -0.0161
   64MOL   C43930805   2.051   4.491   5.387  0.1355  0.4193 -0.3750
   64MOL   S44030806   2.157   4.050   5.359 -0.0589  0.0485  0.1298
   64MOL   O44130807   2.243   4.018   5.477  0.1263  0.2083  0.1522
   64MOL   O44230808   2.208   4.015   5.224 -0.4134  0.6475 -0.2838
   64MOL   C44330809   2.000   3.969   5.388 -0.1942  0.2272  1.0637
   64MOL   C44430810   1.973   3.917   5.515  0.2796 -0.4499 -0.4750
   64MOL   C44530811   1.848   3.852   5.539 -0.7105 -0.0592  0.1011
   64MOL   C44630812   1.760   3.823   5.428 -0.0804 -1.0060  0.4877
   64MOL   C44730813   1.788   3.873   5.298 -0.6403  0.0640  0.0022
   64MOL   C44830814   1.903   3.950   5.285  0.3345 -0.3174  0.5547
   64MOL   O44930815   1.651   3.742   5.445  0.0305 -0.3300  0.6407
   64MOL   H45030816   2.131   4.501   5.183 -0.3761 -1.9861 -0.3417
   64MOL   H45130817   2.182   4.262   5.162  0.1926 -0.5957 -0.1789
   64MOL   H45230818   2.058   4.206   5.573 -0.3391 -0.7932  0.5526
   64MOL   H45330819   1.998   4.445   5.594  0.7687 -2.8026  1.5876
   64MOL   H45430820   2.053   3.932   5.586  2.0887 -1.8763 -2.1269
   64MOL   H45530821   1.835   3.816   5.640 -0.4303 -0.5463 -0.0350
   64MOL   H45630822   1.718   3.868   5.215 -0.2307  0.4323 -0.3716
   64MOL   H45730823   1.915   4.004   5.192 -0.5305  1.1565  1.2737
   64MOL   C45830824   1.467   3.746   5.276 -0.0566  0.1894  0.0058
   64MOL   C45930825   1.352   3.804   5.231  0.9735 -0.3152  0.1966
   64MOL   C46030826   1.285   3.898   5.314 -0.0729 -0.3880 -0.2389
   64MOL   C46130827   1.327   3.928   5.445 -0.6492  0.0604 -0.6747
   64MOL   C46230828   1.451   3.861   5.484  0.9003 -0.3815  0.1524
   64MOL   C46330829   1.528   3.778   5.400 -0.1200 -0.4366  0.4598
   64MOL   S46430830   1.135   3.960   5.254  0.4553  0.1258 -0.1184
   64MOL   O46530831   1.085   4.061   5.352 -0.1982 -0.7638 -0.2828
   64MOL   O46630832   1.049   3.841   5.230  0.1817 -0.1965 -0.0938
   64MOL   C46730833   1.167   4.040   5.092  0.3513 -0.8104  0.3826
   64MOL   C46830834   1.062   4.043   5.004  0.0884 -0.7000  1.2283
   64MOL   C46930835   1.085   4.097   4.870 -0.3992  0.3206 -0.3478
   64MOL   C47030836   1.212   4.146   4.837 -0.6768 -0.7673 -0.6731
   64MOL   C47130837   1.318   4.143   4.932 -0.5701 -0.7995  0.2071
   64MOL   C47230838   1.293   4.086   5.058 -0.0444  0.0694 -0.5957
   64MOL   O47330839   1.241   4.179   4.707  0.2905  0.1385  0.0002
   64MOL   H47430840   1.508   3.666   5.215  0.4431 -0.0285  0.6194
   64MOL   H47530841   1.319   3.784   5.130  1.0171  0.5088  0.0193
   64MOL   H47630842   1.277   4.000   5.509 -1.5438 -0.1185 -1.1670
   64MOL   H47730843   1.499   3.901   5.573 -0.3184 -0.2904  0.7742
   64MOL   H47830844   0.963   4.013   5.033 -1.6578  0.0692 -3.5014
   64MOL   H47930845   1.000   4.101   4.803 -2.3331 -0.9076  1.9248
   64MOL   H48030846   1.414   4.183   4.906 -0.9404 -0.9876 -1.4878
   64MOL   H48130847   1.374   4.077   5.129 -0.0411 -0.8687 -0.7057
   64MOL   H48230848   1.171   4.149   4.651 -0.8036 -1.6752  2.2729
   65MOL     C130849   0.214   3.961   4.598 -0.4587 -0.5961 -0.0429
   65MOL     C230850   0.343   3.957   4.655 -0.5334  0.1434  0.8961
   65MOL     C330851   0.395   4.048   4.746  0.2070  0.4940 -0.6625
   65MOL     C430852   0.313   4.151   4.794  0.3114 -0.1519  0.6726
   65MOL     C530853   0.182   4.162   4.737 -0.0627 -0.5681  0.1355
   65MOL     C630854   0.136   4.070   4.639 -0.3832  0.5126  0.4088
   65MOL     S730855   0.548   4.019   4.820  0.0147 -0.0878 -0.2548
   65MOL     O830856   0.588   4.144   4.898 -0.1433  0.5646  0.4062
   65MOL     O930857   0.644   3.979   4.714 -0.1353 -0.2271 -0.5601
   65MOL    C1030858   0.521   3.887   4.931  0.5361  0.2071 -0.2159
   65MOL    C1130859   0.430   3.904   5.038  0.0691  0.3253  0.0893
   65MOL    C1230860   0.413   3.801   5.129 -0.1033  0.2559 -0.5777
   65MOL    C1330861   0.473   3.674   5.101 -0.2833 -0.0392 -0.6465
   65MOL    C1430862   0.545   3.654   4.985  0.2308  0.3220 -0.2670
   65MOL    C1530863   0.567   3.761   4.900 -0.0156  0.5835  0.4792
   65MOL    O1630864   0.465   3.570   5.183 -0.1599  1.0384  0.0023
   65MOL    H1730865   0.177   3.903   4.514 -1.9359  0.2332  0.0260
   65MOL    H1830866   0.395   3.870   4.620 -0.6198  0.7890 -0.8880
   65MOL    H1930867   0.343   4.220   4.872  1.1774  0.3935 -0.1365
   65MOL    H2030868   0.116   4.242   4.768  1.4079  1.1547 -1.1234
   65MOL    H2130869   0.395   4.002   5.066  0.8064  0.4267  0.6714
   65MOL    H2230870   0.362   3.808   5.224  1.4748  2.1985  0.1493
   65MOL    H2330871   0.589   3.558   4.965 -1.5332 -1.1524  2.6756
   65MOL    H2430872   0.630   3.742   4.814  1.2131  2.1542  1.0023
   65MOL    H2530873   0.047   4.095   4.583  0.8039  1.5301 -1.0719
   65MOL    C2630874   0.353   3.519   5.391 -0.3084 -0.7794 -0.0518
   65MOL    C2730875   0.229   3.492   5.451  0.3278  0.5171 -0.0633
   65MOL    C2830876   0.106   3.488   5.383 -0.3233  0.2185  0.5639
   65MOL    C2930877   0.111   3.500   5.240  1.1772  0.1665 -0.4151
   65MOL    C3030878   0.234   3.515   5.176  0.4256 -0.4748 -0.5022
   65MOL    C3130879   0.349   3.544   5.252 -0.1692  0.4927  0.2916
   65MOL    S3230880   8.378   3.459   5.468  0.3653  0.3669 -0.2744
   65MOL    O3330881   8.258   3.517   5.393  0.1270 -0.1976  0.8175
   65MOL    O3430882   8.404   3.521   5.601  0.9245  0.1275  0.2574
   65MOL    C3530883   8.356   3.280   5.500 -0.7762 -0.5540 -0.2774
   65MOL    C3630884   0.041   3.214   5.562  0.6964  0.0886  0.3725
   65MOL    C3730885   0.040   3.072   5.552 -0.1494  0.0191  0.3083
   65MOL    C3830886   8.346   3.002   5.506  0.3059 -0.4431 -0.5504
   65MOL    C3930887   8.233   3.072   5.460  0.4983  0.2862  1.1445
   65MOL    C4030888   8.242   3.214   5.449 -0.3888 -0.3979  0.7564
   65MOL    O4130889   8.356   2.865   5.511  0.2839  0.3539 -0.2032
   65MOL    H4230890   0.442   3.535   5.450 -1.0750  1.0234  0.6458
   65MOL    H4330891   0.224   3.484   5.559  2.0233  2.3393  0.1602
   65MOL    H4430892   0.020   3.502   5.182 -0.7063 -0.1670  2.4410
   65MOL    H4530893   0.228   3.520   5.069 -2.9803 -0.0894 -0.3480
   65MOL    H4630894   0.126   3.269   5.599  1.0417 -0.2513  0.0820
   65MOL    H4730895   0.126   3.010   5.574  0.5478  1.4435  1.6567
   65MOL    H4830896   8.146   3.020   5.423 -0.1396  1.2653  1.2517
   65MOL    H4930897   8.158   3.268   5.407 -0.1315  1.2709  2.3254
   65MOL    C5030898   8.301   2.771   5.730  0.2219 -0.0991 -0.5022
   65MOL    C5130899   8.212   2.692   5.807 -0.1353  0.0905  0.1922
   65MOL    C5230900   8.105   2.622   5.739 -0.0537  0.2136 -0.6831
   65MOL    C5330901   8.076   2.649   5.607 -0.5141 -0.7421 -0.0806
   65MOL    C5430902   8.158   2.732   5.528  1.3618  0.5542 -0.8117
   65MOL    C5530903   8.271   2.795   5.589 -0.1952 -0.0820 -0.1021
   65MOL    S5630904   8.004   2.500   5.829 -0.0726  0.4137 -0.0536
   65MOL    O5730905   7.884   2.475   5.749 -0.5921  0.6085  0.0437
   65MOL    O5830906   7.989   2.549   5.967  0.1471  0.0834 -0.7559
   65MOL    C5930907   8.109   2.349   5.838 -0.1362  0.4050 -0.0342
   65MOL    C6030908   8.244   2.344   5.796  0.6761 -0.5862 -0.0755
   65MOL    C6130909   8.321   2.226   5.805 -0.3917  0.3494 -0.0118
   65MOL    C6230910   8.260   2.110   5.859  0.1690 -0.1748  0.9766
   65MOL    C6330911   8.120   2.121   5.900 -0.0272  0.1208  0.3147
   65MOL    C6430912   8.048   2.238   5.887  0.1276 -0.1749  0.6408
   65MOL    O6530913   8.335   1.996   5.876 -0.2998 -0.2301  0.0557
   65MOL    H6630914   8.391   2.815   5.770 -0.9242 -0.4502  2.5416
   65MOL    H6730915   8.232   2.675   5.912 -0.7774 -1.1937  0.1130
   65MOL    H6830916   7.999   2.604   5.547  0.2241 -0.7994 -1.0021
   65MOL    H6930917   8.132   2.751   5.425 -1.9017  0.7456 -0.0127
   65MOL    H7030918   8.291   2.428   5.749 -0.2260 -0.0662 -0.0627
   65MOL    H7130919   0.000   2.224   5.776  0.0869 -2.3478  1.7827
   65MOL    H7230920   8.071   2.033   5.940  1.2034 -0.3474  0.8376
   65MOL    H7330921   7.949   2.254   5.927 -0.6437 -1.7408 -0.5903
   65MOL    C7430922   8.348   1.936   5.643  0.6504  0.2958 -0.1637
   65MOL    C7530923   8.331   1.850   5.541 -0.0833  0.4006 -0.1771
   65MOL    C7630924   8.291   1.718   5.570  0.7180 -0.0297  0.6468
   65MOL    C7730925   8.269   1.679   5.704  0.5718 -0.2435  0.2995
   65MOL    C7830926   8.281   1.771   5.808  0.0652 -0.7450  0.0911
   65MOL    C7930927   8.319   1.905   5.777 -0.1084 -0.6507 -0.9681
   65MOL    S8030928   8.264   1.597   5.437 -0.2754  0.1202  0.0695
   65MOL    O8130929   8.221   1.663   5.311 -0.5819  0.3065 -0.4841
   65MOL    O8230930   8.191   1.482   5.483  0.7999 -0.3436 -0.5542
   65MOL    C8330931   8.422   1.523   5.415  0.2475  0.0118 -0.6397
   65MOL    C8430932   0.049   1.496   5.283 -0.2727 -0.8206  0.3470
   65MOL    C8530933   0.183   1.451   5.271 -0.1678 -0.2723  0.0673
   65MOL    C8630934   0.269   1.434   5.384  0.1447  0.7907 -0.0449
   65MOL    C8730935   0.211   1.467   5.505  0.4596  0.5372 -0.3551
   65MOL    C8830936   0.082   1.514   5.527 -0.2416  0.0887  0.6388
   65MOL    O8930937   0.408   1.422   5.372 -0.0045 -0.2617  0.4808
   65MOL    H9030938   8.379   2.038   5.629  1.7439 -0.1012 -0.6692
   65MOL    H9130939   8.356   1.870   5.438 -2.3347 -1.8337 -1.2398
   65MOL    H9230940   8.239   1.580   5.734 -0.3036 -0.3541 -0.9124
   65MOL    H9330941   8.262   1.736   5.908 -1.4595 -0.6628 -0.1640
   65MOL    H9430942   8.407   1.506   5.198 -0.9166 -0.3917  0.8973
   65MOL    H9530943   0.234   1.448   5.176 -1.2234 -1.3416 -0.4877
   65MOL    H9630944   0.271   1.462   5.595 -0.2793  1.8915  0.2327
   65MOL    H9730945   0.057   1.549   5.626 -0.1502  0.3164  0.5816
   65MOL    C9830946   0.556   1.251   5.282  0.1871  0.0893  0.6242
   65MOL    C9930947   0.637   1.143   5.322 -0.5221 -0.2631  0.1936
   65MOL   C10030948   0.628   1.076   5.447 -0.1926  0.2505 -1.1411
   65MOL   C10130949   0.537   1.125   5.547  0.4122  0.0235  0.2821
   65MOL   C10230950   0.461   1.245   5.516  0.1981  0.1308  0.7519
   65MOL   C10330951   0.474   1.301   5.389  0.4910 -0.1325 -0.7303
   65MOL   S10430952   0.742   0.942   5.477  0.1431  0.0400 -0.6832
   65MOL   O10530953   0.863   0.953   5.394 -0.1214 -0.1230  0.2172
   65MOL   O10630954   0.659   0.822   5.465  0.5401  0.5605 -0.0535
   65MOL   C10730955   0.786   0.951   5.650 -0.2342  0.7566  0.5314
   65MOL   C10830956   0.854   1.068   5.706 -0.5717  0.4779 -0.3993
   65MOL   C10930957   0.887   1.073   5.846 -0.2970 -0.4005  0.4952
   65MOL   C11030958   0.858   0.964   5.934  0.5906 -0.2693 -0.5338
   65MOL   C11130959   0.787   0.854   5.868 -0.3041  0.1363  1.0537
   65MOL   C11230960   0.752   0.850   5.734 -0.3989 -0.1599 -0.1516
   65MOL   O11330961   0.876   0.967   6.068  1.0286 -0.1372  0.0613
   65MOL   H11430962   0.555   1.310   5.192 -2.4985 -0.1503  0.4611
   65MOL   H11530963   0.706   1.103   5.249  1.4321 -0.3523  2.0401
   65MOL   H11630964   0.539   1.072   5.641 -2.0711 -0.6482 -0.0309
   65MOL   H11730965   0.402   1.288   5.596  1.5595 -0.1348  1.9100
   65MOL   H11830966   0.871   1.154   5.644  0.9779 -1.5818 -2.9619
   65MOL   H11930967   0.926   1.166   5.882 -3.2113  0.6974  0.9316
   65MOL   H12030968   0.768   0.761   5.919 -1.1056 -0.1240  0.2773
   65MOL   H12130969   0.696   0.765   5.699 -2.0454  0.6797  0.3822
   65MOL   C12230970   1.054   1.083   6.155 -0.0474  0.7861 -0.1077
   65MOL   C12330971   1.194   1.096   6.187  0.6225  0.6748  1.0790
   65MOL   C12430972   1.278   0.991   6.164  0.0564  0.3176 -0.1410
   65MOL   C12530973   1.232   0.866   6.115 -0.1844 -0.0107  0.3507
   65MOL   C12630974   1.096   0.857   6.078  0.5871  0.0653 -0.5418
   65MOL   C12730975   1.005   0.966   6.100 -0.0815 -0.6324 -0.0184
   65MOL   S12830976   1.450   0.991   6.216  0.3064  0.2972 -0.3417
   65MOL   O12930977   1.464   0.869   6.299 -0.2776  0.2898 -0.1786
   65MOL   O13030978   1.479   1.128   6.262 -0.2923 -0.3761  0.7447
   65MOL   C13130979   1.548   0.970   6.073  0.4136 -0.0605  0.2102
   65MOL   C13230980   1.557   1.078   5.987  0.7554 -0.3995  0.1100
   65MOL   C13330981   1.634   1.063   5.870 -0.5709  0.1000 -0.6557
   65MOL   C13430982   1.712   0.946   5.848  0.0072 -0.0978 -0.2948
   65MOL   C13530983   1.696   0.841   5.937 -0.1820  0.4905 -0.3914
   65MOL   C13630984   1.615   0.848   6.048  0.1278 -0.1655  0.4995
   65MOL   O13730985   1.792   0.941   5.744  0.3519 -0.0988  0.3404
   65MOL   H13830986   0.982   1.161   6.172 -0.3493  0.0822  2.0121
   65MOL   H13930987   1.236   1.183   6.235 -0.3444  2.2831 -0.8829
   65MOL   H14030988   1.284   0.771   6.111 -3.7523 -1.9601 -1.4842
   65MOL   H14130989   1.054   0.764   6.042  1.2377 -0.4541  0.0270
   65MOL   H14230990   1.503   1.169   6.010  2.3321 -0.0462  2.5072
   65MOL   H14330991   1.647   1.144   5.800  0.0855 -0.7744 -1.5606
   65MOL   H14430992   1.755   0.753   5.917 -0.2794  0.3437 -0.0492
   65MOL   H14530993   1.614   0.763   6.113  0.0101 -1.5370 -1.2593
   65MOL   C14630994   2.009   0.893   5.844  0.3639 -0.3195 -0.1609
   65MOL   C14730995   2.122   0.810   5.856  0.0348  0.3278 -0.4574
   65MOL   C14830996   2.140   0.725   5.753  0.0764 -0.2873  0.3845
   65MOL   C14930997   2.052   0.714   5.642  0.9078  0.0118 -0.1391
   65MOL   C15030998   1.929   0.784   5.638 -0.1735 -0.3301 -0.1345
   65MOL   C15130999   1.906   0.869   5.747 -0.1958 -0.0284 -0.6470
   65MOL   S15231000   2.283   0.620   5.757 -0.6626 -0.2432  0.0749
   65MOL   O15331001   2.237   0.498   5.824 -0.3845 -0.0308 -0.1980
   65MOL   O15431002   2.393   0.697   5.822 -0.1683  0.3409 -0.3398
   65MOL   C15531003   2.334   0.573   5.595  0.4368 -0.2212 -0.0672
   65MOL   C15631004   2.453   0.634   5.540  0.2029  0.4733 -0.1789
   65MOL   C15731005   2.496   0.600   5.407  0.1021 -0.0876 -0.6339
   65MOL   C15831006   2.411   0.519   5.326  0.1276 -0.2204  0.5402
   65MOL   C15931007   2.296   0.464   5.377 -0.2744 -0.3265 -0.7656
   65MOL   C16031008   2.262   0.483   5.510 -0.4576  0.2518 -0.5152
   65MOL   O16131009   2.432   0.503   5.190  0.4348 -0.4996 -0.5351
   65MOL   H16231010   1.995   0.973   5.915  0.7961  0.3108 -0.7784
   65MOL   H16331011   2.195   0.820   5.935 -0.9404 -4.1097  1.1462
   65MOL   H16431012   2.081   0.652   5.558  0.2988 -1.5072  0.7467
   65MOL   H16531013   1.860   0.775   5.555 -0.1766 -0.5668 -0.1039
   65MOL   H16631014   2.512   0.702   5.600  1.2672  0.4941 -1.2338
   65MOL   H16731015   2.591   0.639   5.371  0.9551  1.8574  3.4608
   65MOL   H16831016   2.235   0.392   5.324 -0.1371 -1.2803  0.3356
   65MOL   H16931017   2.176   0.435   5.555 -0.5503 -1.2418 -2.2096
   65MOL   C17031018   2.302   0.707   5.154 -0.5842 -0.0917 -0.0100
   65MOL   C17131019   2.260   0.807   5.075 -0.1894 -0.5586 -0.2208
   65MOL   C17231020   2.312   0.818   4.945  0.4082 -0.4828 -0.2108
   65MOL   C17331021   2.404   0.729   4.895  0.1429 -0.5211  0.6536
   65MOL   C17431022   2.443   0.620   4.974 -0.7265  0.1011  0.9024
   65MOL   C17531023   2.396   0.613   5.110  0.6674  0.0779  0.4111
   65MOL   S17631024   2.236   0.938   4.828  0.3522 -0.6442  0.5711
   65MOL   O17731025   2.113   0.991   4.895  0.4870  0.3807  0.8500
   65MOL   O17831026   2.231   0.870   4.696  0.5592  0.5944 -0.0219
   65MOL   C17931027   2.354   1.066   4.813 -0.0191 -0.2672 -0.4276
   65MOL   C18031028   2.482   1.035   4.760  0.7934  0.2058  0.2849
   65MOL   C18131029   2.586   1.129   4.772  0.4003  0.1118  0.1219
   65MOL   C18231030   2.567   1.262   4.816 -0.2628  0.1392  0.0722
   65MOL   C18331031   2.439   1.297   4.866 -0.7864 -0.7512 -0.2537
   65MOL   C18431032   2.334   1.199   4.867  0.2394 -0.5835  0.0943
   65MOL   O18531033   2.670   1.352   4.809  0.7482 -0.0230  0.5504
   65MOL   H18631034   2.246   0.697   5.246 -0.5593 -1.8582 -0.1760
   65MOL   H18731035   2.189   0.876   5.118 -0.1099  0.0772 -1.0795
   65MOL   H18831036   2.428   0.734   4.789  3.3648 -1.2908  1.2999
   65MOL   H18931037   2.507   0.541   4.938  2.5266  2.7871  0.5353
   65MOL   H19031038   2.492   0.931   4.732 -1.5354 -0.9582  3.4598
   65MOL   H19131039   2.682   1.089   4.743 -1.3282 -4.6365  0.6126
   65MOL   H19231040   2.418   1.396   4.905 -0.8150  0.0115 -2.1368
   65MOL   H19331041   2.231   1.223   4.890  0.4920  0.7441 -0.1700
   65MOL   C19431042   2.704   1.586   4.869 -0.2897 -0.2580  0.6678
   65MOL   C19531043   2.743   1.684   4.965  0.1209 -0.2851 -0.5093
   65MOL   C19631044   2.737   1.643   5.100  0.0431  0.2280 -0.5259
   65MOL   C19731045   2.697   1.516   5.146  0.3818  0.4022  0.3842
   65MOL   C19831046   2.674   1.416   5.048  0.2084  0.6131  0.2807
   65MOL   C19931047   2.680   1.452   4.910 -0.1379 -0.8092 -0.1582
   65MOL   S20031048   2.763   1.776   5.223  0.0282 -0.1309  0.0354
   65MOL   O20131049   2.751   1.906   5.156  0.4113  0.7462  0.6616
   65MOL   O20231050   2.886   1.743   5.298  0.7925  0.6559  0.0354
   65MOL   C20331051   2.627   1.759   5.342  0.6450  1.0309 -0.1844
   65MOL   C20431052   2.636   1.666   5.447  0.6362  0.3648  0.3783
   65MOL   C20531053   2.531   1.675   5.547  0.4730 -0.0362  0.3143
   65MOL   C20631054   2.415   1.752   5.523  0.2787 -0.8451 -0.1703
   65MOL   C20731055   2.396   1.824   5.405 -0.5628  0.3088  0.0405
   65MOL   C20831056   2.507   1.831   5.321 -0.1555 -0.1155  0.4345
   65MOL   O20931057   2.315   1.750   5.616 -0.2615  0.1459 -0.2423
   65MOL   H21031058   2.708   1.610   4.764  0.2142 -0.8449  0.5490
   65MOL   H21131059   2.772   1.785   4.940 -1.0410  0.3224  0.5707
   65MOL   H21231060   2.709   1.496   5.252 -1.7169 -0.0725  0.5417
   65MOL   H21331061   2.655   1.315   5.083  1.2238  1.0252  2.1025
   65MOL   H21431062   2.714   1.592   5.456  0.3526  0.2807  2.3237
   65MOL   H21531063   2.541   1.617   5.638 -0.5705 -0.6619  0.0304
   65MOL   H21631064   2.309   1.878   5.372 -0.7674  0.7444  1.2675
   65MOL   H21731065   2.486   1.889   5.233 -2.1584  1.0859  1.6699
   65MOL   C21831066   2.261   1.963   5.710  0.3004 -0.0288  0.2676
   65MOL   C21931067   2.160   2.056   5.738 -0.0729  0.2612 -0.7914
   65MOL   C22031068   2.040   2.053   5.668  0.1980 -0.1994 -0.4093
   65MOL   C22131069   2.007   1.950   5.581  0.3080  0.6392  0.1401
   65MOL   C22231070   2.098   1.845   5.573  0.4235 -0.1051  0.1609
   65MOL   C22331071   2.226   1.850   5.630 -0.6507  0.2973  0.0473
   65MOL   S22431072   1.936   2.199   5.694 -0.1634  0.1190 -0.1343
   65MOL   O22531073   1.812   2.173   5.621 -0.5632  0.0974  0.3751
   65MOL   O22631074   2.010   2.323   5.665 -0.3664 -0.0956 -0.3184
   65MOL   C22731075   1.896   2.192   5.868 -0.1655  0.6839  0.5492
   65MOL   C22831076   1.967   2.267   5.960 -0.0443  0.2479  0.7033
   65MOL   C22931077   1.911   2.282   6.094  0.1948 -0.0005  0.5499
   65MOL   C23031078   1.805   2.200   6.136 -0.1542  0.5070  0.4469
   65MOL   C23131079   1.748   2.103   6.046 -0.0271 -0.1259 -0.3595
   65MOL   C23231080   1.797   2.096   5.914  0.9501 -1.0420  0.8032
   65MOL   O23331081   1.755   2.223   6.264 -0.3474 -0.1416  0.0307
   65MOL   H23431082   2.360   1.968   5.754  1.3153 -0.9839 -1.8163
   65MOL   H23531083   2.181   2.130   5.814  0.5203  0.5658 -1.2475
   65MOL   H23631084   1.913   1.947   5.527  0.9769 -0.9831 -0.9690
   65MOL   H23731085   2.070   1.767   5.504  0.4171  0.2974 -0.2919
   65MOL   H23831086   2.047   2.326   5.918 -1.3330  0.4000 -1.6672
   65MOL   H23931087   1.951   2.356   6.162  0.4789 -0.2326  0.6351
   65MOL   H24031088   1.669   2.037   6.079 -0.2116  0.3654  0.1905
   65MOL   H24131089   1.743   2.042   5.839 -0.1574  1.6876 -0.4154
   65MOL   C24231090   1.854   2.074   6.422  0.4412 -0.5870  0.0211
   65MOL   C24331091   1.936   2.056   6.533 -0.1921  0.1744 -0.8031
   65MOL   C24431092   2.005   2.165   6.596  0.1693 -0.0995 -0.1349
   65MOL   C24531093   1.982   2.295   6.548 -0.9323  0.1277 -0.5026
   65MOL   C24631094   1.912   2.315   6.428  0.9068  0.4119  0.6429
   65MOL   C24731095   1.837   2.207   6.373 -0.5900 -0.2754  1.0203
   65MOL   S24831096   2.112   2.136   6.732  0.1028 -0.1242  0.0196
   65MOL   O24931097   2.216   2.241   6.720  0.4399  0.1248  0.2244
   65MOL   O25031098   2.145   1.995   6.739 -0.4215  0.3369  0.4150
   65MOL   C25131099   2.014   2.177   6.871  0.2792  0.5984 -0.3596
   65MOL   C25231100   2.081   2.233   6.981 -0.1911  0.5254 -0.0083
   65MOL   C25331101   2.014   2.264   7.099 -0.1538 -0.3285  0.4521
   65MOL   C25431102   1.871   2.258   7.097  0.3359  0.5233 -0.7895
   65MOL   C25531103   1.802   2.211   6.981 -0.0844 -0.6220 -0.0849
   65MOL   C25631104   1.876   2.154   6.868 -0.1868 -0.4541 -0.2844
   65MOL   O25731105   1.806   2.302   7.210  0.5135  0.6160 -0.4148
   65MOL   H25831106   1.795   1.994   6.379  0.9689 -0.9525 -0.0241
   65MOL   H25931107   1.954   1.959   6.578  1.7002  1.2972  0.9676
   65MOL   H26031108   2.041   2.372   6.595  3.7947 -3.2193 -0.5872
   65MOL   H26131109   1.910   2.413   6.382 -0.1625  0.8263  1.5593
   65MOL   H26231110   2.188   2.242   6.968  1.0067 -3.8650  4.7587
   65MOL   H26331111   2.056   2.311   7.187 -1.2186  1.4877  0.0006
   65MOL   H26431112   1.696   2.190   6.983 -0.2033  0.1176  2.0076
   65MOL   H26531113   1.823   2.106   6.787 -2.4570 -0.3582  1.0748
   65MOL   C26631114   1.837   2.133   7.378  0.4145  0.5876 -0.5056
   65MOL   C26731115   1.783   2.030   7.456  0.4247 -0.0171 -0.0477
   65MOL   C26831116   1.646   2.001   7.449  0.2078  0.0051  0.7231
   65MOL   C26931117   1.568   2.063   7.352 -0.4327  0.4943 -0.0612
   65MOL   C27031118   1.618   2.163   7.275 -0.2463 -0.4510  0.1056
   65MOL   C27131119   1.756   2.202   7.286  0.2142  0.4924 -0.0370
   65MOL   S27231120   1.587   1.875   7.555  0.2841 -0.5329  0.2432
   65MOL   O27331121   1.680   1.862   7.670 -0.1248  0.3698 -0.4680
   65MOL   O27431122   1.560   1.760   7.466 -0.2331 -0.4427 -0.3433
   65MOL   C27531123   1.426   1.923   7.613 -1.0628  0.4962  0.0404
   65MOL   C27631124   1.418   2.015   7.719 -0.2534  0.6705 -0.4946
   65MOL   C27731125   1.295   2.045   7.780 -0.8622  0.8207 -0.3777
   65MOL   C27831126   1.182   1.972   7.726  0.5524  0.3660 -0.6694
   65MOL   C27931127   1.191   1.884   7.619  0.1605  0.3810  0.0055
   65MOL   C28031128   1.313   1.858   7.567 -0.1670 -0.3804 -0.0202
   65MOL   O28131129   1.059   1.983   7.786  0.2107 -0.5349 -0.0860
   65MOL   H28231130   1.944   2.146   7.368  0.5069 -1.7949 -3.1586
   65MOL   H28331131   1.852   1.985   7.526  0.9743  0.7219 -0.1053
   65MOL   H28431132   1.464   2.038   7.343 -0.4482  0.0064  1.3464
   65MOL   H28531133   1.558   2.206   7.196  1.0455 -1.3329 -1.3755
   65MOL   H28631134   1.504   2.064   7.764 -0.3696  3.5026 -3.1857
   65MOL   H28731135   1.291   2.099   7.873  0.8911 -0.0208  0.2073
   65MOL   H28831136   1.109   1.840   7.564  0.7398 -0.7663  0.0244
   65MOL   H28931137   1.321   1.782   7.491 -1.5823  0.7372 -1.3160
   65MOL   C29031138   0.983   2.186   7.662 -0.5379 -0.1436 -0.3829
   65MOL   C29131139   0.906   2.307   7.664 -0.1038  0.6600 -0.1568
   65MOL   C29231140   0.839   2.345   7.778  0.3168  0.3989  0.6494
   65MOL   C29331141   0.856   2.269   7.893 -0.1946 -0.0389 -0.1502
   65MOL   C29431142   0.938   2.154   7.896  0.1373  0.2596 -0.2967
   65MOL   C29531143   1.000   2.107   7.782 -0.5921  0.4222  0.4818
   65MOL   S29631144   0.740   2.490   7.781  0.3231  0.4478 -0.1123
   65MOL   O29731145   0.782   2.576   7.669  0.2417 -0.0438  0.1556
   65MOL   O29831146   0.729   2.538   7.920  0.2503  0.8076  0.5163
   65MOL   C29931147   0.577   2.415   7.744 -0.4888  0.0721  0.6568
   65MOL   C30031148   0.563   2.323   7.633  0.8615 -0.6047 -0.4418
   65MOL   C30131149   0.435   2.263   7.619 -0.7631  0.1899  0.3774
   65MOL   C30231150   0.329   2.294   7.699  0.5229  1.4148  0.1038
   65MOL   C30331151   0.349   2.388   7.802 -0.5810 -0.3890 -0.8473
   65MOL   C30431152   0.471   2.441   7.826  0.0685 -0.3963  0.0087
   65MOL   O30531153   0.208   2.239   7.670  0.1754  0.2865  0.0359
   65MOL   H30631154   1.031   2.162   7.568 -0.8278 -0.7858 -0.3720
   65MOL   H30731155   0.905   2.366   7.574 -0.1360 -1.2748 -1.4419
   65MOL   H30831156   0.810   2.306   7.983  1.9171  2.3737 -0.0300
   65MOL   H30931157   0.956   2.110   7.993  1.9478  2.7231  0.5096
   65MOL   H31031158   0.642   2.296   7.564  0.5965 -0.9754 -0.6032
   65MOL   H31131159   0.434   2.199   7.532 -2.1213 -1.0339  1.2685
   65MOL   H31231160   0.265   2.416   7.865  0.3431 -4.2392  2.3510
   65MOL   H31331161   0.487   2.501   7.915 -0.7083  1.1878 -0.9046
   65MOL   C31431162   0.256   2.037   7.793  0.0852  1.0568 -0.0778
   65MOL   C31531163   0.202   1.928   7.871  0.8799 -0.3793  0.7148
   65MOL   C31631164   0.065   1.914   7.881 -0.3031 -0.2027  0.0109
   65MOL   C31731165   8.407   2.012   7.825  0.1724  1.0639  0.4634
   65MOL   C31831166   0.031   2.113   7.751  0.1354 -0.0629  0.7530
   65MOL   C31931167   0.166   2.129   7.734  0.5268 -0.4106  0.0995
   65MOL   S32031168   0.002   1.770   7.965  0.1723 -0.1318  0.4991
   65MOL   O32131169   8.293   1.750   7.907 -0.1004 -0.4378 -0.2549
   65MOL   O32231170   0.033   1.770   8.109  0.3920  0.6980  0.1025
   65MOL   C32331171   0.086   1.616   7.912  0.3901 -0.0071  0.1194
   65MOL   C32431172   0.097   1.583   7.774 -0.4344 -0.0572 -0.0801
   65MOL   C32531173   0.149   1.462   7.732  0.1979 -0.3983 -0.2676
   65MOL   C32631174   0.200   1.374   7.830 -0.7698 -0.0859  0.0802
   65MOL   C32731175   0.182   1.404   7.969 -0.0654  1.0993 -0.8421
   65MOL   C32831176   0.119   1.523   8.013  0.6051  0.3268 -0.1301
   65MOL   O32931177   0.254   1.249   7.797  0.0784  0.7776 -0.3904
   65MOL   H33031178   0.359   2.057   7.771 -0.1085 -0.7684 -2.8431
   65MOL   H33131179   0.269   1.855   7.915 -0.8240 -3.2948 -1.3148
   65MOL   H33231180   8.299   2.004   7.826  0.3165 -1.4279  1.7760
   65MOL   H33331181   8.393   2.188   7.705 -0.7434 -0.5145  1.2046
   65MOL   H33431182   0.056   1.660   7.710 -0.3613  0.2420  0.2267
   65MOL   H33531183   0.157   1.426   7.631  0.6635 -2.0077  0.3221
   65MOL   H33631184   0.214   1.329   8.040 -2.0447  0.3784 -0.6862
   65MOL   H33731185   0.104   1.538   8.119  1.5848 -0.4651  0.1224
   65MOL   C33831186   0.440   1.343   7.668  0.1887 -0.1946  0.4292
   65MOL   C33931187   0.539   1.321   7.569 -0.5064 -0.2637 -0.1075
   65MOL   C34031188   0.551   1.198   7.502 -0.2586  0.2562  0.1941
   65MOL   C34131189   0.463   1.089   7.535  0.0490  0.5377 -0.0402
   65MOL   C34231190   0.356   1.113   7.624  0.3097 -0.3325 -0.7644
   65MOL   C34331191   0.349   1.238   7.698 -0.3074 -0.3148  0.4084
   65MOL   S34431192   0.674   1.184   7.374  0.1801  0.1003  0.0870
   65MOL   O34531193   0.641   1.283   7.275 -0.0032 -0.1238  0.4157
   65MOL   O34631194   0.668   1.041   7.341 -0.0493  0.8114  0.0650
   65MOL   C34731195   0.842   1.203   7.446 -0.0907 -0.6765 -0.4586
   65MOL   C34831196   0.862   1.230   7.580  0.2592 -0.4335 -1.0957
   65MOL   C34931197   0.992   1.247   7.630 -0.6564  0.7257 -0.5462
   65MOL   C35031198   1.107   1.243   7.547  0.4683 -0.1974 -0.4675
   65MOL   C35131199   1.078   1.210   7.411  0.3067  0.4672  1.0288
   65MOL   C35231200   0.948   1.188   7.358 -0.2623  0.0877  0.1556
   65MOL   O35331201   1.230   1.254   7.611 -0.1084 -0.4212 -0.5875
   65MOL   H35431202   0.433   1.443   7.707  0.4893 -0.8868  2.3110
   65MOL   H35531203   0.602   1.404   7.539  0.6163 -0.7364  0.9288
   65MOL   H35631204   0.454   0.995   7.483  1.3414 -1.2014  2.7125
   65MOL   H35731205   0.282   1.039   7.649 -0.3913 -0.2359 -2.4762
   65MOL   H35831206   0.780   1.230   7.650  1.3173  0.1314  0.1582
   65MOL   H35931207   1.002   1.270   7.735  0.6596  1.6061 -0.8405
   65MOL   H36031208   1.157   1.182   7.343  1.7018  0.5072  2.6106
   65MOL   H36131209   0.929   1.162   7.255 -1.6223  3.5073 -0.5344
   65MOL   C36231210   1.396   1.124   7.515  0.4397 -0.2534  0.4879
   65MOL   C36331211   1.503   1.118   7.424 -0.2379  0.3793 -0.0299
   65MOL   C36431212   1.562   1.240   7.376  0.4373 -0.3161 -0.5996
   65MOL   C36531213   1.516   1.368   7.413  0.3237 -0.6005  0.4066
   65MOL   C36631214   1.398   1.374   7.480 -0.3143  0.0480 -0.3095
   65MOL   C36731215   1.343   1.253   7.530 -0.2525 -0.4860  0.5513
   65MOL   S36831216   1.697   1.216   7.261 -0.0778  0.2634  0.4008
   65MOL   O36931217   1.776   1.106   7.314 -0.2364 -0.1555  0.3108
   65MOL   O37031218   1.762   1.346   7.241 -0.2721  0.2136 -0.4029
   65MOL   C37131219   1.635   1.165   7.106 -0.0082  0.0104  0.0200
   65MOL   C37231220   1.573   1.042   7.088  0.0702  0.0477  0.0197
   65MOL   C37331221   1.534   1.003   6.957  0.1495 -0.0676 -0.1924
   65MOL   C37431222   1.567   1.082   6.845 -0.5213 -0.4572 -0.9543
   65MOL   C37531223   1.628   1.212   6.867  1.2226 -0.6070  0.5709
   65MOL   C37631224   1.657   1.254   6.999  0.0883 -0.0099  0.1192
   65MOL   O37731225   1.535   1.039   6.723  0.2599 -0.6632  0.1981
   65MOL   H37831226   1.361   1.035   7.565 -0.2634 -0.5673 -0.5486
   65MOL   H37931227   1.551   1.024   7.403 -1.6964  0.0179 -1.9596
   65MOL   H38031228   1.566   1.452   7.366  1.2194 -1.7653 -0.7719
   65MOL   H38131229   1.354   1.470   7.501  0.8848  0.8337 -1.3118
   65MOL   H38231230   1.556   0.971   7.166  0.0892 -0.5635 -0.5277
   65MOL   H38331231   1.490   0.905   6.946  1.2631 -0.9074  2.4795
   65MOL   H38431232   1.647   1.264   6.775  1.4103  0.0361  0.9671
   65MOL   H38531233   1.694   1.355   7.010 -2.4015  0.8077  1.2628
   65MOL   C38631234   1.657   1.078   6.516  0.0018 -1.1091 -0.3764
   65MOL   C38731235   1.762   1.057   6.429  1.0302  0.9135  0.1707
   65MOL   C38831236   1.844   0.948   6.461  0.1039  0.4334  0.7044
   65MOL   C38931237   1.817   0.860   6.569 -0.0503 -0.2084  0.3630
   65MOL   C39031238   1.707   0.890   6.655  0.7036 -0.1198 -0.1115
   65MOL   C39131239   1.632   1.005   6.636  0.3788  0.7227  0.4308
   65MOL   S39231240   1.962   0.909   6.335  0.0277  0.2092  0.0047
   65MOL   O39331241   1.925   0.957   6.204 -0.1859 -0.1876 -0.2134
   65MOL   O39431242   2.002   0.769   6.357 -0.4450  0.2382 -0.2835
   65MOL   C39531243   2.110   1.005   6.382  0.8836  0.2091  0.4495
   65MOL   C39631244   2.110   1.109   6.476  0.5581 -0.1070  0.1656
   65MOL   C39731245   2.234   1.180   6.493  0.1461  0.3539 -0.1404
   65MOL   C39831246   2.348   1.147   6.407  0.1339 -0.3096  0.4399
   65MOL   C39931247   2.333   1.050   6.305  0.3993 -0.3552  0.7563
   65MOL   C40031248   2.213   0.978   6.301 -0.3865  0.1721  0.3173
   65MOL   O40131249   2.470   1.203   6.406 -0.2332 -0.1678 -0.3335
   65MOL   H40231250   1.591   1.161   6.496 -0.7286 -1.3060  1.2087
   65MOL   H40331251   1.770   1.104   6.332 -2.1454  1.8758  0.2992
   65MOL   H40431252   1.877   0.771   6.581  0.4148 -0.1505 -1.3262
   65MOL   H40531253   1.682   0.826   6.738  1.6215  0.3594  0.5498
   65MOL   H40631254   2.029   1.125   6.546 -0.7448  1.7037 -1.6929
   65MOL   H40731255   2.241   1.253   6.573  0.1202 -0.4633  0.6110
   65MOL   H40831256   2.421   1.019   6.250 -0.1404 -0.0313 -0.3116
   65MOL   H40931257   2.208   0.893   6.233  0.0638  1.8179 -1.8260
   65MOL   C41031258   2.522   1.149   6.640  0.2075 -0.1350  0.0688
   65MOL   C41131259   2.610   1.163   6.751  0.4990 -0.7348 -0.1517
   65MOL   C41231260   2.738   1.215   6.731  0.6938  0.2675 -1.2519
   65MOL   C41331261   2.776   1.263   6.602 -0.1534 -0.1919  0.1750
   65MOL   C41431262   2.686   1.254   6.497  0.4445 -0.7272 -0.5248
   65MOL   C41531263   2.558   1.197   6.511 -0.6402 -0.6960 -0.4341
   65MOL   S41631264   2.864   1.233   6.862  0.2148 -0.4482  0.4923
   65MOL   O41731265   2.796   1.258   6.990  0.2666  0.0578 -0.1249
   65MOL   O41831266   2.958   1.336   6.809  0.2250 -0.1564  0.0416
   65MOL   C41931267   2.936   1.066   6.874 -0.5981  0.1056  0.1113
   65MOL   C42031268   3.024   1.046   6.982 -0.9716 -0.3299 -0.2690
   65MOL   C42131269   3.079   0.920   7.010 -0.4120  0.2901 -0.4859
   65MOL   C42231270   3.048   0.812   6.927 -0.2491 -0.8510  0.3504
   65MOL   C42331271   2.979   0.831   6.804  0.8980  0.3367  0.5234
   65MOL   C42431272   2.910   0.957   6.787  0.0822  0.0799  0.1916
   65MOL   O42531273   3.079   0.683   6.955  0.3781  0.0825  0.4842
   65MOL   H42631274   2.420   1.123   6.660  0.2873 -0.2807  0.2857
   65MOL   H42731275   2.582   1.125   6.849  2.4710  0.0149  0.7535
   65MOL   H42831276   2.875   1.303   6.587  0.8776 -2.0259  1.8619
   65MOL   H42931277   2.713   1.292   6.399  1.8404 -1.6228 -0.5032
   65MOL   H43031278   3.060   1.125   7.046  0.4679 -0.6481 -0.6600
   65MOL   H43131279   3.133   0.909   7.103 -1.6678  1.4397  0.3926
   65MOL   H43231280   2.964   0.749   6.736  0.4246 -1.2025  2.4280
   65MOL   H43331281   2.845   0.961   6.701 -1.2116 -2.2120  1.0248
   65MOL   C43431282   3.231   0.629   7.144 -0.1784  0.3933 -0.4581
   65MOL   C43531283   3.361   0.615   7.196  0.2417  0.9905  0.7419
   65MOL   C43631284   3.467   0.604   7.104  0.1201 -0.3492  0.2436
   65MOL   C43731285   3.444   0.617   6.964 -0.1505 -0.1528  0.4068
   65MOL   C43831286   3.314   0.642   6.922 -0.7499 -0.1876  0.5126
   65MOL   C43931287   3.207   0.660   7.007  0.0254  0.1692 -0.5381
   65MOL   S44031288   3.631   0.583   7.175 -0.1942 -0.3175  0.0208
   65MOL   O44131289   3.698   0.478   7.097  0.5583  0.0982 -0.3940
   65MOL   O44231290   3.626   0.590   7.318  0.4058  0.6127 -0.1670
   65MOL   C44331291   3.706   0.737   7.138 -0.0376  0.4238 -0.0836
   65MOL   C44431292   3.661   0.852   7.201  0.1100 -0.3928 -0.2402
   65MOL   C44531293   3.724   0.977   7.181 -0.9323  0.2838  0.6519
   65MOL   C44631294   3.837   0.988   7.099 -0.2663  0.0059  0.6781
   65MOL   C44731295   3.881   0.869   7.032 -0.1418  0.1296  0.2454
   65MOL   C44831296   3.821   0.739   7.057  0.0749 -0.8907  0.3366
   65MOL   O44931297   3.890   1.113   7.070 -0.2307  0.5191 -0.4773
   65MOL   H45031298   3.149   0.604   7.209  0.5873 -0.0703  0.3305
   65MOL   H45131299   3.370   0.603   7.303 -3.9286 -2.3402  0.8553
   65MOL   H45231300   3.529   0.601   6.900  0.2812 -2.8744  1.6196
   65MOL   H45331301   3.287   0.650   6.818 -0.7154  1.3831  0.6143
   65MOL   H45431302   3.583   0.844   7.275 -1.6397  0.1887 -1.9789
   65MOL   H45531303   3.679   1.057   7.238 -1.1962 -0.4234  1.4272
   65MOL   H45631304   3.966   0.870   6.966  0.5805  2.4493  1.1773
   65MOL   H45731305   3.866   0.652   7.011 -0.7256 -2.2411  2.0421
   65MOL   C45831306   4.132   1.113   7.111  0.4269  0.5656 -0.2633
   65MOL   C45931307   4.264   1.106   7.060 -0.4797 -0.0303 -0.5829
   65MOL   C46031308   4.282   1.104   6.923  0.6384  1.1193 -0.2158
   65MOL   C46131309   4.171   1.093   6.829  0.5031  0.1327  0.1920
   65MOL   C46231310   4.042   1.102   6.883  0.1522  0.7845 -0.2633
   65MOL   C46331311   4.020   1.105   7.025  0.7519 -0.0051  0.1066
   65MOL   S46431312   4.442   1.105   6.857  0.2507  0.0190  0.0171
   65MOL   O46531313   4.535   1.175   6.947 -0.3354 -0.3729  0.0463
   65MOL   O46631314   4.429   1.154   6.718 -0.2288 -0.4244  0.2537
   65MOL   C46731315   4.510   0.929   6.856  0.5414 -0.0463  0.0824
   65MOL   C46831316   4.570   0.890   6.738 -0.1895  0.5139 -0.1730
   65MOL   C46931317   4.629   0.765   6.729 -1.6497 -0.4016  0.9933
   65MOL   C47031318   4.626   0.675   6.837  0.0629  0.8673  0.0892
   65MOL   C47131319   4.560   0.708   6.953 -0.3399  0.1438 -0.0982
   65MOL   C47231320   4.511   0.842   6.968  0.0685 -0.0940 -0.0582
   65MOL   O47331321   4.685   0.557   6.819 -0.3358 -0.1919  0.4429
   65MOL   H47431322   4.122   1.132   7.216 -1.0767 -0.5057 -0.1879
   65MOL   H47531323   4.351   1.108   7.124 -1.5802  1.1018  0.9093
   65MOL   H47631324   4.202   1.086   6.726  1.2912 -0.7019  0.4746
   65MOL   H47731325   3.956   1.108   6.818 -0.6771 -1.4695  0.5949
   65MOL   H47831326   4.565   0.955   6.652 -0.2390  1.2414  0.3812
   65MOL   H47931327   4.687   0.748   6.639  0.0610  0.4000  1.9363
   65MOL   H48031328   4.543   0.637   7.033  0.7138  0.8585  0.7824
   65MOL   H48131329   4.458   0.872   7.057  1.7283  0.6054  0.7088
   65MOL   H48231330   4.701   0.517   6.903  1.0274 -2.0327 -0.6263
   66MOL     C131331   6.141   8.368   0.879  0.0472 -0.8926 -0.3488
   66MOL     C231332   6.005   8.359   0.922 -0.0523  0.1580 -0.7744
   66MOL     C331333   5.903   8.346   0.830  0.0616 -0.5516  0.8916
   66MOL     C431334   5.940   8.296   0.702 -0.2868  0.1796  0.3018
   66MOL     C531335   6.075   8.290   0.666  0.6100  0.2113 -0.7960
   66MOL     C631336   6.181   8.331   0.753 -0.5093 -0.0154  0.5651
   66MOL     S731337   5.734   8.364   0.879  0.0985 -0.0553  0.1994
   66MOL     O831338   5.735   8.404   1.020  0.1889  0.2497  0.3839
   66MOL     O931339   5.654   8.245   0.842 -0.5895  0.0378  0.0973
   66MOL    C1031340   5.668   0.082   0.790 -0.3028 -0.5264  0.0018
   66MOL    C1131341   5.562   0.072   0.693 -0.3225  0.7123 -0.1652
   66MOL    C1231342   5.519   0.189   0.632  0.3916 -0.0459 -0.3784
   66MOL    C1331343   5.571   0.314   0.673 -0.2885 -0.1543 -0.0893
   66MOL    C1431344   5.665   0.328   0.777  0.2822  0.3425  0.1778
   66MOL    C1531345   5.719   0.206   0.827  0.6339 -0.1868  0.7085
   66MOL    O1631346   5.532   0.434   0.614 -0.4888 -0.2121 -0.6650
   66MOL    H1731347   6.218   8.390   0.951 -0.7693 -0.8964  0.5311
   66MOL    H1831348   5.982   8.387   1.024  1.1973 -0.0386 -0.4333
   66MOL    H1931349   5.871   8.245   0.637  2.0827 -0.2806 -1.9815
   66MOL    H2031350   6.104   8.246   0.571  1.4735  1.3442 -1.0735
   66MOL    H2131351   5.514   8.402   0.674 -1.4140  0.8109  1.9184
   66MOL    H2231352   5.450   0.187   0.549  1.0107  1.7374 -0.9587
   66MOL    H2331353   5.711   0.422   0.805 -1.5472  1.1446  0.5885
   66MOL    H2431354   5.796   0.215   0.903  2.7943 -2.6976 -1.0893
   66MOL    H2531355   6.284   8.343   0.725 -0.1077 -2.0650  1.0830
   66MOL    C2631356   5.303   0.470   0.561  0.1912  0.2939  0.5060
   66MOL    C2731357   5.205   0.499   0.464  0.2727  0.6875  0.0970
   66MOL    C2831358   5.235   0.499   0.328 -0.4541  0.0497 -0.1606
   66MOL    C2931359   5.366   0.477   0.284 -0.1783 -0.2705 -0.3086
   66MOL    C3031360   5.468   0.455   0.377  0.5962 -0.4874 -0.3487
   66MOL    C3131361   5.434   0.438   0.520  0.5590 -0.1010 -0.1773
   66MOL    S3231362   5.105   0.531   0.200 -0.0899  0.1495  0.0196
   66MOL    O3331363   5.165   0.563   0.067 -0.0660 -0.0186  0.4395
   66MOL    O3431364   5.010   0.624   0.257 -0.4107  0.0446  0.2580
   66MOL    C3531365   5.023   0.371   0.173 -0.4411 -0.3436 -0.8419
   66MOL    C3631366   5.108   0.268   0.129  1.1197 -0.0302 -0.1330
   66MOL    C3731367   5.047   0.142   0.110  0.2363 -0.0958 -0.5723
   66MOL    C3831368   4.914   0.121   0.144  0.0881  0.4370 -0.0740
   66MOL    C3931369   4.829   0.228   0.175 -1.2635 -0.2146 -0.8775
   66MOL    C4031370   4.888   0.356   0.191  0.5055 -0.7262  0.0727
   66MOL    O4131371   4.861   8.415   0.134  0.0626  0.3154  0.1448
   66MOL    H4231372   5.279   0.484   0.665 -0.2026  2.4652  0.1523
   66MOL    H4331373   5.112   0.536   0.506  1.3815  1.4875  1.8470
   66MOL    H4431374   5.391   0.489   0.179  0.8437 -1.2077 -0.1901
   66MOL    H4531375   5.570   0.448   0.344  0.1700 -1.4002 -1.4771
   66MOL    H4631376   5.214   0.279   0.115  1.0035  1.5627  0.2538
   66MOL    H4731377   5.112   0.059   0.089 -0.7491 -0.9293 -0.3873
   66MOL    H4831378   4.725   0.209   0.199 -1.0461 -0.6899 -0.2853
   66MOL    H4931379   4.819   0.431   0.228  1.0305 -1.8957  3.6847
   66MOL    C5031380   5.059   8.292   0.212  0.0573  1.0624 -0.7119
   66MOL    C5131381   5.121   8.161   0.239  0.5142 -0.1297  0.5334
   66MOL    C5231382   5.049   8.044   0.203 -0.3260 -0.0910 -0.2352
   66MOL    C5331383   4.923   8.053   0.150  1.1337 -1.0234 -0.0131
   66MOL    C5431384   4.859   8.181   0.131  0.1570  0.4243  0.4980
   66MOL    C5531385   4.929   8.299   0.159 -0.3127 -0.3607 -0.0502
   66MOL    S5631386   5.115   7.880   0.224 -0.0670  0.0914 -0.1828
   66MOL    O5731387   5.004   7.788   0.256 -0.4716 -0.3318  0.2108
   66MOL    O5831388   5.222   7.895   0.326 -0.5743 -0.7110  1.0904
   66MOL    C5931389   5.185   7.826   0.073 -0.2663  0.6233 -0.2414
   66MOL    C6031390   5.102   7.779   8.397 -0.3472 -0.4979  0.0424
   66MOL    C6131391   5.159   7.744   8.269 -0.0799 -0.6583 -0.5978
   66MOL    C6231392   5.298   7.762   8.250  0.8190  0.3048 -0.3364
   66MOL    C6331393   5.382   7.792   8.363 -0.0368 -0.4984  1.3694
   66MOL    C6431394   5.322   7.837   0.055  0.3631 -0.3405 -0.1665
   66MOL    O6531395   5.347   7.745   8.126  0.1819 -0.0045  0.3090
   66MOL    H6631396   5.114   8.378   0.249  1.6930 -0.7090  1.1276
   66MOL    H6731397   5.219   8.154   0.283  1.0036  1.5814 -0.2247
   66MOL    H6831398   4.875   7.960   0.125  1.9075 -1.8134  1.4157
   66MOL    H6931399   4.765   8.181   0.079  1.0926 -0.6702 -1.2421
   66MOL    H7031400   4.994   7.776   8.406 -0.1875 -1.4867  1.9333
   66MOL    H7131401   5.097   7.725   8.182 -1.1373  0.8900 -0.2098
   66MOL    H7231402   5.488   7.790   8.345 -0.3063 -2.4098 -0.0688
   66MOL    H7331403   5.381   7.858   0.143  0.0415  0.3533 -0.1113
   66MOL    C7431404   5.287   7.596   7.954  0.4035  0.5014  0.3740
   66MOL    C7531405   5.308   7.472   7.890  0.1520 -0.4280 -0.3600
   66MOL    C7631406   5.377   7.372   7.950 -1.0183 -0.1225  0.2728
   66MOL    C7731407   5.441   7.392   8.073  0.2737 -0.2900  0.4857
   66MOL    C7831408   5.425   7.518   8.131  0.1765 -0.3214 -0.8878
   66MOL    C7931409   5.349   7.622   8.071  0.2411  0.3669 -0.0044
   66MOL    S8031410   5.421   7.225   7.858 -0.3060 -0.1300  0.0374
   66MOL    O8131411   5.301   7.189   7.775  0.2565  0.1454 -0.1470
   66MOL    O8231412   5.481   7.122   7.946  0.0021 -0.3350  0.4034
   66MOL    C8331413   5.552   7.286   7.749  0.2739 -0.3159 -0.1807
   66MOL    C8431414   5.644   7.387   7.789 -0.4579  0.3248  0.1177
   66MOL    C8531415   5.752   7.425   7.702  0.0309 -0.2519  0.7853
   66MOL    C8631416   5.766   7.361   7.582  0.3486  0.1047 -0.2734
   66MOL    C8731417   5.676   7.262   7.535 -0.6881 -0.0948  0.7552
   66MOL    C8831418   5.575   7.221   7.625  0.0677  0.3799 -0.4511
   66MOL    O8931419   5.881   7.392   7.515 -0.1714 -0.0837  0.1987
   66MOL    H9031420   5.230   7.676   7.909 -0.7540  0.9342  2.5444
   66MOL    H9131421   5.254   7.452   7.799 -1.2892  2.3483 -0.1714
   66MOL    H9231422   5.493   7.318   8.132 -2.6202 -2.5104  0.3514
   66MOL    H9331423   5.464   7.541   8.229 -0.8238 -0.6143 -0.4195
   66MOL    H9431424   5.636   7.430   7.887  0.6101  1.9928 -0.4922
   66MOL    H9531425   5.832   7.488   7.739  0.2537  0.7446 -1.3085
   66MOL    H9631426   5.688   7.222   7.435  1.1807  2.8494 -0.2619
   66MOL    H9731427   5.514   7.141   7.587  2.4076 -1.0689 -1.2756
   66MOL    C9831428   5.767   7.553   7.374  0.2689 -0.3282 -0.4137
   66MOL    C9931429   5.769   7.681   7.312 -0.0863 -0.2871 -0.4490
   66MOL   C10031430   5.881   7.767   7.324 -0.5378 -0.1001  0.3647
   66MOL   C10131431   6.002   7.719   7.389 -0.4704  0.6437  0.5255
   66MOL   C10231432   6.002   7.586   7.443 -0.2314  0.6593 -0.0330
   66MOL   C10331433   5.884   7.506   7.439 -0.2250  1.0486  0.1078
   66MOL   S10431434   5.878   7.935   7.254  0.0228 -0.2059 -0.5767
   66MOL   O10531435   5.767   7.953   7.157  0.5235  0.3914  0.1360
   66MOL   O10631436   6.015   7.961   7.214 -0.2461 -0.3157 -0.4237
   66MOL   C10731437   5.838   8.041   7.389  0.8706  0.5787 -0.5646
   66MOL   C10831438   5.742   8.145   7.369  0.4422  0.5730  0.4446
   66MOL   C10931439   5.704   8.220   7.474  0.6250 -0.1245 -0.9995
   66MOL   C11031440   5.760   8.211   7.605  0.9445  0.2413 -0.1160
   66MOL   C11131441   5.848   8.099   7.626  0.2376  1.0503 -0.1759
   66MOL   C11231442   5.886   8.014   7.521  1.0325 -0.1529 -1.0999
   66MOL   O11331443   5.718   8.289   7.711 -0.0967  0.2052  0.4741
   66MOL   H11431444   5.680   7.493   7.352  0.9647 -0.8597 -1.7485
   66MOL   H11531445   5.680   7.727   7.272  1.6737  2.6160 -1.1608
   66MOL   H11631446   6.089   7.781   7.404  0.4665 -0.5093 -0.0906
   66MOL   H11731447   6.081   7.550   7.507 -1.5855 -1.3740  0.5532
   66MOL   H11831448   5.705   8.176   7.272  0.9191  1.1819  0.4542
   66MOL   H11931449   5.639   8.304   7.455  2.0435  1.4777  1.0193
   66MOL   H12031450   5.891   8.084   7.724 -1.6195  2.1108  0.8317
   66MOL   H12131451   5.949   7.930   7.548 -0.5299 -0.5545  1.4231
   66MOL   C12231452   5.874   0.043   7.724 -0.7159 -0.8074  0.0023
   66MOL   C12331453   5.899   0.173   7.687 -0.4175 -0.1850 -0.7737
   66MOL   C12431454   5.796   0.260   7.640  0.4405 -0.0487  0.5130
   66MOL   C12531455   5.671   0.210   7.625 -0.0583  0.2167 -0.0983
   66MOL   C12631456   5.641   0.076   7.660  0.2282  0.0311 -0.2837
   66MOL   C12731457   5.744   8.419   7.702 -0.4106  0.5335 -0.1164
   66MOL   S12831458   5.825   0.437   7.582  0.2105  0.1875  0.5465
   66MOL   O12931459   5.725   0.522   7.655  0.4305 -0.4681 -0.2651
   66MOL   O13031460   5.826   0.423   7.436 -0.4593 -0.0792  0.6169
   66MOL   C13131461   5.995   0.486   7.638 -0.1620  0.2005 -0.6573
   66MOL   C13231462   6.037   0.484   7.772  0.9412 -0.2872 -0.4060
   66MOL   C13331463   6.163   0.529   7.809 -0.3971  0.4443 -0.3096
   66MOL   C13431464   6.242   0.580   7.707  0.7327 -0.9495 -1.0036
   66MOL   C13531465   6.198   0.595   7.573  0.1323 -0.2110  0.8434
   66MOL   C13631466   6.068   0.549   7.537  0.8686 -0.1721  0.4617
   66MOL   O13731467   6.369   0.604   7.742  0.4844 -0.4366 -0.6928
   66MOL   H13831468   5.952   8.397   7.748 -0.7960 -0.6734  0.6647
   66MOL   H13931469   5.999   0.212   7.692 -0.2744 -0.7723  1.5911
   66MOL   H14031470   5.593   0.272   7.582 -0.7316 -2.0605 -2.2918
   66MOL   H14131471   5.543   0.034   7.645 -0.6087  2.1979 -0.9746
   66MOL   H14231472   5.970   0.441   7.845  0.9752  1.3293  0.6158
   66MOL   H14331473   6.202   0.523   7.909  0.8300 -1.2029 -0.8639
   66MOL   H14431474   6.267   0.640   7.503  0.9194 -1.4299  0.8408
   66MOL   H14531475   6.036   0.556   7.434  0.7989  0.5358  0.5307
   66MOL   C14631476   6.594   0.608   7.658  0.2121 -0.0771  0.6107
   66MOL   C14731477   6.711   0.539   7.604  0.3354 -0.1961 -0.1106
   66MOL   C14831478   6.703   0.395   7.592  0.1098 -0.3493 -0.1981
   66MOL   C14931479   6.582   0.333   7.626 -0.2131  0.2438  0.5935
   66MOL   C15031480   6.467   0.398   7.672 -0.5417 -0.3637  0.3065
   66MOL   C15131481   6.477   0.535   7.692  0.4016  0.5815 -0.0163
   66MOL   S15231482   6.836   0.285   7.543  0.0416 -0.2865 -0.0571
   66MOL   O15331483   6.778   0.149   7.513  0.2369 -0.2325  0.1772
   66MOL   O15431484   6.943   0.300   7.643  0.6753  0.2020 -0.3009
   66MOL   C15531485   6.893   0.356   7.383  0.3879  0.5460 -0.3930
   66MOL   C15631486   7.028   0.343   7.350  0.0199  1.0610 -0.4037
   66MOL   C15731487   7.075   0.395   7.234 -0.2761 -0.1662 -0.0978
   66MOL   C15831488   6.997   0.470   7.145  0.4050 -0.5494 -0.2394
   66MOL   C15931489   6.860   0.485   7.177 -0.3663 -0.5364  1.0051
   66MOL   C16031490   6.810   0.430   7.294  0.5354  0.9154 -0.0472
   66MOL   O16131491   7.055   0.526   7.032  0.5331  0.2384 -0.4064
   66MOL   H16231492   6.594   0.715   7.670 -0.4425 -0.0529  0.4046
   66MOL   H16331493   6.810   0.580   7.591 -0.3994  1.1768 -1.4253
   66MOL   H16431494   6.579   0.226   7.620 -1.5423  0.3426 -0.9135
   66MOL   H16531495   6.374   0.351   7.701  0.2048 -1.3368  1.2105
   66MOL   H16631496   7.086   0.282   7.417 -0.5269  0.7485 -0.2173
   66MOL   H16731497   7.179   0.376   7.212  0.2077  1.4662  0.6865
   66MOL   H16831498   6.785   0.529   7.112  0.2350 -0.9634  0.0233
   66MOL   H16931499   6.708   0.456   7.317  0.5639 -0.1459  1.2950
   66MOL   C17031500   7.094   0.758   7.020 -0.6796 -0.8153  0.0026
   66MOL   C17131501   7.163   0.876   7.059 -0.4880 -0.5418  0.6275
   66MOL   C17231502   7.276   0.862   7.145 -0.7293  0.0933  0.8043
   66MOL   C17331503   7.326   0.738   7.179  0.2782  1.2645 -0.8613
   66MOL   C17431504   7.257   0.624   7.133  0.3062 -0.0767 -0.1093
   66MOL   C17531505   7.136   0.633   7.064 -0.1636  0.9494 -0.2855
   66MOL   S17631506   7.365   1.002   7.205 -0.0141 -0.0666 -0.1297
   66MOL   O17731507   7.449   0.963   7.315 -0.7029  0.0726 -0.5963
   66MOL   O17831508   7.270   1.112   7.220 -0.0690 -0.2041  0.2210
   66MOL   C17931509   7.482   1.052   7.082  0.0065  0.0352 -0.4041
   66MOL   C18031510   7.601   1.120   7.120  0.1489 -0.2995  0.0192
   66MOL   C18131511   7.691   1.169   7.024  0.4551 -0.0958  0.5518
   66MOL   C18231512   7.657   1.156   6.886  0.8251  1.2052 -0.3834
   66MOL   C18331513   7.541   1.084   6.846 -0.5117 -0.2406  0.2609
   66MOL   C18431514   7.452   1.035   6.946  0.8596  0.5558 -0.5953
   66MOL   O18531515   7.750   1.205   6.801  0.0785  0.0652 -0.0868
   66MOL   H18631516   6.995   0.770   6.977 -1.1989 -2.1307  0.7939
   66MOL   H18731517   7.122   0.972   7.030 -1.4240 -0.9534  0.5673
   66MOL   H18831518   7.406   0.721   7.249 -0.1884 -4.2969 -1.4853
   66MOL   H18931519   7.311   0.532   7.152  0.9541  0.2737 -0.2138
   66MOL   H19031520   7.628   1.138   7.223 -1.2279 -0.5718  0.4374
   66MOL   H19131521   7.768   1.235   7.061 -0.2480  0.3942  1.1479
   66MOL   H19231522   7.527   1.079   6.739 -2.2451 -0.2249  0.4881
   66MOL   H19331523   7.358   0.994   6.913  0.4848 -0.7079  1.9318
   66MOL   C19431524   7.885   1.007   6.790 -0.2393  0.2199  0.6926
   66MOL   C19531525   7.964   0.920   6.710 -0.3474 -0.0350 -0.5896
   66MOL   C19631526   7.975   0.941   6.576  0.6817  0.1903 -0.6400
   66MOL   C19731527   7.899   1.040   6.514 -0.1476 -0.7280  0.8307
   66MOL   C19831528   7.823   1.130   6.589 -0.9408  0.3399  0.1601
   66MOL   C19931529   7.812   1.109   6.728  0.4628  0.3802  0.4533
   66MOL   S20031530   8.088   0.854   6.477  0.3723 -0.1095 -0.0318
   66MOL   O20131531   8.145   0.747   6.561  0.3371 -0.0952  0.2151
   66MOL   O20231532   8.174   0.956   6.416  0.2183  0.3169 -0.0624
   66MOL   C20331533   7.983   0.781   6.348  0.1310 -0.6616  0.3161
   66MOL   C20431534   8.018   0.808   6.215  0.6825  0.0485 -0.4314
   66MOL   C20531535   7.947   0.749   6.112 -0.5956 -0.1377 -0.2683
   66MOL   C20631536   7.844   0.651   6.139  0.2969  0.2382  0.5074
   66MOL   C20731537   7.804   0.625   6.274  0.4333 -0.3201  0.2842
   66MOL   C20831538   7.869   0.696   6.378 -0.5301  0.6325  0.2306
   66MOL   O20931539   7.781   0.591   6.030  0.0835 -0.3725  0.0904
   66MOL   H21031540   7.889   0.987   6.896  2.0171  0.0609  0.6163
   66MOL   H21131541   8.036   0.846   6.743 -0.0910  1.1353  1.5465
   66MOL   H21231542   7.904   1.049   6.407 -1.7678  0.7866  0.8565
   66MOL   H21331543   7.773   1.208   6.534 -2.4374  0.2555  1.3575
   66MOL   H21431544   8.092   0.882   6.190  0.8530  0.2927  0.7861
   66MOL   H21531545   7.984   0.756   6.010 -0.5110  1.0048 -0.1606
   66MOL   H21631546   7.718   0.564   6.300  0.2176 -0.6286 -1.1143
   66MOL   H21731547   7.851   0.685   6.484  2.1755 -0.5009  0.6096
   66MOL   C21831548   7.856   0.357   6.066 -0.3487  0.4119 -0.8497
   66MOL   C21931549   7.824   0.217   6.058  0.0380 -0.1992 -0.0044
   66MOL   C22031550   7.694   0.182   6.027 -0.0883 -0.5625  0.2970
   66MOL   C22131551   7.593   0.278   5.994 -0.4965  0.3120  0.7640
   66MOL   C22231552   7.628   0.412   5.994  0.0580  0.2143 -0.3452
   66MOL   C22331553   7.759   0.454   6.028 -0.1475 -0.3075 -0.3935
   66MOL   S22431554   7.664   0.017   5.995  0.5066 -0.0894  0.5128
   66MOL   O22531555   7.611   8.376   6.116  0.3450 -0.4368 -0.2048
   66MOL   O22631556   7.781   8.384   5.931 -0.1941 -0.2966 -1.1585
   66MOL   C22731557   7.531   0.014   5.871  0.0293 -0.3492 -0.1138
   66MOL   C22831558   7.558   0.044   5.737  0.8720  0.7462  0.7290
   66MOL   C22931559   7.454   0.035   5.644 -0.5338  0.2854  0.4587
   66MOL   C23031560   7.324   0.006   5.689  0.1593 -0.1818  0.7745
   66MOL   C23131561   7.297   8.404   5.823  0.0366  0.2716  0.2628
   66MOL   C23231562   7.405   8.407   5.912  0.1363  0.2107  0.1110
   66MOL   O23331563   7.216   0.031   5.603 -0.9126  0.4371  0.1733
   66MOL   H23431564   7.953   0.378   6.108 -1.0223  1.2729  0.2952
   66MOL   H23531565   7.897   0.140   6.077  0.2902 -0.0014 -0.1609
   66MOL   H23631566   7.494   0.253   5.958 -0.8320  0.0225  1.8651
   66MOL   H23731567   7.559   0.485   5.955  1.8501  1.8746 -0.4923
   66MOL   H23831568   7.659   0.065   5.703  2.1798 -1.1239  3.2778
   66MOL   H23931569   7.473   0.069   5.544  1.3691  2.7028  1.5925
   66MOL   H24031570   7.195   8.390   5.855 -0.4823 -1.3836 -1.9454
   66MOL   H24131571   7.382   8.380   6.014  0.3584 -0.8474 -0.1108
   66MOL   C24231572   6.982   8.414   5.551 -0.7899 -0.2607 -0.4151
   66MOL   C24331573   6.883   8.325   5.508 -0.5826  0.2579  0.4395
   66MOL   C24431574   6.903   8.185   5.501 -0.4916 -0.1280 -0.6386
   66MOL   C24531575   7.027   8.136   5.542  0.0628  0.4228 -1.0455
   66MOL   C24631576   7.133   8.226   5.570 -0.2404 -0.4738  0.0864
   66MOL   C24731577   7.112   8.365   5.579 -0.2218  0.0615 -0.1957
   66MOL   S24831578   6.769   8.083   5.435 -0.0529 -0.0777 -0.3732
   66MOL   O24931579   6.649   8.166   5.442  0.0086 -0.0470  0.4186
   66MOL   O25031580   6.757   7.951   5.497  0.0000  0.1354 -0.1144
   66MOL   C25131581   6.808   8.058   5.264  0.3383 -0.5616 -0.3632
   66MOL   C25231582   6.724   8.110   5.164  0.8116 -0.6289  0.5813
   66MOL   C25331583   6.758   8.108   5.030  0.2043  0.3426 -0.1854
   66MOL   C25431584   6.870   8.031   4.990  0.3390 -0.1211  0.0520
   66MOL   C25531585   6.950   7.966   5.085 -0.5406  0.1292  1.6927
   66MOL   C25631586   6.928   7.988   5.224 -0.5106  0.2349  1.1800
   66MOL   O25731587   6.889   8.028   4.855  0.1332 -0.5024  0.4126
   66MOL   H25831588   6.968   0.095   5.555  0.1173 -0.1708  0.7163
   66MOL   H25931589   6.785   8.360   5.480 -2.1117 -1.4495  3.4305
   66MOL   H26031590   7.036   8.028   5.546 -0.2316  0.4422  0.4028
   66MOL   H26131591   7.232   8.187   5.586  0.4901  0.7802 -1.2382
   66MOL   H26231592   6.641   8.175   5.188  0.7914  0.0558 -1.3024
   66MOL   H26331593   6.692   8.145   4.953  0.5743 -1.0993 -1.2103
   66MOL   H26431594   7.028   7.901   5.047 -0.0461  2.1681 -0.9393
   66MOL   H26531595   6.988   7.930   5.292  1.3040  1.9259  1.0866
   66MOL   C26631596   6.825   7.800   4.804 -0.4097 -0.2780  0.2215
   66MOL   C26731597   6.760   7.712   4.718  0.0373 -0.2452 -0.2092
   66MOL   C26831598   6.678   7.753   4.611 -0.7846 -1.0458 -0.6365
   66MOL   C26931599   6.663   7.888   4.591 -0.3232  0.2606 -0.0801
   66MOL   C27031600   6.732   7.984   4.675  0.4544  0.4162 -0.2026
   66MOL   C27131601   6.817   7.937   4.781  0.3701 -0.3659 -0.5632
   66MOL   S27231602   6.582   7.631   4.517 -0.3068  0.0061 -0.2587
   66MOL   O27331603   6.443   7.664   4.534 -0.0968  0.2826 -0.1759
   66MOL   O27431604   6.632   7.495   4.547  0.2262 -0.6080 -0.4655
   66MOL   C27531605   6.615   7.659   4.340 -0.4401  0.4207 -0.3167
   66MOL   C27631606   6.510   7.687   4.248 -0.4960 -1.5756 -0.1671
   66MOL   C27731607   6.536   7.717   4.111  0.4535 -0.6352 -1.0922
   66MOL   C27831608   6.671   7.718   4.065  0.5043  0.5568  0.4064
   66MOL   C27931609   6.776   7.691   4.157  0.3869 -0.5858  0.1238
   66MOL   C28031610   6.750   7.657   4.290 -1.3376 -0.2728 -0.3229
   66MOL   O28131611   6.687   7.744   3.935 -0.1505 -0.2764  0.0355
   66MOL   H28231612   6.869   7.752   4.890 -1.4418 -0.7795  0.4741
   66MOL   H28331613   6.746   7.609   4.749 -0.0351 -0.2878 -0.3855
   66MOL   H28431614   6.597   7.928   4.515  0.9404 -1.0363 -1.9010
   66MOL   H28531615   6.711   8.087   4.650 -3.5688  0.3721  2.5511
   66MOL   H28631616   6.411   7.697   4.290 -0.1923 -0.6479  0.3437
   66MOL   H28731617   6.457   7.738   4.041  0.3945 -0.1765 -0.8898
   66MOL   H28831618   6.879   7.696   4.125  0.3153  1.4924  0.1861
   66MOL   H28931619   6.830   7.630   4.357 -1.6227  1.7570  0.8840
   66MOL   C29031620   6.673   7.977   3.905  0.4232  0.0517  0.2853
   66MOL   C29131621   6.732   8.103   3.874 -0.2722 -0.5538  0.0304
   66MOL   C29231622   6.869   8.119   3.846  0.1755  0.2732 -0.9637
   66MOL   C29331623   6.945   8.001   3.853 -0.4033  0.6090  0.3072
   66MOL   C29431624   6.890   7.875   3.886  0.2972 -1.3759 -0.1085
   66MOL   C29531625   6.750   7.866   3.907 -0.2478 -0.0788 -0.6866
   66MOL   S29631626   6.941   8.268   3.788 -0.3713 -0.6355 -0.3408
   66MOL   O29731627   7.078   8.270   3.841 -0.5340 -0.1830 -0.0344
   66MOL   O29831628   6.855   8.384   3.813 -0.5880  0.0459 -0.0101
   66MOL   C29931629   6.955   8.242   3.615 -0.4495  0.2882  0.4197
   66MOL   C30031630   6.854   8.170   3.548 -0.0759 -0.0570  0.1835
   66MOL   C30131631   6.875   8.125   3.416  0.3021 -0.1999 -0.4087
   66MOL   C30231632   6.990   8.158   3.337  0.2075 -0.3700 -0.2644
   66MOL   C30331633   7.088   8.222   3.413  0.0356  0.0607 -0.3377
   66MOL   C30431634   7.075   8.259   3.548  0.1775 -0.1307  0.3626
   66MOL   O30531635   6.998   8.111   3.207  0.0289 -0.7542  0.3495
   66MOL   H30631636   6.568   7.963   3.927  0.7675 -1.6936  0.8999
   66MOL   H30731637   6.673   8.192   3.860 -0.9329 -0.9556  0.2234
   66MOL   H30831638   7.051   8.008   3.832 -0.9115  1.1912 -2.2500
   66MOL   H30931639   6.948   7.785   3.879 -0.0084 -1.5851  0.0181
   66MOL   H31031640   6.759   8.151   3.595 -0.3307  1.1271  0.1407
   66MOL   H31131641   6.800   8.069   3.363 -1.8937  1.3469  0.9646
   66MOL   H31231642   7.181   8.240   3.360  0.1312 -2.3523 -1.0559
   66MOL   H31331643   7.167   8.295   3.592 -0.5930 -0.6270  2.3979
   66MOL   C31431644   7.008   8.312   3.073 -0.2807 -1.5337  0.4585
   66MOL   C31531645   7.086   8.404   2.998  0.4125  0.0368  0.1581
   66MOL   C31631646   7.224   8.370   2.978  0.3659  0.0163  0.1353
   66MOL   C31731647   7.281   8.263   3.033 -0.1053 -0.8606  0.1152
   66MOL   C31831648   7.208   8.166   3.107 -0.0380  0.4142 -0.7690
   66MOL   C31931649   7.071   8.192   3.119  0.5363 -0.2824 -0.2293
   66MOL   S32031650   7.332   0.058   2.890  0.5061  0.1384  0.0399
   66MOL   O32131651   7.387   0.146   2.996 -0.2459 -0.5458 -0.5995
   66MOL   O32231652   7.262   0.123   2.777  0.3819  0.4665 -0.4607
   66MOL   C32331653   7.467   8.387   2.821 -0.0231 -0.9607  0.1402
   66MOL   C32431654   7.438   8.272   2.750 -0.3631 -0.4478 -0.0186
   66MOL   C32531655   7.548   8.192   2.703  0.4901 -0.3292  0.1473
   66MOL   C32631656   7.682   8.224   2.734  0.0158  0.2879 -0.2376
   66MOL   C32731657   7.708   8.339   2.812 -0.3611  0.7444 -0.3045
   66MOL   C32831658   7.600   8.415   2.857 -0.3346 -0.1625 -0.3635
   66MOL   O32931659   7.782   8.143   2.682  0.5696  0.0120  0.1658
   66MOL   H33031660   6.904   8.330   3.098  0.1664 -0.8328  1.8197
   66MOL   H33131661   7.037   0.071   2.970  1.1138  0.2303 -0.4476
   66MOL   H33231662   7.388   8.249   3.031 -0.0411 -0.3271 -0.1585
   66MOL   H33331663   7.268   8.094   3.160  0.2767  0.5782 -0.9042
   66MOL   H33431664   7.337   8.251   2.718 -0.1615 -1.6798  0.1361
   66MOL   H33531665   7.537   8.103   2.643 -1.4387 -0.3447  0.4718
   66MOL   H33631666   7.809   8.366   2.842 -1.5147  1.2731  3.3187
   66MOL   H33731667   7.616   0.076   2.921  0.1347  0.0493 -0.7610
   66MOL   C33831668   7.995   8.204   2.762  0.3950  0.5851 -0.5936
   66MOL   C33931669   8.093   8.175   2.856 -0.1270  0.6243 -0.0538
   66MOL   C34031670   8.091   8.045   2.922  0.0866  0.3932  0.5689
   66MOL   C34131671   7.980   7.968   2.923 -0.1631  0.1347 -0.3250
   66MOL   C34231672   7.873   7.994   2.840 -0.5500 -0.0761  0.2722
   66MOL   C34331673   7.882   8.112   2.763  0.2163  0.1859  0.1180
   66MOL   S34431674   8.231   7.981   3.021 -0.0132  0.3148  0.0334
   66MOL   O34531675   8.349   8.047   2.963  0.0198  0.3874 -0.3877
   66MOL   O34631676   8.239   7.837   3.033 -0.2959  0.5869 -0.0885
   66MOL   C34731677   8.222   8.044   3.191  0.7373 -0.3233 -0.2721
   66MOL   C34831678   8.099   8.027   3.262  0.1676 -0.5767  0.0370
   66MOL   C34931679   8.075   8.074   3.395 -0.1756  1.0115 -0.3228
   66MOL   C35031680   8.176   8.149   3.455 -0.6361 -0.1059 -0.1790
   66MOL   C35131681   8.300   8.170   3.385  0.6473  0.0928 -0.5116
   66MOL   C35231682   8.327   8.106   3.260  0.5935 -0.3324 -0.2734
   66MOL   O35331683   8.150   8.199   3.588 -0.0832 -0.3492  0.0765
   66MOL   H35431684   8.009   8.286   2.693  0.9022  0.5979 -0.4844
   66MOL   H35531685   8.180   8.235   2.877  0.7483 -0.3224 -0.9124
   66MOL   H35631686   7.974   7.883   2.989 -1.6261  1.3239  1.1460
   66MOL   H35731687   7.796   7.921   2.823 -0.2289 -0.1850 -0.7393
   66MOL   H35831688   8.024   7.969   3.210  1.4308 -0.6224 -1.8136
   66MOL   H35931689   7.989   8.047   3.455  0.9186 -0.9650  0.4039
   66MOL   H36031690   8.384   8.225   3.425  0.8672  0.4736 -1.4899
   66MOL   H36131691   8.419   8.121   3.205  0.4999 -2.0844 -0.9344
   66MOL   C36231692   7.913   8.243   3.601  0.1847  0.3275 -0.2522
   66MOL   C36331693   7.791   8.217   3.667  0.4295 -0.0326  0.1282
   66MOL   C36431694   7.778   8.122   3.770  0.1142 -0.1738 -0.4990
   66MOL   C36531695   7.899   8.063   3.815  0.0265 -0.1332  0.1155
   66MOL   C36631696   8.023   8.093   3.757  0.2371 -0.0317  0.4648
   66MOL   C36731697   8.030   8.187   3.652  0.3540  0.0186  0.0028
   66MOL   S36831698   7.627   8.100   3.851  0.1713 -0.3220 -0.0390
   66MOL   O36931699   7.664   8.017   3.970  0.2153 -0.4505 -0.0713
   66MOL   O37031700   7.524   8.057   3.751  0.1316  0.6412  0.0146
   66MOL   C37131701   7.568   8.261   3.912 -0.4539 -0.4500  0.1582
   66MOL   C37231702   7.639   8.333   4.012 -1.0387 -0.0019 -0.4685
   66MOL   C37331703   7.577   0.029   4.060 -0.2112  0.6771 -0.2485
   66MOL   C37431704   7.449   0.074   4.022  0.0623 -0.4460 -0.7050
   66MOL   C37531705   7.393   0.008   3.917 -0.4757  0.1524  0.4648
   66MOL   C37631706   7.450   8.317   3.857  0.0884 -0.6937 -0.0366
   66MOL   O37731707   7.387   0.186   4.084  0.3609  0.3945  0.7022
   66MOL   H37831708   7.910   8.316   3.522  2.4441 -1.4316 -2.0214
   66MOL   H37931709   7.702   8.269   3.636 -1.0133 -2.8825 -0.7146
   66MOL   H38031710   7.897   7.997   3.900  1.6649 -1.1970 -0.6323
   66MOL   H38131711   8.106   8.048   3.809  0.9878  2.1021  1.1529
   66MOL   H38231712   7.738   8.308   4.048 -0.0766  1.8377 -1.7694
   66MOL   H38331713   7.631   0.087   4.133 -0.4356  1.0566 -0.3817
   66MOL   H38431714   7.298   0.036   3.873 -0.4554 -1.2996 -0.5313
   66MOL   H38531715   7.397   8.276   3.772  0.7065 -2.6513  0.5016
   66MOL   C38631716   7.445   0.389   3.964 -0.3857  0.6589  0.1200
   66MOL   C38731717   7.414   0.491   3.873  0.5976 -0.0689  0.3971
   66MOL   C38831718   7.284   0.495   3.816  0.0758 -0.1144  0.8278
   66MOL   C38931719   7.194   0.384   3.832  0.2381 -0.7793 -0.2573
   66MOL   C39031720   7.226   0.283   3.923  0.5363  0.0417  0.7100
   66MOL   C39131721   7.350   0.285   3.996 -0.4157  0.1640  0.2609
   66MOL   S39231722   7.232   0.633   3.708  0.3265  0.0680  0.1687
   66MOL   O39331723   7.095   0.611   3.661 -0.8096  0.3663  0.5931
   66MOL   O39431724   7.340   0.661   3.612  0.7836  0.6142  0.3354
   66MOL   C39531725   7.221   0.778   3.818  0.7421  0.0613 -0.0790
   66MOL   C39631726   7.245   0.907   3.765 -0.2050  0.3081 -0.0751
   66MOL   C39731727   7.232   1.020   3.846 -0.1464 -0.8106  0.2510
   66MOL   C39831728   7.198   1.004   3.987  0.3317 -0.2480 -0.3903
   66MOL   C39931729   7.167   0.877   4.036  0.0640 -0.3712  0.0821
   66MOL   C40031730   7.183   0.761   3.954  0.1806 -0.2795 -0.2217
   66MOL   O40131731   7.203   1.121   4.064 -0.3485  0.2471  0.0680
   66MOL   H40231732   7.535   0.397   4.023 -0.4744  1.0922  0.1983
   66MOL   H40331733   7.492   0.563   3.850 -0.7689  0.3072 -3.6309
   66MOL   H40431734   7.097   0.387   3.786  0.2124  2.0095 -0.1205
   66MOL   H40531735   7.146   0.213   3.940 -1.2297  2.1229  1.1868
   66MOL   H40631736   7.268   0.930   3.662  1.3041  1.9629  0.5972
   66MOL   H40731737   7.259   1.118   3.809  0.6567 -1.6614 -1.4523
   66MOL   H40831738   7.133   0.856   4.136 -2.5089 -0.2140 -0.7326
   66MOL   H40931739   7.162   0.663   3.993  3.5182 -0.7774  0.5131
   66MOL   C41031740   6.964   1.096   4.139 -0.2215  0.7284  0.0002
   66MOL   C41131741   6.869   1.117   4.233  0.1306 -0.0756  0.0954
   66MOL   C41231742   6.894   1.196   4.344 -0.8016  0.1960 -0.2459
   66MOL   C41331743   7.021   1.252   4.363  0.7401 -0.8459  0.1588
   66MOL   C41431744   7.126   1.223   4.275 -0.7625 -0.0143  0.4572
   66MOL   C41531745   7.099   1.146   4.160  0.3989 -0.8440  0.5400
   66MOL   S41631746   6.759   1.229   4.449 -0.0676 -0.0787 -0.0375
   66MOL   O41731747   6.647   1.268   4.365  0.8588 -1.1744 -0.3215
   66MOL   O41831748   6.799   1.312   4.563 -0.0863 -0.1555  0.6917
   66MOL   C41931749   6.721   1.068   4.498  0.1426 -0.3291 -0.6619
   66MOL   C42031750   6.823   0.980   4.540 -0.1512  0.4535  0.1350
   66MOL   C42131751   6.778   0.856   4.599 -0.1987  0.3543 -0.4800
   66MOL   C42231752   6.641   0.817   4.599 -0.4343  0.1880  0.9791
   66MOL   C42331753   6.543   0.907   4.559  0.0363 -0.5086  0.0261
   66MOL   C42431754   6.581   1.033   4.507 -0.5989  0.1206 -0.1412
   66MOL   O42531755   6.609   0.695   4.651  0.4500 -0.1771  0.3181
   66MOL   H42631756   6.948   1.043   4.046  1.8031 -1.1931  0.7006
   66MOL   H42731757   6.766   1.083   4.222 -0.6702  0.7129  4.4029
   66MOL   H42831758   7.039   1.320   4.445 -0.6948 -0.6584  0.3287
   66MOL   H42931759   7.225   1.264   4.292  0.1562 -1.8023 -0.4621
   66MOL   H43031760   6.928   0.999   4.526 -0.2893  0.1549 -1.4163
   66MOL   H43131761   6.851   0.786   4.636 -1.8680 -1.8669 -1.2877
   66MOL   H43231762   6.438   0.881   4.563 -0.1023  0.0314 -0.1377
   66MOL   H43331763   6.507   1.097   4.462 -0.8456 -0.6030 -0.7889
   66MOL   C43431764   6.590   0.588   4.427  0.0410 -0.2344  0.4260
   66MOL   C43531765   6.598   0.472   4.349  0.2299 -0.4586  0.3886
   66MOL   C43631766   6.626   0.350   4.410 -0.4532  0.2611 -0.0945
   66MOL   C43731767   6.659   0.339   4.543 -0.0955  0.1715 -0.3711
   66MOL   C43831768   6.652   0.456   4.623  0.4310  0.6782  0.2342
   66MOL   C43931769   6.621   0.585   4.564  0.4744  1.0795 -0.4438
   66MOL   S44031770   6.620   0.194   4.330 -0.4339 -0.0034 -0.3911
   66MOL   O44131771   6.514   0.117   4.409 -0.4080  0.2913  0.3489
   66MOL   O44231772   6.761   0.149   4.328  0.2400  0.0315  0.3057
   66MOL   C44331773   6.559   0.207   4.156 -0.2356  0.8482 -0.1093
   66MOL   C44431774   6.436   0.271   4.134  0.0438 -0.1331  0.3434
   66MOL   C44531775   6.376   0.262   4.010 -0.6171  1.0985 -0.5509
   66MOL   C44631776   6.448   0.196   3.901 -0.1903  1.5688  0.3604
   66MOL   C44731777   6.580   0.152   3.923 -0.0433  0.1449 -0.3597
   66MOL   C44831778   6.634   0.147   4.053  0.1509 -0.2368  0.5299
   66MOL   O44931779   6.385   0.194   3.779  0.6698  0.3030  0.7712
   66MOL   H45031780   6.565   0.687   4.391  1.9525  0.0317 -0.1912
   66MOL   H45131781   6.573   0.475   4.244 -0.6368  1.4932  0.6371
   66MOL   H45231782   6.679   0.242   4.585  0.7592  0.1412 -0.8252
   66MOL   H45331783   6.669   0.446   4.729 -1.8134 -1.6840  0.4094
   66MOL   H45431784   6.375   0.310   4.214  0.3156 -0.7202  0.8361
   66MOL   H45531785   6.278   0.303   3.990 -0.5225  1.2133 -0.7813
   66MOL   H45631786   6.646   0.117   3.844  0.1803  1.0938 -0.5999
   66MOL   H45731787   6.731   0.109   4.082  0.7420  0.8668 -0.0048
   66MOL   C45831788   6.259   8.415   3.745  0.3154 -0.4324  1.1076
   66MOL   C45931789   6.266   8.275   3.716  0.2834 -0.0412 -0.3034
   66MOL   C46031790   6.381   8.225   3.641 -0.0059  0.1831  0.3846
   66MOL   C46131791   6.487   8.311   3.603  0.2623 -0.4632 -0.1396
   66MOL   C46231792   6.479   0.021   3.638 -0.6005  0.1375 -0.0163
   66MOL   C46331793   6.372   0.069   3.719 -0.6859  0.4284 -0.5728
   66MOL   S46431794   6.394   8.053   3.615 -0.0679  0.0121 -0.2790
   66MOL   O46531795   6.347   7.997   3.744  0.2705 -0.3348  0.3783
   66MOL   O46631796   6.534   8.024   3.571 -0.4234 -0.4039  0.4217
   66MOL   C46731797   6.280   8.003   3.493 -0.4136  0.7680  0.5329
   66MOL   C46831798   6.236   7.876   3.511  0.0169  0.3755  0.2313
   66MOL   C46931799   6.142   7.826   3.417  0.5371  0.1979  0.0347
   66MOL   C47031800   6.106   7.904   3.306 -0.5115 -0.5275 -0.1082
   66MOL   C47131801   6.154   8.034   3.286 -0.4658  0.2818 -0.0886
   66MOL   C47231802   6.241   8.087   3.383  0.4876  0.1788 -0.6816
   66MOL   O47331803   6.017   7.859   3.215 -0.3919 -0.3872  0.4337
   66MOL   H47431804   6.179   0.028   3.807 -0.3004  1.5917 -0.8422
   66MOL   H47531805   6.186   8.212   3.752 -1.4252  2.1754 -0.1127
   66MOL   H47631806   6.577   8.276   3.554  0.2509  0.9239 -1.2002
   66MOL   H47731807   6.562   0.081   3.605 -0.5209 -0.0129 -0.0878
   66MOL   H47831808   6.267   7.804   3.585  0.7050  1.1210  0.6717
   66MOL   H47931809   6.096   7.729   3.432  0.7772  0.0516 -0.1947
   66MOL   H48031810   6.122   8.098   3.204 -1.8858 -0.3654 -0.0604
   66MOL   H48131811   6.272   8.190   3.380  0.6326  0.1038 -3.1998
   66MOL   H48231812   5.951   7.796   3.239  0.0078 -1.1499 -0.4298
   67MOL     C131813   1.058   7.702   0.567  0.1546  0.1505 -0.1950
   67MOL     C231814   1.091   7.570   0.610  0.7718 -0.3002 -0.1971
   67MOL     C331815   1.208   7.508   0.568 -0.4265  0.0319  0.3867
   67MOL     C431816   1.305   7.582   0.498 -0.0711  0.2840  0.4678
   67MOL     C531817   1.278   7.713   0.458 -0.0626  0.3360 -0.2721
   67MOL     C631818   1.153   7.772   0.489  0.8032 -0.2371 -0.2225
   67MOL     S731819   1.224   7.333   0.611 -0.3133  0.1664  0.2409
   67MOL     O831820   1.361   7.298   0.578 -0.7093  0.1343  0.0757
   67MOL     O931821   1.109   7.262   0.552 -0.2354 -0.3129 -0.4776
   67MOL    C1031822   1.214   7.332   0.792 -0.0041  0.2451  0.1605
   67MOL    C1131823   1.313   7.382   0.878 -0.2215  0.3407  0.7391
   67MOL    C1231824   1.295   7.375   1.021  0.2948  0.8186 -0.3351
   67MOL    C1331825   1.174   7.324   1.071 -0.3342  0.2201  0.0885
   67MOL    C1431826   1.085   7.261   0.986  0.2756  0.3755  1.0561
   67MOL    C1531827   1.108   7.260   0.848  0.3509  0.0084 -0.3234
   67MOL    O1631828   1.157   7.335   1.210  0.0306 -0.1277 -0.0669
   67MOL    H1731829   0.960   7.742   0.592  0.0334  0.4121 -1.0742
   67MOL    H1831830   1.022   7.511   0.667  1.5659  0.9086  2.0896
   67MOL    H1931831   1.398   7.535   0.469 -0.3107  0.9773 -1.4843
   67MOL    H2031832   1.347   7.775   0.401  0.4786  0.8207  0.8988
   67MOL    H2131833   1.404   7.418   0.831 -0.9248  0.0392 -0.8681
   67MOL    H2231834   1.366   7.422   1.089  1.1907 -1.5044  0.4112
   67MOL    H2331835   0.991   7.223   1.023 -1.5685  3.4292 -0.3056
   67MOL    H2431836   1.036   7.220   0.778  0.2967 -2.4625  1.0950
   67MOL    H2531837   1.138   7.871   0.448 -1.6418 -1.1244 -1.5857
   67MOL    C2631838   0.953   7.278   1.313  0.2786 -0.3890  0.7642
   67MOL    C2731839   0.819   7.309   1.352  0.9747  0.2066  0.3071
   67MOL    C2831840   0.775   7.447   1.339 -0.0305 -0.1660 -0.1254
   67MOL    C2931841   0.861   7.543   1.279  0.5473 -0.7251 -0.5501
   67MOL    C3031842   0.991   7.504   1.237 -0.2461 -0.2940 -0.3181
   67MOL    C3131843   1.029   7.373   1.253 -0.5353  0.0281  0.2438
   67MOL    S3231844   0.627   7.501   1.409 -0.2287 -0.2393 -0.0325
   67MOL    O3331845   0.517   7.408   1.374  0.6504 -0.0216 -0.0974
   67MOL    O3431846   0.605   7.643   1.368 -0.5321 -0.1342 -0.1814
   67MOL    C3531847   0.660   7.503   1.583  0.6093 -1.2036 -0.0623
   67MOL    C3631848   0.628   7.396   1.669 -0.0433  1.0300  0.1812
   67MOL    C3731849   0.671   7.395   1.804 -0.0930 -0.6828 -0.8475
   67MOL    C3831850   0.735   7.504   1.868  0.2572 -0.5233 -0.3648
   67MOL    C3931851   0.758   7.615   1.783  0.0191  0.0631 -0.0104
   67MOL    C4031852   0.733   7.615   1.639 -0.7573 -0.3391  0.5838
   67MOL    O4131853   0.760   7.504   2.005 -0.1434 -0.5712 -0.3987
   67MOL    H4231854   0.992   7.180   1.337  1.2897  0.3649  2.2452
   67MOL    H4331855   0.746   7.244   1.397  0.4050 -0.3788 -1.4304
   67MOL    H4431856   0.844   7.649   1.287  0.4434 -0.8813  1.6151
   67MOL    H4531857   1.048   7.579   1.184  0.3360  0.1526  0.9019
   67MOL    H4631858   0.572   7.309   1.637 -0.6510  1.0441  1.1835
   67MOL    H4731859   0.659   7.299   1.852  0.1531 -1.3234 -2.0369
   67MOL    H4831860   0.801   7.702   1.830  0.3978  0.3143 -0.8049
   67MOL    H4931861   0.753   7.695   1.570  0.2900 -0.2681  0.9591
   67MOL    C5031862   0.721   7.331   2.160  0.1678  0.2762  0.2753
   67MOL    C5131863   0.618   7.248   2.218  1.6044 -0.1288  0.7000
   67MOL    C5231864   0.481   7.273   2.215  0.0760  0.0724  1.0405
   67MOL    C5331865   0.446   7.400   2.159 -0.3059 -0.1254  0.1338
   67MOL    C5431866   0.540   7.479   2.089 -0.0375  0.4098 -0.1037
   67MOL    C5531867   0.676   7.445   2.090 -0.2302 -0.5739 -0.8739
   67MOL    S5631868   0.368   7.145   2.253  0.0756  0.4151  0.1659
   67MOL    O5731869   0.410   7.091   2.387  0.0845 -0.1342 -0.2493
   67MOL    O5831870   0.364   7.048   2.142 -0.4810 -0.3671 -0.0203
   67MOL    C5931871   0.201   7.205   2.278 -0.4901  0.7484  1.0404
   67MOL    C6031872   0.098   7.199   2.182  0.1867  0.2787  0.7535
   67MOL    C6131873   8.396   7.253   2.213 -0.8916 -0.2367 -0.0145
   67MOL    C6231874   8.376   7.320   2.333  0.0605 -0.7885  0.2331
   67MOL    C6331875   0.057   7.339   2.424  0.1209 -0.2516 -0.4285
   67MOL    C6431876   0.179   7.278   2.398  0.2231 -0.3632  0.0328
   67MOL    O6531877   8.259   7.376   2.356  0.4987  0.2242 -0.6747
   67MOL    H6631878   0.827   7.310   2.167  0.0169 -1.2188 -1.4958
   67MOL    H6731879   0.644   7.146   2.244 -0.8298 -1.9592 -3.5301
   67MOL    H6831880   0.344   7.436   2.167 -0.6525 -0.7207 -1.4648
   67MOL    H6931881   0.520   7.577   2.049 -0.7787 -0.5086 -2.0635
   67MOL    H7031882   0.107   7.164   2.080 -1.5596  1.7486  0.0558
   67MOL    H7131883   8.320   7.261   2.137 -2.3879 -0.5164  1.4328
   67MOL    H7231884   0.043   7.396   2.515 -0.4606 -2.1845  0.7433
   67MOL    H7331885   0.264   7.299   2.461  0.3014  0.8392 -0.4488
   67MOL    C7431886   8.317   7.610   2.402 -0.0182 -0.1430  0.2182
   67MOL    C7531887   8.308   7.745   2.355  0.7010  0.4554 -0.0173
   67MOL    C7631888   8.237   7.776   2.240 -0.2706  0.4260  1.0770
   67MOL    C7731889   8.173   7.678   2.161  0.4243 -0.0004 -0.1754
   67MOL    C7831890   8.184   7.542   2.205 -0.4098 -0.4915  0.0283
   67MOL    C7931891   8.252   7.509   2.324 -0.0864 -0.6147  0.1411
   67MOL    S8031892   8.251   7.940   2.178 -0.0810 -0.0320 -0.2432
   67MOL    O8131893   8.250   8.034   2.291 -0.3621  0.2476  0.2203
   67MOL    O8231894   8.148   7.951   2.074  0.3553  0.2498 -0.0825
   67MOL    C8331895   8.409   7.945   2.104  0.0275  0.0288 -0.3122
   67MOL    C8431896   8.421   7.890   1.975  0.7080 -0.2515  0.1984
   67MOL    C8531897   0.121   7.884   1.910 -0.5661 -0.9037  0.6382
   67MOL    C8631898   0.228   7.937   1.986 -0.3537 -0.3367 -0.2292
   67MOL    C8731899   0.220   7.980   2.122 -0.2373  0.4850 -0.1572
   67MOL    C8831900   0.099   7.972   2.181  0.4773 -0.0153 -0.0086
   67MOL    O8931901   0.352   7.929   1.930  0.2195 -0.0915  0.3024
   67MOL    H9031902   8.366   7.583   2.495  0.2323  0.4094  0.2507
   67MOL    H9131903   8.348   7.827   2.413  0.3701  1.5876 -1.3738
   67MOL    H9231904   8.098   7.698   2.087 -1.9634 -0.8187  1.9363
   67MOL    H9331905   8.154   7.453   2.151 -1.2274  0.5226 -1.2229
   67MOL    H9431906   8.331   7.861   1.923 -0.2889  3.1974 -0.1925
   67MOL    H9531907   0.142   7.821   1.825 -2.3867 -2.3237  1.2135
   67MOL    H9631908   0.306   8.019   2.173  1.4756 -2.8152 -0.4017
   67MOL    H9731909   0.087   7.989   2.287  2.1335 -0.7846  0.3197
   67MOL    C9831910   0.415   7.915   1.707  0.5057  0.2063  0.3222
   67MOL    C9931911   0.423   7.965   1.581 -0.1943 -0.6959  0.3384
   67MOL   C10031912   0.393   8.103   1.552 -0.1546  0.4519 -0.2033
   67MOL   C10131913   0.356   8.188   1.661  0.2595 -0.2895 -0.4717
   67MOL   C10231914   0.340   8.133   1.790  0.3951  0.0723 -0.0692
   67MOL   C10331915   0.366   7.998   1.812  0.3215 -0.0162 -0.1212
   67MOL   S10431916   0.401   8.157   1.384  0.0195  0.0999  0.1199
   67MOL   O10531917   0.380   8.303   1.384 -0.5324  0.3033 -0.0061
   67MOL   O10631918   0.314   8.070   1.296 -0.5992  0.0019 -0.9409
   67MOL   C10731919   0.570   8.126   1.345 -0.1139  0.2169  0.4950
   67MOL   C10831920   0.667   8.193   1.418  0.5228 -0.1303  0.0143
   67MOL   C10931921   0.801   8.172   1.378  0.7455 -0.4162 -0.8147
   67MOL   C11031922   0.828   8.081   1.277 -0.2979 -0.1072  0.5281
   67MOL   C11131923   0.731   8.007   1.214 -0.8047 -0.2401 -0.4851
   67MOL   C11231924   0.601   8.041   1.241 -0.9785  0.4924 -0.4155
   67MOL   O11331925   0.961   8.042   1.262  0.0433 -0.1581  1.2275
   67MOL   H11431926   0.437   7.811   1.726  0.7208  0.1783 -0.0808
   67MOL   H11531927   0.471   7.908   1.503 -0.8235 -0.5214 -0.1810
   67MOL   H11631928   0.333   8.290   1.636  2.7522  0.2968 -0.4602
   67MOL   H11731929   0.306   8.195   1.871 -0.3699  0.0730 -0.3838
   67MOL   H11831930   0.631   8.259   1.496  0.2550 -0.5342  0.2283
   67MOL   H11931931   0.885   8.221   1.425  0.2415  1.1238 -1.5011
   67MOL   H12031932   0.753   7.936   1.135  1.0077 -0.8493  0.5355
   67MOL   H12131933   0.529   7.982   1.186  0.6598 -1.0626 -0.9424
   67MOL   C12231934   0.970   7.911   1.461 -0.0182  0.2942  0.6205
   67MOL   C12331935   1.016   7.801   1.527  0.2891 -0.3280  0.0017
   67MOL   C12431936   1.121   7.725   1.469 -0.5464 -0.5897  0.0032
   67MOL   C12531937   1.176   7.761   1.347 -0.1021 -0.0241  0.0403
   67MOL   C12631938   1.117   7.861   1.269 -0.1165 -0.5648  0.4540
   67MOL   C12731939   1.011   7.938   1.331  0.6179 -0.1065  0.3675
   67MOL   S12831940   1.191   7.594   1.569 -0.5548  0.0350  0.2348
   67MOL   O12931941   1.095   7.484   1.568  0.1731  0.5931 -0.0370
   67MOL   O13031942   1.226   7.657   1.699  0.6679 -0.2737 -0.1811
   67MOL   C13131943   1.346   7.542   1.496 -0.1479  0.7358  0.2119
   67MOL   C13231944   1.464   7.619   1.506  0.3773 -0.3472 -0.6026
   67MOL   C13331945   1.586   7.567   1.459  0.0013  0.5812  0.3131
   67MOL   C13431946   1.591   7.438   1.400  0.5482 -0.2800 -0.1730
   67MOL   C13531947   1.472   7.363   1.386  0.4706 -0.0487 -0.3031
   67MOL   C13631948   1.351   7.412   1.443 -0.2181 -0.1201 -0.0851
   67MOL   O13731949   1.710   7.382   1.352 -0.1460 -0.3091 -0.1027
   67MOL   H13831950   0.888   7.972   1.497 -0.8870  0.0887 -0.9711
   67MOL   H13931951   0.977   7.774   1.624 -1.7824 -1.1161 -1.0288
   67MOL   H14031952   1.261   7.704   1.314 -0.6265 -0.5748 -0.3628
   67MOL   H14131953   1.158   7.881   1.171 -0.4624  1.0895  0.6238
   67MOL   H14231954   1.450   7.719   1.543  1.4159 -0.1445 -0.7493
   67MOL   H14331955   1.673   7.627   1.477 -1.1755  2.3276  0.2729
   67MOL   H14431956   1.479   7.266   1.338 -1.6954 -0.4079  0.0964
   67MOL   H14531957   1.261   7.353   1.443 -0.0715 -0.3738  1.6404
   67MOL   C14631958   1.711   7.448   1.118 -0.4053  0.2780 -0.2579
   67MOL   C14731959   1.791   7.478   1.003 -0.3559  0.0005  0.0811
   67MOL   C14831960   1.924   7.527   1.026  0.2037 -0.5990 -0.0125
   67MOL   C14931961   1.976   7.537   1.155 -0.6684  0.9356  0.3864
   67MOL   C15031962   1.904   7.488   1.264  0.0453  0.0020 -0.2656
   67MOL   C15131963   1.772   7.442   1.245  0.4705  0.2921  0.1655
   67MOL   S15231964   2.014   7.583   0.889 -0.2758 -0.0810 -0.3708
   67MOL   O15331965   2.125   7.667   0.934 -0.8337 -0.1227 -0.9159
   67MOL   O15431966   1.918   7.645   0.795  0.6610 -0.1989  0.4087
   67MOL   C15531967   2.081   7.429   0.822 -0.4225  0.1240 -0.5166
   67MOL   C15631968   2.209   7.391   0.861  0.2174 -0.2780  0.9997
   67MOL   C15731969   2.261   7.265   0.826 -0.0892  0.2889 -0.1829
   67MOL   C15831970   2.184   7.180   0.737  0.0402 -0.0796  0.2371
   67MOL   C15931971   2.062   7.232   0.689  0.2913 -0.2680 -0.3037
   67MOL   C16031972   2.005   7.356   0.735  0.2594 -0.5663  0.0090
   67MOL   O16131973   2.249   7.063   0.694  0.7771  0.3877 -0.0883
   67MOL   H16231974   1.607   7.426   1.101 -0.6079  0.0882  1.2041
   67MOL   H16331975   1.745   7.475   0.906  2.8061  0.6736 -1.4977
   67MOL   H16431976   2.081   7.561   1.161  0.0382 -2.0784  0.5678
   67MOL   H16531977   1.957   7.500   1.357  0.0019  2.1981 -0.5004
   67MOL   H16631978   2.262   7.467   0.918  0.1846  0.7681 -0.3334
   67MOL   H16731979   2.361   7.238   0.855 -0.5679 -1.8842 -0.5343
   67MOL   H16831980   2.016   7.178   0.607  0.6940 -0.1486 -0.6087
   67MOL   H16931981   1.906   7.383   0.702  0.8730  0.1785 -1.2523
   67MOL   C17031982   2.118   6.919   0.561  0.0055  0.5021 -0.0550
   67MOL   C17131983   2.032   6.807   0.554  0.3570  0.4352  0.8171
   67MOL   C17231984   2.022   6.719   0.665  0.0380  0.7601 -0.3432
   67MOL   C17331985   2.080   6.750   0.785 -0.7091  0.6742 -0.6503
   67MOL   C17431986   2.152   6.873   0.795 -0.3829  0.0906 -0.7476
   67MOL   C17531987   2.173   6.953   0.681 -0.8332 -0.7043 -0.1767
   67MOL   S17631988   1.927   6.567   0.652 -0.1808  0.4598 -0.3657
   67MOL   O17731989   1.940   6.502   0.779  0.6319  0.9331 -0.3419
   67MOL   O17831990   1.966   6.493   0.530 -0.4015  0.1581  0.5367
   67MOL   C17931991   1.764   6.619   0.637  0.4566  0.1144  0.3536
   67MOL   C18031992   1.690   6.582   0.521  0.3780  0.9114 -0.7738
   67MOL   C18131993   1.559   6.622   0.508  0.0981  0.3784  0.0945
   67MOL   C18231994   1.494   6.684   0.613  0.1566  0.2871  0.0681
   67MOL   C18331995   1.566   6.724   0.726  0.1280  0.1268 -0.3220
   67MOL   C18431996   1.700   6.688   0.735  0.0054 -0.2506 -0.6880
   67MOL   O18531997   1.354   6.700   0.605  0.0712 -0.8044  0.2365
   67MOL   H18631998   2.121   6.981   0.473 -1.3424  2.1772  1.0338
   67MOL   H18731999   1.973   6.783   0.467  3.0181  2.0525 -1.5200
   67MOL   H18832000   2.078   6.692   0.876  0.9844  0.1680 -0.9294
   67MOL   H18932001   2.203   6.898   0.887 -0.8152 -2.6265  0.2638
   67MOL   H19032002   1.736   6.531   0.437 -0.4612 -0.5485 -0.3815
   67MOL   H19132003   1.508   6.587   0.419  1.4113  0.6609 -0.7867
   67MOL   H19232004   1.517   6.773   0.809  0.1076 -1.5190  0.6603
   67MOL   H19332005   1.739   6.714   0.833  0.3562  1.4861 -1.2646
   67MOL   C19432006   1.208   6.513   0.577 -0.6610  0.0893 -0.0802
   67MOL   C19532007   1.120   6.437   0.493 -0.9389 -0.1477  0.3227
   67MOL   C19632008   1.092   6.479   0.363  0.5503  0.2606 -0.2464
   67MOL   C19732009   1.157   6.593   0.313 -0.1948 -0.1950  1.0694
   67MOL   C19832010   1.244   6.665   0.391 -0.5537 -0.2406  0.6120
   67MOL   C19932011   1.272   6.624   0.523  0.6821 -0.0047  0.0407
   67MOL   S20032012   0.990   6.386   0.250  0.1207  0.5192  0.0494
   67MOL   O20132013   0.897   6.482   0.186  0.2459  0.0426 -0.2957
   67MOL   O20232014   0.925   6.279   0.318 -0.3038  0.3363  0.0066
   67MOL   C20332015   1.100   6.325   0.130  0.1507  0.5911  0.2103
   67MOL   C20432016   1.131   6.417   0.030 -0.3779  0.1442 -0.0695
   67MOL   C20532017   1.246   6.391   8.379 -0.0324  0.5045 -0.6707
   67MOL   C20632018   1.300   6.262   8.380  0.8505 -0.7915  0.4570
   67MOL   C20732019   1.261   6.164   0.053  0.5208 -0.2583  0.1044
   67MOL   C20832020   1.168   6.200   0.144  0.2633  0.8717 -0.7182
   67MOL   O20932021   1.391   6.232   8.282  0.5838 -0.5472  0.1406
   67MOL   H21032022   1.243   6.494   0.677  1.4352  0.8907 -0.6453
   67MOL   H21132023   1.085   6.341   0.529 -0.4987  0.0790  1.3710
   67MOL   H21232024   1.146   6.631   0.213  0.7739 -1.6607  0.3771
   67MOL   H21332025   1.291   6.757   0.357 -1.1449  0.4945  1.7412
   67MOL   H21432026   1.076   6.509   0.020  0.3314  0.3227 -2.6576
   67MOL   H21532027   1.282   6.453   8.299 -1.2732  0.7224 -1.0684
   67MOL   H21632028   1.299   6.064   0.068 -0.6337 -0.5350  1.2260
   67MOL   H21732029   1.139   6.133   0.224 -0.1422  1.6468 -0.2077
   67MOL   C21832030   1.419   6.023   8.160  1.3292  0.0987 -0.4991
   67MOL   C21932031   1.387   5.936   8.053 -0.6041  0.4341  0.2875
   67MOL   C22032032   1.285   5.972   7.968  1.0107  0.1072  0.0303
   67MOL   C22132033   1.224   6.097   7.980 -0.3988 -0.1566  0.5246
   67MOL   C22232034   1.254   6.186   8.085 -0.6062  0.4970 -0.4829
   67MOL   C22332035   1.347   6.146   8.183  0.1747 -0.0535  0.6896
   67MOL   S22432036   1.252   5.871   7.821  0.2424 -0.0210 -0.0698
   67MOL   O22532037   1.380   5.820   7.774 -0.6095 -0.2099 -0.0075
   67MOL   O22632038   1.173   5.957   7.735 -0.1425 -0.4768 -0.0613
   67MOL   C22732039   1.146   5.740   7.879  0.0870  0.0245  0.1887
   67MOL   C22832040   1.133   5.618   7.803  0.3925  0.0911  0.2751
   67MOL   C22932041   1.071   5.508   7.857 -0.4568  0.2030  0.6988
   67MOL   C23032042   0.997   5.524   7.973 -0.8979 -0.2031  0.1721
   67MOL   C23132043   0.986   5.650   8.036 -0.3206  0.0068  0.5687
   67MOL   C23232044   1.071   5.757   7.999  0.3484  0.0720  0.5596
   67MOL   O23332045   0.922   5.423   8.030 -0.8728  0.0319  0.1765
   67MOL   H23432046   1.502   5.994   8.223  0.8844 -1.8009 -0.7536
   67MOL   H23532047   1.446   5.845   8.045  1.4295  1.9391 -2.6104
   67MOL   H23632048   1.150   6.123   7.905 -0.1137 -1.8246 -0.3568
   67MOL   H23732049   1.202   6.281   8.080 -4.4132 -1.4083  1.0604
   67MOL   H23832050   1.182   5.603   7.708  0.5203 -0.2833  0.4009
   67MOL   H23932051   1.066   5.412   7.807  0.2706  1.2901 -1.4755
   67MOL   H24032052   0.921   5.670   8.120 -0.5579  1.8303 -0.0289
   67MOL   H24132053   1.068   5.857   8.041 -1.8432 -0.5892  2.0698
   67MOL   C24232054   0.967   5.206   8.127  0.1535  0.4719 -0.3891
   67MOL   C24332055   1.037   5.131   8.231 -0.3863 -0.2094 -0.0136
   67MOL   C24432056   1.106   5.199   8.332  0.7382  0.2235  0.5285
   67MOL   C24532057   1.101   5.343   8.342  0.0693 -0.4319 -0.0512
   67MOL   C24632058   1.048   5.416   8.235  0.1827 -0.1909 -0.1675
   67MOL   C24732059   0.980   5.349   8.128  0.7226 -0.0694 -0.5226
   67MOL   S24832060   1.196   5.092   0.020 -0.1962 -0.2673 -0.1386
   67MOL   O24932061   1.337   5.094   8.405  0.1352 -0.2800  0.0029
   67MOL   O25032062   1.126   4.964   0.018  0.0496  0.4653  0.0600
   67MOL   C25132063   1.175   5.156   0.179 -0.0158  0.3956  0.0086
   67MOL   C25232064   1.286   5.198   0.255 -0.9255  0.3836  0.4301
   67MOL   C25332065   1.266   5.273   0.373 -0.7234 -0.5389  0.2340
   67MOL   C25432066   1.131   5.298   0.418 -0.1115  0.5324 -0.9096
   67MOL   C25532067   1.024   5.262   0.340 -0.5018  0.5600 -0.4148
   67MOL   C25632068   1.045   5.189   0.220 -0.7236  0.1418 -0.3074
   67MOL   O25732069   1.103   5.363   0.539  0.2667 -0.3761  0.7021
   67MOL   H25832070   0.918   5.154   8.046 -0.0655  0.5549 -0.3088
   67MOL   H25932071   1.042   5.024   8.231  2.0697 -0.1268 -1.0160
   67MOL   H26032072   1.154   5.390   8.423 -0.7694  1.1972 -0.4276
   67MOL   H26132073   1.049   5.523   8.249 -0.0037 -0.4585  2.0057
   67MOL   H26232074   1.384   5.175   0.217 -0.2067  0.0585  2.4062
   67MOL   H26332075   1.343   5.319   0.432  0.6937 -3.1314  0.4870
   67MOL   H26432076   0.921   5.286   0.360 -1.3585 -1.4954 -2.0735
   67MOL   H26532077   0.961   5.175   0.153 -0.7295  1.9113 -0.7094
   67MOL   C26632078   1.120   5.593   0.456 -0.4138 -0.0210  0.4721
   67MOL   C26732079   1.162   5.724   0.487 -0.5881 -0.4165 -0.0785
   67MOL   C26832080   1.230   5.750   0.607  0.4214 -0.2696 -0.4991
   67MOL   C26932081   1.251   5.653   0.711  0.3503  0.4607  0.4243
   67MOL   C27032082   1.211   5.521   0.678 -0.0502 -0.0171 -0.1563
   67MOL   C27132083   1.139   5.491   0.555  0.9473  0.2327 -1.4307
   67MOL   S27232084   1.275   5.921   0.644  0.0318 -0.1225 -0.1667
   67MOL   O27332085   1.316   5.979   0.519  0.2226 -0.2679  0.5056
   67MOL   O27432086   1.361   5.921   0.760  0.0201  0.5997  0.2530
   67MOL   C27532087   1.112   5.990   0.688 -0.1057 -0.3425  0.1695
   67MOL   C27632088   1.069   5.946   0.816  0.4644 -0.0754  0.1179
   67MOL   C27732089   0.948   6.002   0.861  0.0453 -0.1455  0.0283
   67MOL   C27832090   0.864   6.078   0.775 -0.1796 -0.1394  0.0059
   67MOL   C27932091   0.914   6.113   0.640  0.5572  0.6739  0.3841
   67MOL   C28032092   1.037   6.067   0.602 -0.5190 -0.5551  0.2516
   67MOL   O28132093   0.734   6.102   0.817  0.6371 -0.8567  0.5372
   67MOL   H28232094   1.064   5.571   0.367 -0.3172  0.0244  0.4011
   67MOL   H28332095   1.164   5.803   0.413 -2.0586  0.9564  1.2995
   67MOL   H28432096   1.306   5.680   0.800  0.1802  1.4139  0.2453
   67MOL   H28532097   1.226   5.440   0.748 -0.5906 -0.3067 -0.3665
   67MOL   H28632098   1.115   5.874   0.883  0.2945 -0.4537 -0.1759
   67MOL   H28732099   0.913   5.973   0.959 -0.5737  0.3857 -0.0372
   67MOL   H28832100   0.853   6.169   0.571  1.5553 -0.6623 -1.6119
   67MOL   H28932101   1.065   6.089   0.500 -1.1715  2.5975  0.6936
   67MOL   C29032102   0.593   5.969   0.676  0.0171 -0.3763 -0.1510
   67MOL   C29132103   0.493   5.866   0.668  0.2180  0.2345  0.6406
   67MOL   C29232104   0.448   5.797   0.780  0.0317  1.0174 -0.0030
   67MOL   C29332105   0.494   5.835   0.910 -0.2757 -0.0952 -0.7743
   67MOL   C29432106   0.591   5.939   0.923 -0.1411  0.1640  0.1681
   67MOL   C29532107   0.640   6.006   0.809  0.4136 -0.6821  0.1629
   67MOL   S29632108   0.330   5.664   0.760 -0.3739 -0.1313  0.3021
   67MOL   O29732109   0.286   5.621   0.895 -0.2133 -0.0179  0.0258
   67MOL   O29832110   0.395   5.564   0.674 -0.0939  0.3442  0.5882
   67MOL   C29932111   0.192   5.743   0.670  0.1577 -0.3685 -0.3731
   67MOL   C30032112   0.131   5.684   0.557 -0.1248 -0.3684 -0.4403
   67MOL   C30132113   0.017   5.755   0.508 -0.8654  0.5903  0.5076
   67MOL   C30232114   8.377   5.860   0.577  0.2686  0.6686  0.2683
   67MOL   C30332115   0.007   5.904   0.692 -0.6483 -0.2818 -0.0734
   67MOL   C30432116   0.127   5.848   0.745 -0.4054  0.2478  0.0857
   67MOL   O30532117   8.266   5.917   0.526  1.0106 -0.0675 -0.1435
   67MOL   H30632118   0.623   6.018   0.584 -2.0717  1.6905  0.2232
   67MOL   H30732119   0.455   5.839   0.571  2.1345 -2.6209  0.6182
   67MOL   H30832120   0.467   5.785   1.002  0.5072  2.1165  0.6950
   67MOL   H30932121   0.640   5.952   1.018 -1.0706  0.5494  0.5997
   67MOL   H31032122   0.180   5.600   0.508  2.0866  0.0275  1.0125
   67MOL   H31132123   8.394   5.716   0.419 -0.5733 -0.3898  0.7722
   67MOL   H31232124   8.389   5.990   0.743  1.1463 -0.2074  1.3831
   67MOL   H31332125   0.171   5.870   0.841  1.8178 -1.1324 -0.5625
   67MOL   C31432126   8.295   5.974   0.301  0.0225  0.4662 -0.4156
   67MOL   C31532127   8.304   6.070   0.200 -0.1833  1.3085 -0.1265
   67MOL   C31632128   8.291   6.203   0.239 -1.0777 -0.1945  0.0589
   67MOL   C31732129   8.258   6.242   0.373 -0.0368 -0.1805 -0.1925
   67MOL   C31832130   8.248   6.143   0.470  0.1937  0.2114 -0.2466
   67MOL   C31932131   8.277   6.012   0.435  0.0936  0.7538  0.4971
   67MOL   S32032132   8.302   6.323   0.099  0.1842  0.2835  0.2100
   67MOL   O32132133   8.234   6.444   0.150 -0.2205 -0.8408 -0.1939
   67MOL   O32232134   8.243   6.266   8.403 -0.5602 -0.3621  0.1271
   67MOL   C32332135   0.051   6.357   0.073  0.6893 -0.6707  0.0758
   67MOL   C32432136   0.128   6.426   0.173 -0.2579 -0.3136  0.3496
   67MOL   C32532137   0.265   6.442   0.143 -0.1803  0.0878  0.5973
   67MOL   C32632138   0.321   6.395   0.022  0.1043 -0.5560 -0.2523
   67MOL   C32732139   0.239   6.318   8.360 -0.4305 -0.4018  0.4938
   67MOL   C32832140   0.108   6.303   8.382 -0.2092 -0.2260 -0.2593
   67MOL   O32932141   0.449   6.437   8.406  0.4207  0.0642  0.3104
   67MOL   H33032142   8.314   5.870   0.281 -1.0465  0.2808 -0.5292
   67MOL   H33132143   8.323   6.051   0.096  0.5080  2.3973 -0.2029
   67MOL   H33232144   8.246   6.343   0.409  0.9487 -0.7217  1.7125
   67MOL   H33332145   8.206   6.173   0.565  0.6622 -0.3416  0.1322
   67MOL   H33432146   0.084   6.459   0.265  0.4271 -0.5998  0.7804
   67MOL   H33532147   0.330   6.497   0.209  0.3569 -0.7335  0.7579
   67MOL   H33632148   0.292   6.275   8.276  0.3494  2.0214 -0.3013
   67MOL   H33732149   0.039   6.259   8.312  1.0989 -1.7226 -0.6231
   67MOL   C33832150   0.559   6.623   0.079  0.5169 -0.3390  0.5189
   67MOL   C33932151   0.600   6.762   0.069 -0.7596 -0.1135  0.3413
   67MOL   C34032152   0.544   6.837   8.393 -0.2753  0.4699  0.0164
   67MOL   C34132153   0.469   6.780   8.293 -0.1262 -0.0332  0.1217
   67MOL   C34232154   0.424   6.647   8.302 -0.1661  0.1201  0.5417
   67MOL   C34332155   0.478   6.571   8.404  1.3452 -0.8542 -0.2206
   67MOL   S34432156   0.591   7.008   8.386  0.0311  0.1073  0.0193
   67MOL   O34532157   0.588   7.069   0.097 -0.7228  0.0455 -0.2367
   67MOL   O34632158   0.511   7.078   8.285 -0.0238  0.2948 -0.0210
   67MOL   C34732159   0.755   6.999   8.322 -0.7358  0.2879 -0.0721
   67MOL   C34832160   0.781   6.932   8.203  0.4639 -1.0387  0.2595
   67MOL   C34932161   0.917   6.936   8.150 -0.6105  0.1380 -0.0613
   67MOL   C35032162   1.024   6.994   8.216  0.2487 -0.6391 -0.0142
   67MOL   C35132163   0.998   7.054   8.347  0.2368  0.1516 -0.3320
   67MOL   C35232164   0.864   7.058   8.399 -0.1744  0.8366  0.3065
   67MOL   O35332165   1.151   6.991   8.167  0.1672 -0.1151  0.1294
   67MOL   H35432166   0.599   6.556   0.154 -1.0502 -3.1572 -1.0675
   67MOL   H35532167   0.669   6.808   0.138  0.4845 -0.5001 -0.6238
   67MOL   H35632168   0.429   6.848   8.219 -3.5041 -0.6281  1.2779
   67MOL   H35732169   0.356   6.600   8.232 -0.9602  0.5001  1.0418
   67MOL   H35832170   0.700   6.897   8.140  0.5845  0.8729 -0.9723
   67MOL   H35932171   0.935   6.904   8.048  1.7457 -0.7760  0.6081
   67MOL   H36032172   1.082   7.072   8.413  0.6157  0.7918 -0.9728
   67MOL   H36132173   0.834   7.097   0.070  0.9799 -0.5670  1.2586
   67MOL   C36232174   1.343   7.032   8.311 -0.2278  0.2183 -0.4409
   67MOL   C36332175   1.432   6.981   8.406 -0.3613  0.0609  0.0511
   67MOL   C36432176   1.440   6.842   8.422 -0.0517  0.3020 -0.3187
   67MOL   C36532177   1.356   6.750   8.362  0.2123 -0.3510 -0.4001
   67MOL   C36632178   1.269   6.804   8.268  0.0226 -0.6039 -0.1523
   67MOL   C36732179   1.257   6.942   8.241  0.1441 -0.7065  0.2280
   67MOL   S36832180   1.568   6.774   0.106 -0.9717  0.3490 -0.1603
   67MOL   O36932181   1.688   6.732   0.032  0.0648 -0.0258  0.6133
   67MOL   O37032182   1.503   6.678   0.192  0.1465 -0.3930  0.6845
   67MOL   C37132183   1.622   6.903   0.224  0.6403 -0.3368 -0.1082
   67MOL   C37232184   1.761   6.933   0.245  0.0752  0.0170  0.3690
   67MOL   C37332185   1.800   7.035   0.340 -0.1821  0.4959  0.0058
   67MOL   C37432186   1.701   7.099   0.421 -0.1122  0.6742  0.4594
   67MOL   C37532187   1.565   7.061   0.402  0.3506 -0.6159  0.1024
   67MOL   C37632188   1.528   6.970   0.306 -0.0923  0.1471  0.3306
   67MOL   O37732189   1.752   7.181   0.519  0.0501  0.8236 -0.7687
   67MOL   H37832190   1.336   7.138   8.292 -0.5182  0.5157  1.2510
   67MOL   H37932191   1.486   7.059   0.033  0.6744 -1.9815  2.1322
   67MOL   H38032192   1.357   6.644   8.383 -2.0308 -0.7635 -2.1525
   67MOL   H38132193   1.213   6.733   8.210 -3.5942  0.1598  2.2896
   67MOL   H38232194   1.839   6.890   0.186 -0.0467  0.6742 -0.2783
   67MOL   H38332195   1.904   7.058   0.357 -0.1453 -0.5033  1.1993
   67MOL   H38432196   1.491   7.106   0.467 -0.8078 -1.0672 -0.8879
   67MOL   H38532197   1.425   6.949   0.283  0.0392  1.5845 -1.7032
   67MOL   C38632198   1.673   7.401   0.570  0.9488  0.6464  0.3904
   67MOL   C38732199   1.663   7.542   0.547  0.3134 -0.4713 -0.2398
   67MOL   C38832200   1.741   7.584   0.434  0.4244 -0.2558  0.1754
   67MOL   C38932201   1.807   7.497   0.349 -0.4355  0.0708  0.0907
   67MOL   C39032202   1.815   7.364   0.383 -0.5200  0.0024  0.2599
   67MOL   C39132203   1.741   7.313   0.487  0.2515 -0.0448  0.1082
   67MOL   S39232204   1.739   7.762   0.403 -0.0799 -0.1620 -0.2071
   67MOL   O39332205   1.693   7.830   0.523  0.0919  0.5904  0.1027
   67MOL   O39432206   1.677   7.789   0.270 -0.4313  0.5986 -0.1571
   67MOL   C39532207   1.911   7.810   0.392  0.4048 -0.3377  0.0203
   67MOL   C39632208   2.008   7.758   0.483  0.0213 -0.4053  0.6508
   67MOL   C39732209   2.143   7.796   0.472 -0.3600  0.5195  0.6777
   67MOL   C39832210   2.188   7.899   0.385  0.0491  0.3485  0.4553
   67MOL   C39932211   2.088   7.947   0.298 -0.2359  0.1079 -0.2420
   67MOL   C40032212   1.958   7.896   0.295 -0.1251 -0.8054 -0.6197
   67MOL   O40132213   2.313   7.949   0.393 -0.3627  0.2144  0.0080
   67MOL   H40232214   1.641   7.362   0.666  2.4117 -0.4065  0.4731
   67MOL   H40332215   1.607   7.608   0.611 -1.0329 -2.8385  1.0729
   67MOL   H40432216   1.881   7.536   0.280  0.7845 -1.5855  0.4317
   67MOL   H40532217   1.881   7.302   0.323 -1.1499 -0.7857  0.3780
   67MOL   H40632218   1.974   7.695   0.564 -1.1106  0.5856  0.9691
   67MOL   H40732219   2.222   7.769   0.541  0.2532  0.3458 -0.0778
   67MOL   H40832220   2.117   8.016   0.220  0.7452  0.1876  0.1874
   67MOL   H40932221   1.893   7.923   0.213  0.1972 -0.3215 -0.7200
   67MOL   C41032222   2.377   8.114   0.235  0.0670 -0.2320 -0.2595
   67MOL   C41132223   2.401   8.248   0.195 -0.1017 -0.0044 -0.4299
   67MOL   C41232224   2.409   8.344   0.298 -0.0787 -0.4865  0.4949
   67MOL   C41332225   2.387   8.314   0.431 -0.1285 -0.3814  0.5450
   67MOL   C41432226   2.343   8.185   0.463 -0.1176 -0.9251  0.2076
   67MOL   C41532227   2.336   8.089   0.365 -0.4566  0.3351 -0.0716
   67MOL   S41632228   2.447   0.089   0.254 -0.1025 -0.1563 -0.4928
   67MOL   O41732229   2.503   0.104   0.119  0.0143 -0.7140  0.0454
   67MOL   O41832230   2.512   0.144   0.376 -0.1530  0.0702 -0.1642
   67MOL   C41932231   2.286   0.149   0.246 -0.0199  0.0422 -0.0312
   67MOL   C42032232   2.226   0.183   0.121 -0.2598 -0.1711 -0.1141
   67MOL   C42132233   2.084   0.219   0.118 -0.4784 -0.0824  0.1739
   67MOL   C42232234   2.013   0.215   0.245  0.4241  0.1600  0.7390
   67MOL   C42332235   2.074   0.174   0.362  0.3273 -0.4739  0.1147
   67MOL   C42432236   2.210   0.144   0.360  0.3398 -0.3787  0.1700
   67MOL   O42532237   1.881   0.259   0.250  0.6142 -0.1418  0.1299
   67MOL   H42632238   2.378   8.044   0.154  1.4502 -0.9206  0.3370
   67MOL   H42732239   2.406   8.274   0.090  0.2774  0.8926 -0.1891
   67MOL   H42832240   2.404   8.396   0.500  0.5262  1.6240 -1.9356
   67MOL   H42932241   2.324   8.148   0.562  1.2074  1.6514  1.4644
   67MOL   H43032242   2.285   0.173   0.031 -0.9613 -2.0290 -0.3892
   67MOL   H43132243   2.031   0.230   0.025 -1.4864 -1.1844  0.6009
   67MOL   H43232244   2.024   0.180   0.458  1.0210  3.7360  0.3146
   67MOL   H43332245   2.268   0.126   0.449  0.5701 -1.8626 -0.2697
   67MOL   C43432246   1.752   0.189   0.064  0.2518  0.5188  0.0856
   67MOL   C43532247   1.639   0.125   0.005 -0.7289 -0.2892 -0.0579
   67MOL   C43632248   1.559   0.046   0.083  0.5313  0.0911 -0.1869
   67MOL   C43732249   1.587   0.034   0.219  0.8293  0.4997  0.3591
   67MOL   C43832250   1.698   0.093   0.277  0.3064 -0.6635 -0.0577
   67MOL   C43932251   1.788   0.172   0.200  0.6824 -0.3407  0.1427
   67MOL   S44032252   1.411   8.400   0.017 -0.2748  0.1519 -0.0517
   67MOL   O44132253   1.334   0.082   8.378  0.1411  0.1229  0.0676
   67MOL   O44232254   1.350   8.309   0.115  0.3170 -0.5012  0.1637
   67MOL   C44332255   1.478   8.292   8.315  0.5376 -0.1517  1.1139
   67MOL   C44432256   1.526   8.350   8.198  0.1142  0.2035  0.1215
   67MOL   C44532257   1.594   8.274   8.101  0.6631 -0.0183  0.2055
   67MOL   C44632258   1.592   8.129   8.118 -0.2413 -0.1286 -0.4605
   67MOL   C44732259   1.536   8.063   8.232  0.3746  1.0228 -1.4594
   67MOL   C44832260   1.478   8.151   8.331 -0.4640  0.1255  0.7695
   67MOL   O44932261   1.625   8.053   8.009 -0.2129 -0.8168  0.3785
   67MOL   H45032262   1.811   0.256   0.004  0.7249 -0.2827 -0.3447
   67MOL   H45132263   1.617   0.141   8.325 -1.7801 -1.0759  0.0378
   67MOL   H45232264   1.510   8.423   0.287  0.5664  0.4482  0.0354
   67MOL   H45332265   1.710   0.073   0.383  1.3626 -1.1444 -0.2540
   67MOL   H45432266   1.511   0.031   8.187 -0.4077  0.3721  2.2525
   67MOL   H45532267   1.634   8.325   8.015  1.9465 -1.8968 -0.3375
   67MOL   H45632268   1.538   7.956   8.240  0.9223  0.8822 -3.1379
   67MOL   H45732269   1.433   8.124   0.000 -1.9138  0.8975  0.3154
   67MOL   C45832270   1.417   8.008   7.903  0.1558 -0.0862 -0.7977
   67MOL   C45932271   1.339   7.933   7.812  0.2750 -0.2489 -0.6348
   67MOL   C46032272   1.392   7.808   7.771 -0.0580 -0.0586  0.2121
   67MOL   C46132273   1.513   7.757   7.823  0.1441 -0.0341  0.1576
   67MOL   C46232274   1.587   7.834   7.917  0.0467  0.7109 -0.6396
   67MOL   C46332275   1.542   7.967   7.942 -0.6860  0.3246  0.7145
   67MOL   S46432276   1.301   7.715   7.648  0.2656 -0.3492 -0.2343
   67MOL   O46532277   1.405   7.685   7.547  0.0986 -0.5194 -0.1375
   67MOL   O46632278   1.173   7.781   7.618 -1.0197  0.6753  0.3640
   67MOL   C46732279   1.252   7.562   7.742 -0.5095  0.3172  0.1588
   67MOL   C46832280   1.189   7.572   7.868  0.0339 -0.0833 -0.5738
   67MOL   C46932281   1.157   7.459   7.940  0.2947  0.3668 -0.2414
   67MOL   C47032282   1.197   7.329   7.890  0.3746 -0.4840 -0.3786
   67MOL   C47132283   1.272   7.319   7.768 -0.1489 -0.3340 -0.5222
   67MOL   C47232284   1.296   7.435   7.697 -0.3280 -0.6792  0.2394
   67MOL   O47332285   1.163   7.218   7.957 -0.3057  0.0427 -0.3022
   67MOL   H47432286   1.383   8.108   7.926  1.3246  0.6353 -2.1012
   67MOL   H47532287   1.245   7.966   7.771  0.5372  1.7729  0.3821
   67MOL   H47632288   1.558   7.663   7.795  1.4193 -0.5438  3.6678
   67MOL   H47732289   1.680   7.793   7.954 -0.6922  0.8465  1.4115
   67MOL   H47832290   1.158   7.671   7.897  0.4247  1.2219 -4.2400
   67MOL   H47932291   1.108   7.479   8.034  0.5702  1.0753 -0.2437
   67MOL   H48032292   1.312   7.222   7.741  0.1654 -0.5026  0.5272
   67MOL   H48132293   1.349   7.430   7.603 -0.8378  2.0931 -0.2471
   67MOL   H48232294   1.150   7.231   8.049  0.1172 -0.1179 -0.2237
   68MOL     C132295   7.459   5.983   5.911  0.6900 -0.0842  0.1613
   68MOL     C232296   7.329   6.041   5.913  0.2326  1.0288 -0.4244
   68MOL     C332297   7.291   6.129   6.011  0.2771 -0.1516 -0.2770
   68MOL     C432298   7.380   6.173   6.107 -0.7189 -0.7010 -1.0735
   68MOL     C532299   7.508   6.127   6.110 -0.5078 -0.4725 -0.1563
   68MOL     C632300   7.549   6.033   6.012  0.0374 -0.3567 -0.1923
   68MOL     S732301   7.128   6.201   5.995 -0.1730 -0.1054  0.1114
   68MOL     O832302   7.105   6.219   5.850 -0.6000  0.2810 -0.1628
   68MOL     O932303   7.108   6.309   6.092 -0.0963 -0.2131 -0.1352
   68MOL    C1032304   7.022   6.067   6.039  0.4516  0.0204  0.0389
   68MOL    C1132305   7.071   5.937   6.067  0.2795 -0.3050  0.2334
   68MOL    C1232306   6.987   5.836   6.117  0.2010 -0.1546 -1.0627
   68MOL    C1332307   6.851   5.870   6.150  0.0416 -0.7165  0.3276
   68MOL    C1432308   6.808   6.003   6.130  0.5132 -0.0126 -0.0265
   68MOL    C1532309   6.886   6.101   6.063  0.3011  0.5629  0.2416
   68MOL    O1632310   6.763   5.778   6.190  0.1396 -0.5787 -0.3650
   68MOL    H1732311   7.493   5.911   5.838  0.8251  0.7867 -0.6335
   68MOL    H1832312   7.257   6.018   5.836  0.6676  2.3747 -1.2596
   68MOL    H1932313   7.345   6.240   6.185  0.2283 -0.4092 -0.8944
   68MOL    H2032314   7.577   6.156   6.188  0.3371 -0.9284 -0.7342
   68MOL    H2132315   7.173   5.905   6.052 -1.0007 -5.4165  1.2926
   68MOL    H2232316   7.037   5.742   6.133  2.8741  1.2895 -0.5713
   68MOL    H2332317   6.707   6.017   6.165  0.6994 -2.0206  1.4672
   68MOL    H2432318   6.854   6.202   6.043  0.3386  0.6650  0.6948
   68MOL    H2532319   7.651   5.999   6.009  0.4640  0.9630 -1.4816
   68MOL    C2632320   6.609   5.844   6.368  0.2682  0.6657 -1.0449
   68MOL    C2732321   6.570   5.832   6.503 -0.5720 -0.0176  0.1909
   68MOL    C2832322   6.646   5.744   6.582  0.2511  0.2122  0.7551
   68MOL    C2932323   6.752   5.672   6.539  0.2121  1.1032 -0.0471
   68MOL    C3032324   6.801   5.686   6.407  1.1959  0.8068 -0.4679
   68MOL    C3132325   6.725   5.774   6.321  0.1363 -0.2012 -0.1431
   68MOL    S3232326   6.594   5.724   6.754  0.4318 -0.0512 -0.7622
   68MOL    O3332327   6.655   5.600   6.803  0.0908  0.3748  0.0252
   68MOL    O3432328   6.446   5.736   6.765 -0.0432  0.4448  0.2185
   68MOL    C3532329   6.670   5.859   6.843  0.2157 -0.3800 -1.1260
   68MOL    C3632330   6.758   5.944   6.776  0.0329 -0.6564 -0.8280
   68MOL    C3732331   6.829   6.037   6.852 -0.5886  0.0292 -1.1758
   68MOL    C3832332   6.809   6.045   6.992 -0.7722  0.3255 -0.2001
   68MOL    C3932333   6.728   5.956   7.058  0.0635 -0.4037 -0.8644
   68MOL    C4032334   6.657   5.862   6.983  0.2236 -0.1937 -0.1536
   68MOL    O4132335   6.878   6.129   7.071 -0.0693  0.4565 -0.2310
   68MOL    H4232336   6.577   5.914   6.293 -1.0801 -0.9997 -2.0608
   68MOL    H4332337   6.493   5.897   6.541  0.3701  3.1079 -3.0049
   68MOL    H4432338   6.799   5.594   6.598 -0.5528 -0.8755 -1.9833
   68MOL    H4532339   6.883   5.634   6.359  2.7801  1.6309  1.2651
   68MOL    H4632340   6.778   5.938   6.670 -2.5841 -2.2683 -1.2844
   68MOL    H4732341   6.897   6.106   6.803  1.9331 -1.4669  0.1383
   68MOL    H4832342   6.727   5.950   7.166 -0.3366 -1.2122 -0.9024
   68MOL    H4932343   6.593   5.792   7.035 -1.7295  2.3535  0.9646
   68MOL    C5032344   6.776   6.234   7.257 -0.1941 -0.0127  0.1976
   68MOL    C5132345   6.710   6.344   7.313 -0.2364  0.7406 -0.2471
   68MOL    C5232346   6.669   6.447   7.225  0.2395 -0.0563 -0.0994
   68MOL    C5332347   6.695   6.446   7.088 -0.2688 -0.0425 -0.4212
   68MOL    C5432348   6.770   6.341   7.036 -0.4080  0.1841 -0.1551
   68MOL    C5532349   6.809   6.233   7.121 -0.7709  0.1519  0.1956
   68MOL    S5632350   6.589   6.592   7.297 -0.7663 -0.2658 -0.0393
   68MOL    O5732351   6.525   6.548   7.424  0.2531  0.2508  0.0557
   68MOL    O5832352   6.500   6.647   7.192  0.0046  0.3232 -0.4134
   68MOL    C5932353   6.716   6.706   7.335 -0.6250 -0.4641 -0.4189
   68MOL    C6032354   6.833   6.664   7.402  0.3123 -0.4126  0.3118
   68MOL    C6132355   6.939   6.754   7.427  0.2912 -0.4521 -0.3667
   68MOL    C6232356   6.925   6.887   7.379  0.2526 -0.3259  0.2259
   68MOL    C6332357   6.802   6.935   7.317  0.0027  0.1430  0.0883
   68MOL    C6432358   6.696   6.843   7.298 -0.0209  0.1680  0.3061
   68MOL    O6532359   7.037   6.970   7.397  0.3843 -0.1752  0.4411
   68MOL    H6632360   6.818   6.162   7.325 -2.7138 -1.2500  0.5048
   68MOL    H6732361   6.693   6.362   7.418  0.3895 -2.7451  0.5331
   68MOL    H6832362   6.664   6.531   7.030 -2.3245 -0.7620 -0.3892
   68MOL    H6932363   6.806   6.344   6.935 -0.6028 -0.6159 -0.2504
   68MOL    H7032364   6.844   6.558   7.424  2.2830 -0.3543 -0.3025
   68MOL    H7132365   7.030   6.716   7.472  0.5363 -2.7327 -2.6549
   68MOL    H7232366   6.789   7.037   7.286 -1.6963  0.0334  0.4349
   68MOL    H7332367   6.615   6.875   7.235  0.3673  0.8653  0.1581
   68MOL    C7432368   7.177   6.995   7.591  0.3876  0.8886  0.1083
   68MOL    C7532369   7.215   7.063   7.713  0.3689 -0.3982  0.2532
   68MOL    C7632370   7.133   7.163   7.760 -0.1442  0.0620  0.4052
   68MOL    C7732371   7.010   7.196   7.693  0.7344  0.4257 -0.0728
   68MOL    C7832372   6.978   7.136   7.572  0.7548  0.0974  0.2098
   68MOL    C7932373   7.061   7.028   7.520  0.1093 -0.0350  0.6998
   68MOL    S8032374   7.184   7.260   7.897 -0.1972  0.0301  0.5360
   68MOL    O8132375   7.067   7.315   7.965  0.0293 -0.0606 -0.3110
   68MOL    O8232376   7.291   7.349   7.848 -0.5495  0.3628  0.0277
   68MOL    C8332377   7.252   7.140   8.019 -0.6834 -0.0043  0.6130
   68MOL    C8432378   7.196   7.011   8.031 -0.5668 -0.3918 -0.0998
   68MOL    C8532379   7.238   6.919   8.126 -0.5063  0.1365  0.4224
   68MOL    C8632380   7.340   6.950   8.218  0.1874 -0.0701 -0.7674
   68MOL    C8732381   7.393   7.082   8.211  0.5056  0.4192  0.3467
   68MOL    C8832382   7.341   7.176   8.118  0.3019  0.7969  0.0847
   68MOL    O8932383   7.377   6.843   8.305 -0.1025 -0.0323  0.2655
   68MOL    H9032384   7.243   6.924   7.542  0.5380  1.8790 -1.1383
   68MOL    H9132385   7.301   7.035   7.771  1.7241  0.5029 -1.2630
   68MOL    H9232386   6.949   7.280   7.722  1.0645  1.2558 -1.7071
   68MOL    H9332387   6.889   7.166   7.518 -0.0007  0.4394  1.6087
   68MOL    H9432388   7.112   6.985   7.968 -0.7811 -0.1257  0.0783
   68MOL    H9532389   7.191   6.823   8.141 -1.9833  0.9081  0.8447
   68MOL    H9632390   7.468   7.116   8.281 -0.8752 -0.5937  2.3637
   68MOL    H9732391   7.387   7.274   8.117  3.6708 -0.7347 -0.6379
   68MOL    C9832392   7.368   6.929   0.109 -0.0208 -0.6932 -0.8781
   68MOL    C9932393   7.428   6.981   0.219  0.4115  0.3384  0.5122
   68MOL   C10032394   7.570   6.983   0.226 -0.1438  0.3407 -0.2160
   68MOL   C10132395   7.650   6.922   0.125  0.0323 -0.5642  0.0667
   68MOL   C10232396   7.584   6.879   0.009 -0.7835 -0.5079 -0.0492
   68MOL   C10332397   7.439   6.882   8.422  0.3699  0.3774 -0.5599
   68MOL   S10432398   7.654   7.082   0.354 -0.1015 -0.3842  0.2229
   68MOL   O10532399   7.795   7.056   0.345  0.5092 -0.5742  0.1813
   68MOL   O10632400   7.595   7.066   0.491  0.4874 -0.1431  0.5590
   68MOL   C10732401   7.609   7.250   0.301 -0.5014 -0.5555 -0.8328
   68MOL   C10832402   7.490   7.310   0.356  0.5594 -0.4527 -0.6476
   68MOL   C10932403   7.440   7.433   0.306  0.5997  0.0937  0.7929
   68MOL   C11032404   7.514   7.500   0.201  1.1411 -0.0427  0.0224
   68MOL   C11132405   7.637   7.446   0.156 -0.2430 -0.3609 -0.7556
   68MOL   C11232406   7.683   7.320   0.206 -0.1927  0.0024  0.1092
   68MOL   O11332407   7.471   7.618   0.138  0.0490  0.1484 -0.8822
   68MOL   H11432408   7.260   6.929   0.097 -0.2416  3.6420  0.1204
   68MOL   H11532409   7.369   7.037   0.289 -1.5215  0.3501 -1.0955
   68MOL   H11632410   7.758   6.911   0.128  0.1225 -0.0521 -0.8370
   68MOL   H11732411   7.645   6.848   8.351  0.8615 -0.0460  0.9612
   68MOL   H11832412   7.426   7.263   0.429  0.7695  0.3450  0.0639
   68MOL   H11932413   7.344   7.459   0.349 -0.1476  0.9161 -1.3291
   68MOL   H12032414   7.701   7.504   0.092 -2.6307  0.1951 -2.7084
   68MOL   H12132415   7.774   7.265   0.187 -1.1859 -1.4972 -0.3354
   68MOL   C12232416   7.337   7.531   8.376 -0.8000 -0.2087 -0.4742
   68MOL   C12332417   7.227   7.548   8.291 -0.8886 -0.3934 -0.1407
   68MOL   C12432418   7.127   7.641   8.325 -0.1520 -0.3274  0.3968
   68MOL   C12532419   7.127   7.713   0.023 -0.0222 -0.0799 -0.1508
   68MOL   C12632420   7.243   7.704   0.100  0.2762  0.2036 -0.5482
   68MOL   C12732421   7.350   7.618   0.063 -0.0101  0.2974 -0.3161
   68MOL   S12832422   6.981   7.664   8.219  0.4793  0.2347  0.0539
   68MOL   O12932423   6.925   7.798   8.248 -0.7979 -0.2616  0.2202
   68MOL   O13032424   6.901   7.540   8.241 -0.3401 -0.0643 -0.2094
   68MOL   C13132425   7.027   7.678   8.046  0.1540 -0.3794  0.4366
   68MOL   C13232426   7.108   7.786   8.013 -0.3246 -0.4424  0.2942
   68MOL   C13332427   7.142   7.797   7.877  0.4925  0.2010 -0.2647
   68MOL   C13432428   7.094   7.704   7.780  0.1971  0.8620  0.1423
   68MOL   C13532429   7.009   7.602   7.821  0.4706 -0.4664 -0.2912
   68MOL   C13632430   6.967   7.588   7.951 -0.1125  0.0731 -0.2565
   68MOL   O13732431   7.133   7.727   7.646  0.3714  0.2507 -0.2370
   68MOL   H13832432   7.420   7.464   8.357 -2.2142 -1.6896 -1.5382
   68MOL   H13932433   7.219   7.483   8.205 -0.1135  1.1217 -1.3748
   68MOL   H14032434   7.038   7.767   0.051 -0.1821 -0.4515  0.0659
   68MOL   H14132435   7.249   7.753   0.196 -1.9851 -0.8956  0.2086
   68MOL   H14232436   7.156   7.852   8.083 -0.3056  1.0722 -1.1177
   68MOL   H14332437   7.214   7.873   7.851  0.9232  0.4924  1.7321
   68MOL   H14432438   6.966   7.520   7.765 -0.1148 -1.9993  2.3582
   68MOL   H14532439   6.902   7.506   7.979 -2.0836  1.4506 -0.6318
   68MOL   C14632440   7.196   7.523   7.523 -0.0123  0.0783 -0.2184
   68MOL   C14732441   7.176   7.435   7.418 -0.2531 -0.3394 -0.7696
   68MOL   C14832442   7.059   7.439   7.343  0.8382  0.4061  1.0822
   68MOL   C14932443   6.959   7.532   7.378 -0.0018 -1.4100  0.6044
   68MOL   C15032444   6.980   7.629   7.483  0.3468  0.3128 -0.1092
   68MOL   C15132445   7.104   7.625   7.552 -0.1519 -0.0327  0.2095
   68MOL   S15232446   7.029   7.304   7.234  0.2261 -0.1149  0.4703
   68MOL   O15332447   6.891   7.256   7.248  0.2544  0.0461  0.3690
   68MOL   O15432448   7.137   7.203   7.249  0.1378  0.3714  0.0587
   68MOL   C15532449   7.042   7.363   7.067 -0.1756 -1.0466 -0.8058
   68MOL   C15632450   7.163   7.422   7.023  0.0839  0.2658 -0.3540
   68MOL   C15732451   7.165   7.493   6.899 -0.5663  0.2553 -0.1504
   68MOL   C15832452   7.055   7.486   6.812 -0.7597  0.1821  0.0485
   68MOL   C15932453   6.942   7.418   6.851  0.4258 -0.3945 -0.0958
   68MOL   C16032454   6.933   7.365   6.978 -0.3104  0.1057  0.5302
   68MOL   O16132455   7.066   7.550   6.693  0.3226 -0.2590 -0.2805
   68MOL   H16232456   7.291   7.510   7.573 -1.1727 -1.3590  1.6530
   68MOL   H16332457   7.243   7.352   7.398  1.3063  0.3065  1.5238
   68MOL   H16432458   6.867   7.541   7.322  0.4716 -1.7029 -0.2272
   68MOL   H16532459   6.914   7.711   7.511 -1.6824 -1.4978  0.5334
   68MOL   H16632460   7.251   7.423   7.086  0.1675 -3.2023 -0.3209
   68MOL   H16732461   7.259   7.534   6.866 -0.4433 -0.1986 -0.3696
   68MOL   H16832462   6.855   7.418   6.786  0.4146 -2.0002 -0.1166
   68MOL   H16932463   6.838   7.322   7.008  0.2483 -1.5790 -0.0229
   68MOL   C17032464   6.936   7.738   6.772  0.5519 -0.4370 -0.1394
   68MOL   C17132465   6.879   7.865   6.740  0.2526  0.7150 -0.0276
   68MOL   C17232466   6.900   7.920   6.614  0.4887 -0.8459 -0.1638
   68MOL   C17332467   6.970   7.843   6.513 -0.2694 -0.3187  0.3834
   68MOL   C17432468   7.015   7.716   6.546  0.3156 -0.5433  0.1259
   68MOL   C17532469   7.003   7.666   6.673 -0.2863 -0.0228 -0.5550
   68MOL   S17632470   6.837   8.079   6.563 -0.2900 -0.2132 -0.3577
   68MOL   O17732471   6.698   8.065   6.512 -0.0126 -0.1908 -0.1924
   68MOL   O17832472   6.943   8.137   6.479  0.1359  0.4486  0.0258
   68MOL   C17932473   6.824   8.185   6.710  0.4090 -0.2164  0.1179
   68MOL   C18032474   6.736   8.161   6.814 -0.0336 -0.4959 -0.3011
   68MOL   C18132475   6.740   8.235   6.929 -0.2122  0.2527  0.0168
   68MOL   C18232476   6.824   8.348   6.944 -0.0611 -0.4185  0.2959
   68MOL   C18332477   6.905   8.380   6.836 -0.0550  1.0553 -0.6745
   68MOL   C18432478   6.906   8.295   6.719 -0.6919 -0.7252  0.7146
   68MOL   O18532479   6.837   8.424   7.062 -0.6104 -0.2086  0.1300
   68MOL   H18632480   6.928   7.702   6.873  0.0322 -1.9885 -0.7201
   68MOL   H18732481   6.833   7.920   6.821  4.1544  3.0639  0.7176
   68MOL   H18832482   6.985   7.879   6.413 -0.6179  1.2582  0.8750
   68MOL   H18932483   7.056   7.664   6.461 -0.4701 -1.0188  0.0240
   68MOL   H19032484   6.664   8.082   6.800 -0.1437 -0.2087 -1.4391
   68MOL   H19132485   6.684   8.199   7.015  0.8111  3.3975  2.1018
   68MOL   H19232486   6.979   0.032   6.849 -0.3687  0.7627  3.6588
   68MOL   H19332487   6.983   8.316   6.646 -0.3325 -1.9714  0.7213
   68MOL   C19432488   6.668   0.161   7.089  0.2670 -0.4383  0.3367
   68MOL   C19532489   6.553   0.202   7.149 -0.0937  0.4536  0.3204
   68MOL   C19632490   6.503   0.128   7.258  0.3304 -0.3767  0.2792
   68MOL   C19732491   6.560   0.016   7.305  0.2138  0.3392  0.0778
   68MOL   C19832492   6.672   8.391   7.237 -0.7942  0.2436  0.1441
   68MOL   C19932493   6.727   0.040   7.130  0.1540  0.7591  0.0314
   68MOL   S20032494   6.367   0.191   7.357 -0.3126  0.1512 -0.3519
   68MOL   O20132495   6.379   0.339   7.371  0.0570 -0.6505  0.8540
   68MOL   O20232496   6.380   0.105   7.478  0.5555  0.4958 -0.2127
   68MOL   C20332497   6.214   0.158   7.280  0.1619  0.0875 -0.0876
   68MOL   C20432498   6.198   0.146   7.138  0.4824  0.4370  0.4767
   68MOL   C20532499   6.074   0.127   7.083 -0.1391 -0.1567 -0.3999
   68MOL   C20632500   5.960   0.111   7.165 -0.0189 -0.4523 -0.3260
   68MOL   C20732501   5.972   0.116   7.303 -0.4616 -0.0174  0.3189
   68MOL   C20832502   6.096   0.144   7.361  0.3834 -0.7093 -0.0577
   68MOL   O20932503   5.842   0.089   7.109 -0.4937 -0.3691  0.8598
   68MOL   H21032504   6.718   0.213   7.009  1.3892 -1.0258  0.6520
   68MOL   H21132505   6.500   0.295   7.131  0.4626  0.5658 -0.8040
   68MOL   H21232506   6.528   8.390   7.395 -1.6632  0.1043 -0.7183
   68MOL   H21332507   6.722   8.298   7.262  2.4836  1.7874 -0.3990
   68MOL   H21432508   6.285   0.171   7.079 -0.0903  1.6417  0.1299
   68MOL   H21532509   6.065   0.125   6.975  0.7709 -1.8719 -0.4568
   68MOL   H21632510   5.873   0.105   7.345 -0.9577  0.3282 -0.7294
   68MOL   H21732511   6.106   0.154   7.468  3.8131  0.0490 -0.4177
   68MOL   C21832512   5.890   8.285   7.041  0.5664  0.2482  0.6608
   68MOL   C21932513   5.839   8.169   6.980 -0.3772  0.1380  0.0323
   68MOL   C22032514   5.734   8.170   6.890  1.4381  0.0821 -0.1850
   68MOL   C22132515   5.675   8.296   6.870 -0.6799 -0.9067  0.1382
   68MOL   C22232516   5.713   8.417   6.934 -0.4438 -0.0871 -0.0021
   68MOL   C22332517   5.821   8.409   7.029  0.4803  0.2595  0.2145
   68MOL   S22432518   5.672   8.030   6.799 -0.5815 -0.0479  0.7311
   68MOL   O22532519   5.701   8.049   6.657 -0.2778 -0.1275 -0.5451
   68MOL   O22632520   5.531   8.013   6.839  0.0811 -0.3164 -0.1467
   68MOL   C22732521   5.764   7.884   6.840  0.4786  0.1000 -0.4590
   68MOL   C22832522   5.697   7.768   6.875  0.1844 -0.1251  0.6316
   68MOL   C22932523   5.769   7.650   6.902  0.0457  0.4964 -0.0667
   68MOL   C23032524   5.912   7.645   6.881  0.3591 -0.5493  0.5819
   68MOL   C23132525   5.973   7.769   6.841  0.3709  0.6964 -0.1812
   68MOL   C23232526   5.902   7.885   6.818  0.2756  0.2542  0.1257
   68MOL   O23332527   5.979   7.523   6.884  0.5848  0.0133 -0.4007
   68MOL   H23432528   5.972   8.270   7.110  2.9244  0.0049 -2.1100
   68MOL   H23532529   5.900   8.080   6.990  0.1588  0.3684 -1.1880
   68MOL   H23632530   5.598   8.294   6.795 -0.7077 -1.3957  0.1806
   68MOL   H23732531   5.668   0.085   6.902  1.4119  0.8708  0.1536
   68MOL   H23832532   5.589   7.769   6.885  0.2046  1.5533  0.7982
   68MOL   H23932533   5.728   7.556   6.934  2.9362 -0.6027  0.5734
   68MOL   H24032534   6.080   7.759   6.829  0.3791 -0.9230  1.0538
   68MOL   H24132535   5.941   7.973   6.770  0.0803  0.2043 -0.1221
   68MOL   C24232536   6.200   7.419   6.849 -0.6554 -0.7823  0.0528
   68MOL   C24332537   6.338   7.415   6.883  0.0358  0.3522  0.5611
   68MOL   C24432538   6.394   7.502   6.983  0.6943  0.5756 -0.4802
   68MOL   C24532539   6.311   7.597   7.041  0.1198  0.3959  0.4981
   68MOL   C24632540   6.171   7.598   7.009 -0.3995  0.2213  0.2066
   68MOL   C24732541   6.117   7.516   6.910  0.3928  0.3980 -0.2680
   68MOL   S24832542   6.566   7.484   7.035 -0.4387 -0.0586  0.1073
   68MOL   O24932543   6.648   7.456   6.915 -0.0492 -0.1483  0.2866
   68MOL   O25032544   6.570   7.386   7.148  0.6848 -0.1569 -0.0437
   68MOL   C25132545   6.612   7.647   7.097 -0.9331  0.0115  0.1020
   68MOL   C25232546   6.644   7.670   7.236 -0.2315  0.4863  0.0815
   68MOL   C25332547   6.676   7.806   7.267  0.4005  0.1583 -0.8359
   68MOL   C25432548   6.644   7.917   7.184  0.7269  0.4619  0.1607
   68MOL   C25532549   6.589   7.892   7.053 -0.4752 -0.6701  0.4964
   68MOL   C25632550   6.591   7.757   7.011 -0.2725 -0.3614  0.8397
   68MOL   O25732551   6.649   8.050   7.227  0.2054 -0.1731 -0.0436
   68MOL   H25832552   6.162   7.355   6.770 -1.5747 -0.7853  0.5040
   68MOL   H25932553   6.412   7.355   6.832 -0.1529  0.2305  0.4261
   68MOL   H26032554   6.329   7.670   7.119 -1.4448  0.6075  0.6878
   68MOL   H26132555   6.117   7.676   7.062 -1.1752  0.6500 -1.1697
   68MOL   H26232556   6.669   7.596   7.310  0.4265  1.8919  1.2715
   68MOL   H26332557   6.713   7.818   7.368 -0.1498 -0.8017 -0.5176
   68MOL   H26432558   6.559   7.976   6.992  0.3600 -0.0904  0.8712
   68MOL   H26532559   6.558   7.730   6.912  0.6220 -0.6681  0.6261
   68MOL   C26632560   6.413   8.078   7.281 -0.1569  0.3030 -0.2343
   68MOL   C26732561   6.306   8.106   7.372 -0.3628 -0.2096 -0.0045
   68MOL   C26832562   6.342   8.150   7.498 -0.5327  0.6072 -0.4539
   68MOL   C26932563   6.484   8.159   7.533 -0.1116 -0.3165 -0.8677
   68MOL   C27032564   6.586   8.120   7.448 -0.2704 -0.7151  0.4500
   68MOL   C27132565   6.550   8.080   7.317 -0.2351  0.1758 -0.0691
   68MOL   S27232566   6.209   8.172   7.622  0.1389 -0.3568 -0.2771
   68MOL   O27332567   6.165   8.039   7.663 -0.2724 -0.1659  0.5209
   68MOL   O27432568   6.111   8.268   7.573  0.4102 -0.1282  0.0891
   68MOL   C27532569   6.283   8.249   7.765  0.3361 -0.2811  0.6774
   68MOL   C27632570   6.333   8.173   7.869 -0.2947 -0.2550 -0.3395
   68MOL   C27732571   6.396   8.239   7.972 -0.7741 -0.4344 -0.1868
   68MOL   C27832572   6.395   8.378   7.987 -0.1378 -0.4448 -0.0499
   68MOL   C27932573   6.343   0.029   7.883  0.6714 -0.0775  0.3938
   68MOL   C28032574   6.294   8.390   7.770  0.2374 -0.4767 -0.6830
   68MOL   O28132575   6.456   0.022   8.091 -0.2584 -0.4514 -0.0602
   68MOL   H28232576   6.375   8.045   7.186 -0.1909 -2.3791  0.6622
   68MOL   H28332577   6.204   8.096   7.338 -0.0322  1.2153 -1.4621
   68MOL   H28432578   6.502   8.191   7.634 -0.5832 -1.4478 -0.4184
   68MOL   H28532579   6.685   8.119   7.492  0.6305 -0.9935 -1.5168
   68MOL   H28632580   6.322   8.066   7.861  0.0441 -0.3213  0.0896
   68MOL   H28732581   6.434   8.175   8.051  1.7540 -1.0595 -1.8747
   68MOL   H28832582   6.337   0.136   7.870  0.5258 -0.0652  0.5689
   68MOL   H28932583   6.261   0.020   7.684 -0.0157  0.3646 -0.0481
   68MOL   C29032584   6.535   8.348   8.295 -0.5675  0.0429 -0.3159
   68MOL   C29132585   6.508   8.291   8.421  1.1313  0.7232  0.1785
   68MOL   C29232586   6.371   8.284   0.037 -0.0846 -0.3263  0.2275
   68MOL   C29332587   6.264   8.345   8.387  0.3124  0.2594  0.2638
   68MOL   C29432588   6.302   8.408   8.266  0.1512 -0.6376 -0.3659
   68MOL   C29532589   6.430   8.398   8.216 -0.0256 -0.0690  0.2665
   68MOL   S29632590   6.323   8.192   0.182  0.7221 -0.5675  0.0414
   68MOL   O29732591   6.383   8.059   0.171 -0.8874  0.1206 -0.2194
   68MOL   O29832592   6.180   8.215   0.223  0.0669 -0.2284  0.3486
   68MOL   C29932593   6.426   8.283   0.314 -0.1623 -0.4373  0.3899
   68MOL   C30032594   6.444   8.219   0.438  0.4234  0.4298 -0.2605
   68MOL   C30132595   6.501   8.285   0.545 -0.3949 -0.0177  0.0869
   68MOL   C30232596   6.548   8.419   0.536 -0.0841  0.3766  0.3612
   68MOL   C30332597   6.535   0.058   0.410 -0.3328 -0.7861 -0.1693
   68MOL   C30432598   6.473   8.420   0.297  0.4230 -1.0169  0.1779
   68MOL   O30532599   6.605   0.054   0.651  0.5308 -0.4421  0.0166
   68MOL   H30632600   6.637   8.352   8.262 -0.3980 -0.3782  0.1463
   68MOL   H30732601   6.579   8.244   0.062  0.3903  0.9841  1.1847
   68MOL   H30832602   6.164   8.336   0.001  1.0381 -0.5551  1.9837
   68MOL   H30932603   6.225   0.026   8.203  1.0256 -0.5358 -1.3698
   68MOL   H31032604   6.404   8.118   0.441 -1.4921  1.1205 -1.7309
   68MOL   H31132605   6.510   8.215   0.627  0.6497  0.2119  0.1789
   68MOL   H31232606   6.574   0.159   0.400 -1.0900 -0.1413  2.9481
   68MOL   H31332607   6.457   0.043   0.201  1.2018  0.8866  0.9828
   68MOL   C31432608   6.592   0.297   0.654  0.3119 -0.4650  0.0174
   68MOL   C31532609   6.656   0.423   0.637  0.0351 -1.2204 -0.7545
   68MOL   C31632610   6.788   0.431   0.597  0.1606 -0.6658 -0.1545
   68MOL   C31732611   6.860   0.311   0.571 -0.0253  0.0671  0.1792
   68MOL   C31832612   6.796   0.185   0.593  0.0647  0.2748  0.6612
   68MOL   C31932613   6.662   0.180   0.635 -0.3906  1.3873  0.0544
   68MOL   S32032614   6.857   0.596   0.571 -0.1570  0.3221  0.0241
   68MOL   O32132615   6.836   0.678   0.696  0.3374  0.0001  0.1151
   68MOL   O32232616   6.793   0.639   0.448 -0.7268  0.1533 -0.7499
   68MOL   C32332617   7.029   0.596   0.528 -0.2509  0.2120 -0.4395
   68MOL   C32432618   7.123   0.512   0.590  0.3306  0.0868  0.4423
   68MOL   C32532619   7.265   0.548   0.580  0.2056 -0.4389  0.4026
   68MOL   C32632620   7.310   0.645   0.492 -0.3094 -0.1379 -0.3493
   68MOL   C32732621   7.215   0.719   0.422  0.1035 -0.0946 -0.6211
   68MOL   C32832622   7.078   0.697   0.446  0.0252  0.1873 -0.2264
   68MOL   O32932623   7.450   0.662   0.476  0.0039 -0.5340 -0.2190
   68MOL   H33032624   6.487   0.281   0.671 -0.5266  0.2034 -4.0363
   68MOL   H33132625   6.601   0.515   0.653  0.6586 -0.6143 -1.9927
   68MOL   H33232626   6.962   0.321   0.538 -0.3102 -0.1028 -0.7633
   68MOL   H33332627   6.862   0.100   0.586  1.3357  1.3929 -0.9187
   68MOL   H33432628   7.090   0.436   0.659 -2.7047  0.0058 -1.0321
   68MOL   H33532629   7.338   0.490   0.634  1.3682  0.6566  0.0384
   68MOL   H33632630   7.241   0.778   0.335 -0.4819 -0.8782 -1.3418
   68MOL   H33732631   7.011   0.766   0.398 -0.2885  0.4208  0.5506
   68MOL   C33832632   7.642   0.650   0.619 -0.1756 -0.3279  0.8878
   68MOL   C33932633   7.719   0.712   0.719  0.2672  0.8251 -0.9101
   68MOL   C34032634   7.688   0.846   0.762 -0.2829  0.2377 -0.5307
   68MOL   C34132635   7.569   0.907   0.720 -1.0266  0.1385  0.0744
   68MOL   C34232636   7.488   0.845   0.620 -0.1473  0.1418 -0.2558
   68MOL   C34332637   7.520   0.713   0.578 -0.1069  0.0671 -0.4001
   68MOL   S34432638   7.815   0.922   0.862  0.2353 -0.1021 -0.4647
   68MOL   O34532639   7.753   1.037   0.929 -0.0248  0.1735  0.2875
   68MOL   O34632640   7.940   0.932   0.789  0.1360  0.0608 -0.2058
   68MOL   C34732641   7.857   0.801   0.996 -0.6818 -0.4015 -1.3907
   68MOL   C34832642   7.756   0.732   1.063 -0.2966 -0.4027  0.5546
   68MOL   C34932643   7.781   0.662   1.181 -0.9746  0.4228 -0.2457
   68MOL   C35032644   7.906   0.654   1.237  0.1778  0.1593 -0.2294
   68MOL   C35132645   8.009   0.727   1.175 -0.4721  0.2968  1.1761
   68MOL   C35232646   7.988   0.793   1.051  0.8082  0.0001  0.9403
   68MOL   O35332647   7.938   0.584   1.354 -0.2223  0.1836 -0.1160
   68MOL   H35432648   7.651   0.549   0.581  0.8177 -0.9791  2.7649
   68MOL   H35532649   7.814   0.672   0.749 -0.9713 -0.9155  0.8552
   68MOL   H35632650   7.534   1.001   0.761 -3.2140 -0.2085 -0.8983
   68MOL   H35732651   7.401   0.892   0.575 -1.3928 -2.1650 -0.3577
   68MOL   H35832652   7.659   0.741   1.016  0.3681 -1.3756 -1.0458
   68MOL   H35932653   7.694   0.614   1.224  0.1388 -0.8588  0.6144
   68MOL   H36032654   8.106   0.735   1.222  0.5606  0.1231 -0.8619
   68MOL   H36132655   8.064   0.860   1.013 -0.9834  1.3175 -0.4013
   68MOL   C36232656   7.836   0.432   1.502  0.1361 -0.3290 -0.4131
   68MOL   C36332657   7.772   0.410   1.621 -0.0824  0.5213  0.0041
   68MOL   C36432658   7.704   0.509   1.698 -0.2800 -0.1734  0.4391
   68MOL   C36532659   7.712   0.642   1.647 -0.0364 -0.1316  0.2355
   68MOL   C36632660   7.787   0.670   1.526 -0.2169  0.1482  0.3930
   68MOL   C36732661   7.846   0.560   1.452 -0.4822 -0.6111 -0.2031
   68MOL   S36832662   7.613   0.470   1.850 -0.2197  0.4468  0.1365
   68MOL   O36932663   7.599   0.596   1.921  0.1947  0.0974 -0.2871
   68MOL   O37032664   7.679   0.358   1.917 -0.1378 -0.4558  0.2844
   68MOL   C37132665   7.445   0.421   1.820 -0.2644 -0.0774  0.2039
   68MOL   C37232666   7.386   0.325   1.912  0.0860 -0.3130  0.1924
   68MOL   C37332667   7.258   0.266   1.879  0.1639  0.1513  0.4529
   68MOL   C37432668   7.193   0.311   1.765  0.3401  0.1737 -0.1591
   68MOL   C37532669   7.245   0.415   1.684  0.1846  0.2046  0.7508
   68MOL   C37632670   7.378   0.465   1.701 -0.0008 -0.1991 -0.1903
   68MOL   O37732671   7.069   0.262   1.740 -0.1900 -0.6746 -0.1925
   68MOL   H37832672   7.876   0.349   1.445  0.1577 -0.2769 -0.4731
   68MOL   H37932673   7.776   0.311   1.664 -0.2258  1.3999  2.1002
   68MOL   H38032674   7.680   0.722   1.712 -1.4403 -0.2310 -0.3140
   68MOL   H38132675   7.803   0.773   1.498  3.4745 -1.4884 -4.3300
   68MOL   H38232676   7.445   0.291   1.996  0.9648  2.6433  0.8284
   68MOL   H38332677   7.217   0.193   1.947  0.2081  0.8393  1.2314
   68MOL   H38432678   7.195   0.455   1.597  2.1588  0.5850 -0.2600
   68MOL   H38532679   7.406   0.545   1.634 -0.6240 -0.3053 -0.5829
   68MOL   C38632680   6.912   0.428   1.682  0.3597  0.9465 -0.2201
   68MOL   C38732681   6.798   0.503   1.711  0.2845  1.2347 -0.3307
   68MOL   C38832682   6.732   0.487   1.833  0.4865  1.0283  0.0447
   68MOL   C38932683   6.782   0.393   1.930 -0.2080 -0.4427 -0.7053
   68MOL   C39032684   6.897   0.312   1.899 -0.0039 -0.0333 -0.3446
   68MOL   C39132685   6.953   0.330   1.773 -0.2752  0.8375 -0.1136
   68MOL   S39232686   6.574   0.568   1.865 -0.3136 -0.2621 -0.0839
   68MOL   O39332687   6.510   0.585   1.733  0.5031 -0.6021 -0.5863
   68MOL   O39432688   6.601   0.688   1.945 -0.6180  0.1584  0.5323
   68MOL   C39532689   6.478   0.451   1.959  0.1458  0.1951  0.4970
   68MOL   C39632690   6.467   0.466   2.098 -0.0919 -0.0932  0.5037
   68MOL   C39732691   6.392   0.376   2.177 -0.0574 -0.1196 -0.1196
   68MOL   C39832692   6.317   0.278   2.114 -0.2559 -0.4078  0.0433
   68MOL   C39932693   6.329   0.263   1.969  0.0330 -0.5082 -0.1123
   68MOL   C40032694   6.417   0.349   1.898  0.0554  0.7076  0.0387
   68MOL   O40132695   6.246   0.187   2.186  0.3948  0.5859 -0.1581
   68MOL   H40232696   6.963   0.437   1.587  1.1944 -0.5588  0.0689
   68MOL   H40332697   6.751   0.565   1.637  0.9914  0.8561 -1.1112
   68MOL   H40432698   6.712   0.374   2.010 -0.7553  1.2967 -0.7482
   68MOL   H40532699   6.937   0.241   1.970 -0.8657 -1.6110 -1.3927
   68MOL   H40632700   6.510   0.553   2.145  2.2998 -0.4365 -0.9437
   68MOL   H40732701   6.390   0.400   2.282 -2.8354 -2.8547  0.5299
   68MOL   H40832702   6.273   0.186   1.919  0.2778 -1.8124  1.5842
   68MOL   H40932703   6.432   0.330   1.793  2.4293 -0.8751  0.6380
   68MOL   C41032704   6.302   8.374   2.142 -0.2245 -0.7286 -0.6941
   68MOL   C41132705   6.376   8.264   2.179 -0.0268  0.7445 -0.1269
   68MOL   C41232706   6.465   8.267   2.286 -0.0483  0.0308  0.3655
   68MOL   C41332707   6.488   8.386   2.357 -0.9929 -0.6280 -0.6335
   68MOL   C41432708   6.413   0.080   2.315  0.5774  0.4185 -0.0716
   68MOL   C41532709   6.321   0.073   2.212 -0.2180 -0.0150 -0.0697
   68MOL   S41632710   6.571   8.120   2.316 -0.4607  0.3020 -0.1053
   68MOL   O41732711   6.501   8.000   2.256 -0.6810  0.1390  0.2013
   68MOL   O41832712   6.599   8.116   2.460  0.3970 -0.1443  0.7172
   68MOL   C41932713   6.721   8.144   2.232 -0.0478  0.6355 -0.0094
   68MOL   C42032714   6.748   8.250   2.150  0.2645  0.0812  0.2964
   68MOL   C42132715   6.872   8.256   2.079 -0.3714  0.2772 -0.1581
   68MOL   C42232716   6.965   8.153   2.098  0.0920  0.0216 -0.0213
   68MOL   C42332717   6.934   8.048   2.184  0.2416 -0.2339  0.2630
   68MOL   C42432718   6.811   8.037   2.248  0.4113  0.3126  0.5784
   68MOL   O42532719   7.076   8.136   2.020  0.1571  0.6214  0.0901
   68MOL   H42632720   6.240   8.373   2.054 -1.3235 -0.4460  0.0649
   68MOL   H42732721   6.377   8.177   2.115 -1.0593  1.1925 -0.7642
   68MOL   H42832722   6.569   8.387   2.428  0.3723 -0.5084 -2.1651
   68MOL   H42932723   6.437   0.169   2.372  2.9130 -0.7825  0.8762
   68MOL   H43032724   6.680   8.333   2.140  1.1403  0.6109 -1.4566
   68MOL   H43132725   6.892   8.343   2.018  0.5509 -0.1620 -0.4957
   68MOL   H43232726   7.009   7.971   2.186  0.5570  0.0002 -1.5945
   68MOL   H43332727   6.787   7.953   2.311 -0.3690  0.5656  0.6267
   68MOL   C43432728   7.079   7.951   1.872  0.5327  0.0948 -0.0608
   68MOL   C43532729   7.060   7.885   1.745 -0.0246  0.4513 -0.0629
   68MOL   C43632730   7.017   7.972   1.640  0.5154  0.1203 -0.1491
   68MOL   C43732731   6.992   8.109   1.663  0.7196  0.2186 -0.2726
   68MOL   C43832732   7.011   8.172   1.783  0.2542 -0.1883 -0.3226
   68MOL   C43932733   7.061   8.088   1.892 -0.6351 -0.9437  0.5588
   68MOL   S44032734   6.974   7.924   1.474 -0.1472  0.1087 -0.4749
   68MOL   O44132735   6.843   7.985   1.448  0.1756  0.1656  0.3845
   68MOL   O44232736   6.998   7.776   1.472 -0.1446 -0.2809  0.3509
   68MOL   C44332737   7.086   7.997   1.361  0.2744 -0.6293  0.4028
   68MOL   C44432738   7.069   7.968   1.220 -0.3533  0.6444 -0.2114
   68MOL   C44532739   7.161   8.021   1.127 -0.5238 -0.2891 -0.0619
   68MOL   C44632740   7.268   8.107   1.167  0.1850  0.2006 -0.2486
   68MOL   C44732741   7.271   8.137   1.303 -0.1807 -0.5854 -0.5202
   68MOL   C44832742   7.187   8.087   1.401 -0.8207 -0.1991  0.7061
   68MOL   O44932743   7.364   8.148   1.080  0.0669  0.4661  0.0566
   68MOL   H45032744   7.106   7.896   1.961  1.4989 -2.7075 -1.9916
   68MOL   H45132745   7.078   7.779   1.733  1.5068  0.5677  1.0389
   68MOL   H45232746   6.959   8.164   1.577  0.9315  2.1342  0.8438
   68MOL   H45332747   6.993   8.278   1.786  0.3165 -0.1474 -1.4578
   68MOL   H45432748   6.989   7.901   1.190 -1.4397  1.2568  1.2725
   68MOL   H45532749   7.152   7.985   1.026 -0.7778  0.5204 -0.3339
   68MOL   H45632750   7.345   8.207   1.338 -0.9551  0.6048 -1.2112
   68MOL   H45732751   7.199   8.128   1.500 -0.4564 -0.5411  0.8062
   68MOL   C45832752   7.502   8.315   1.005  0.5267  0.4784  0.8426
   68MOL   C45932753   7.532   0.023   0.970 -0.1352 -0.3514 -0.3322
   68MOL   C46032754   7.430   0.117   0.973 -0.1424  0.2937  0.0037
   68MOL   C46132755   7.309   0.084   1.035 -0.4120 -0.1456 -0.1887
   68MOL   C46232756   7.276   8.377   1.068  0.6487  0.1797  0.0253
   68MOL   C46332757   7.377   8.280   1.052  0.4399 -0.3336 -0.1840
   68MOL   S46432758   7.460   0.284   0.915  0.0074 -0.5060 -0.2410
   68MOL   O46532759   7.483   0.371   1.037  0.0460 -0.2336  0.0174
   68MOL   O46632760   7.354   0.321   0.816 -0.2030  0.4480  0.1672
   68MOL   C46732761   7.612   0.297   0.818 -0.4519  0.7981 -0.4055
   68MOL   C46832762   7.725   0.353   0.885 -0.5413  0.3040 -1.1736
   68MOL   C46932763   7.850   0.356   0.814  0.2089  0.1518  0.3001
   68MOL   C47032764   7.855   0.323   0.676 -0.2048  0.2979 -0.4928
   68MOL   C47132765   7.739   0.266   0.618  0.5060  0.4587 -0.3361
   68MOL   C47232766   7.622   0.241   0.690 -0.2646  0.0804  0.2103
   68MOL   O47332767   7.975   0.340   0.609 -0.2787  0.1791  0.1288
   68MOL   H47432768   7.569   8.235   0.975 -1.1838 -0.5478 -0.3017
   68MOL   H47532769   7.626   0.050   0.924  1.1942 -1.3172  1.7302
   68MOL   H47632770   7.221   0.145   1.048 -1.0132 -1.4057  1.9041
   68MOL   H47732771   7.175   8.357   1.100  1.7300 -1.9409  2.2690
   68MOL   H47832772   7.723   0.392   0.985  2.2812  0.3625 -1.1248
   68MOL   H47932773   7.941   0.381   0.866  0.3535 -2.2830  1.3023
   68MOL   H48032774   7.745   0.227   0.518  0.1477 -2.2128  0.6407
   68MOL   H48132775   7.537   0.187   0.651  0.7142 -0.4305 -1.2963
   68MOL   H48232776   7.992   0.301   0.525 -0.4391 -1.2369  0.7252
   69MOL     C132777   4.381   0.955   4.802 -0.7606  0.5467  0.1045
   69MOL     C232778   4.441   0.945   4.922 -0.4842 -0.0637  0.0160
   69MOL     C332779   4.518   0.833   4.963  0.1252 -0.0012 -0.3396
   69MOL     C432780   4.534   0.731   4.871  0.2464  0.0290 -0.1742
   69MOL     C532781   4.488   0.748   4.740 -0.4597  0.0067 -0.3764
   69MOL     C632782   4.414   0.863   4.702 -0.0386 -0.4327 -0.1486
   69MOL     S732783   4.577   0.811   5.128  0.4394  0.0064 -0.0559
   69MOL     O832784   4.689   0.909   5.131 -0.3642 -0.2712 -0.8964
   69MOL     O932785   4.603   0.666   5.144  0.1704 -0.8316 -0.2720
   69MOL    C1032786   4.444   0.855   5.232  0.5132  1.3826  0.0530
   69MOL    C1132787   4.451   0.950   5.333  0.3234 -0.3074  0.1249
   69MOL    C1232788   4.345   0.974   5.426  0.4998 -0.0774 -0.5720
   69MOL    C1332789   4.235   0.890   5.418  0.4533  0.2062  0.7705
   69MOL    C1432790   4.219   0.791   5.318  0.4224  0.5993 -0.2438
   69MOL    C1532791   4.331   0.767   5.235 -0.4835  0.3905  0.0187
   69MOL    O1632792   4.135   0.901   5.508  0.1272 -0.2309  0.0177
   69MOL    H1732793   4.318   1.040   4.779 -0.4758  0.9140  0.6719
   69MOL    H1832794   4.420   1.004   5.010 -1.8325 -1.2177  0.4773
   69MOL    H1932795   4.589   0.641   4.895 -1.0439 -0.6519  0.2730
   69MOL    H2032796   4.513   0.667   4.672 -2.5416 -0.5092 -0.5521
   69MOL    H2132797   4.545   1.002   5.342 -0.3802  0.9023  0.5965
   69MOL    H2232798   4.362   1.047   5.503 -0.7977  1.0165 -1.3099
   69MOL    H2332799   4.129   0.730   5.319  0.6642  0.2488  0.4118
   69MOL    H2432800   4.336   0.679   5.172 -1.2513  2.0874 -2.5379
   69MOL    H2532801   4.371   0.859   4.603  1.9928  0.6842 -1.1023
   69MOL    C2632802   3.967   0.744   5.593 -0.3572  0.2534  0.5831
   69MOL    C2732803   3.933   0.641   5.687 -0.6360  0.0483  0.4990
   69MOL    C2832804   4.035   0.585   5.765  0.3941 -0.4577  1.0752
   69MOL    C2932805   4.163   0.631   5.763  0.3783  0.4758  0.3574
   69MOL    C3032806   4.201   0.736   5.677  0.7474 -0.9179  0.4566
   69MOL    C3132807   4.102   0.787   5.585 -0.4008  1.0068  0.2001
   69MOL    S3232808   3.989   0.451   5.878  0.3311  0.2241  0.0334
   69MOL    O3332809   3.861   0.500   5.943  0.2586 -0.4149 -0.3366
   69MOL    O3432810   4.111   0.417   5.948  0.2602  0.6477 -0.0889
   69MOL    C3532811   3.946   0.309   5.767  0.0479  0.0478  0.5260
   69MOL    C3632812   4.042   0.210   5.745  0.3907  0.6139 -0.0035
   69MOL    C3732813   4.021   0.104   5.653 -0.1037  0.3396 -0.3183
   69MOL    C3832814   3.893   0.098   5.590 -0.1250 -0.3078 -0.1310
   69MOL    C3932815   3.796   0.193   5.610  0.4115  0.6641 -0.6261
   69MOL    C4032816   3.821   0.302   5.699  0.5777  0.4840  0.7879
   69MOL    O4132817   3.870   8.422   5.504  0.6018  0.1473  0.2515
   69MOL    H4232818   3.888   0.775   5.528  1.2231 -0.7293 -1.8687
   69MOL    H4332819   3.833   0.603   5.702 -0.9095  1.2555  1.8434
   69MOL    H4432820   4.235   0.587   5.832  1.5264  0.1712 -1.0098
   69MOL    H4532821   4.296   0.787   5.686  0.1332  0.6778 -1.7792
   69MOL    H4632822   4.133   0.219   5.802  0.5745 -0.0698 -0.1863
   69MOL    H4732823   4.095   0.026   5.645 -1.3326 -1.0905  1.8124
   69MOL    H4832824   3.697   0.200   5.569  0.4542  4.2633 -0.2276
   69MOL    H4932825   3.754   0.381   5.731  1.4225  0.3033  3.0883
   69MOL    C5032826   3.985   8.242   5.389  0.3552  0.4642 -0.2372
   69MOL    C5132827   4.065   8.124   5.397  0.0308  0.6026  0.3829
   69MOL    C5232828   4.078   8.063   5.518 -0.6434  0.4420 -0.1125
   69MOL    C5332829   4.021   8.117   5.634  0.2222 -0.1681  0.4828
   69MOL    C5432830   3.939   8.231   5.634  0.1169 -0.1059  0.3837
   69MOL    C5532831   3.932   8.301   5.513 -0.5555  0.0945 -0.1206
   69MOL    S5632832   4.163   7.904   5.509  0.3797 -0.5504 -0.2246
   69MOL    O5732833   4.262   7.915   5.401  0.4922 -0.2961 -0.1051
   69MOL    O5832834   4.056   7.802   5.489 -0.4042 -0.4454 -0.0353
   69MOL    C5932835   4.246   7.868   5.659  0.2690 -0.3587  0.2933
   69MOL    C6032836   4.389   7.888   5.669  0.1535 -0.2472 -0.0854
   69MOL    C6132837   4.455   7.858   5.793  0.3395 -0.0093  0.7439
   69MOL    C6232838   4.376   7.791   5.889 -0.0126  0.6157 -0.4274
   69MOL    C6332839   4.231   7.762   5.873 -0.2077 -0.2324  0.2618
   69MOL    C6432840   4.166   7.810   5.759 -0.6826 -0.0270 -0.0721
   69MOL    O6532841   4.436   7.750   6.005  0.9431 -0.3118 -0.5292
   69MOL    H6632842   3.966   8.287   5.293 -1.1338 -0.3148 -0.3205
   69MOL    H6732843   4.103   8.084   5.304  0.6536 -1.2402  1.4233
   69MOL    H6832844   4.027   8.060   5.726 -0.8546 -2.1613 -0.6472
   69MOL    H6932845   3.896   8.264   5.727 -0.5920  3.3285 -1.0789
   69MOL    H7032846   4.449   7.920   5.585 -0.6606 -2.5054 -1.5692
   69MOL    H7132847   4.560   7.875   5.807  0.5754  0.9826 -1.9470
   69MOL    H7232848   4.178   7.702   5.945  1.4857 -3.2919 -0.9260
   69MOL    H7332849   4.061   7.791   5.742 -0.4637  0.2989 -1.9265
   69MOL    C7432850   4.433   7.503   6.033  0.4708  1.1274  0.2618
   69MOL    C7532851   4.493   7.376   6.016  0.4263 -0.2061 -0.0839
   69MOL    C7632852   4.612   7.361   5.946  0.1492  0.4602  0.4331
   69MOL    C7732853   4.681   7.485   5.909 -0.1199  0.2760  0.1875
   69MOL    C7832854   4.620   7.614   5.928 -0.5374 -0.2617  0.1376
   69MOL    C7932855   4.492   7.623   5.992 -0.0441 -0.4904  0.3458
   69MOL    S8032856   4.689   7.207   5.917  0.3689 -0.4183  0.1587
   69MOL    O8132857   4.590   7.104   5.957 -0.3814 -0.4121 -0.1696
   69MOL    O8232858   4.822   7.217   5.974  0.4997 -0.2050 -0.7369
   69MOL    C8332859   4.705   7.203   5.736  0.1889  0.5624  0.5124
   69MOL    C8432860   4.588   7.227   5.654 -0.3287 -0.2080  0.3852
   69MOL    C8532861   4.596   7.226   5.518 -0.2131 -0.6597 -0.0372
   69MOL    C8632862   4.722   7.212   5.457 -0.0414 -0.1219  0.0895
   69MOL    C8732863   4.834   7.182   5.540 -0.0998 -0.7271  0.2294
   69MOL    C8832864   4.828   7.178   5.678 -0.9646  0.3789  0.3270
   69MOL    O8932865   4.740   7.229   5.319  0.4730  0.3098  0.4432
   69MOL    H9032866   4.340   7.499   6.089 -0.3843  2.3884 -1.0301
   69MOL    H9132867   4.428   7.297   6.051  2.3720 -1.1398  1.5335
   69MOL    H9232868   4.773   7.485   5.852 -0.9439  0.4923 -1.1733
   69MOL    H9332869   4.664   7.708   5.899 -0.0343 -0.2397  0.9687
   69MOL    H9432870   4.496   7.240   5.707 -0.1703 -2.5131  1.2878
   69MOL    H9532871   4.515   7.250   5.451  1.3991  0.8656 -1.4786
   69MOL    H9632872   4.926   7.174   5.483 -0.1522  2.3021 -0.3530
   69MOL    H9732873   4.910   7.169   5.748 -0.1859 -1.5375 -0.7911
   69MOL    C9832874   4.932   7.304   5.206 -0.3020 -0.4248 -0.1211
   69MOL    C9932875   5.013   7.408   5.159  0.3924  0.6402  0.5697
   69MOL   C10032876   4.983   7.541   5.193 -0.1718 -0.3664 -0.0540
   69MOL   C10132877   4.868   7.574   5.272  0.7908 -0.3891 -0.2144
   69MOL   C10232878   4.791   7.466   5.314 -0.4185 -0.1289 -0.1778
   69MOL   C10332879   4.816   7.333   5.279  0.0218 -0.2953 -0.4375
   69MOL   S10432880   5.096   7.667   5.142  0.0975 -0.0889 -0.4122
   69MOL   O10532881   5.188   7.604   5.049  0.2543  0.4953  0.2748
   69MOL   O10632882   5.151   7.744   5.258  0.4770 -0.7115  0.0868
   69MOL   C10732883   4.990   7.777   5.047  0.0055 -0.8116 -0.3270
   69MOL   C10832884   4.992   7.778   4.903 -0.2306 -0.8011 -0.1075
   69MOL   C10932885   4.915   7.874   4.834 -0.1184  0.0340  0.1958
   69MOL   C11032886   4.848   7.980   4.902  0.6300 -0.1524 -0.1510
   69MOL   C11132887   4.852   7.983   5.041 -0.3876  0.1310  0.0806
   69MOL   C11232888   4.922   7.882   5.112  0.0789  0.5449 -0.3369
   69MOL   O11332889   4.761   8.061   4.839 -0.2172 -0.2828  0.9879
   69MOL   H11432890   4.959   7.201   5.187 -0.5849 -0.5491  0.1499
   69MOL   H11532891   5.107   7.390   5.110 -0.3511  0.0736 -0.6864
   69MOL   H11632892   4.837   7.675   5.295 -0.6775 -1.3050  2.0373
   69MOL   H11732893   4.695   7.482   5.361 -0.1768  1.1824 -0.1335
   69MOL   H11832894   5.040   7.701   4.844 -0.2496 -0.5216 -0.4900
   69MOL   H11932895   4.912   7.858   4.728  1.2683  0.7443  0.0405
   69MOL   H12032896   4.801   8.057   5.102 -0.3498 -0.2170  0.5307
   69MOL   H12132897   4.923   7.893   5.219 -1.4064  0.4344 -0.3012
   69MOL   C12232898   4.786   8.191   4.634 -0.0257 -0.2255 -0.2879
   69MOL   C12332899   4.835   8.306   4.573  0.6284 -0.5004 -0.1844
   69MOL   C12432900   4.896   8.408   4.648 -0.6896 -0.3577 -0.6105
   69MOL   C12532901   4.926   8.383   4.783 -0.4122 -0.5761 -0.2068
   69MOL   C12632902   4.898   8.261   4.845  0.0086  0.2226 -0.6640
   69MOL   C12732903   4.813   8.170   4.773  0.0085 -0.0129  0.2719
   69MOL   S12832904   4.946   0.141   4.577 -0.0611 -0.5347  0.3031
   69MOL   O12932905   5.057   0.197   4.662 -0.0592 -0.2201  0.0946
   69MOL   O13032906   4.827   0.223   4.548  0.2934  0.7415 -0.1187
   69MOL   C13132907   5.017   0.110   4.421  0.9875  0.1585  0.5115
   69MOL   C13232908   5.095   8.420   4.396 -0.1399  0.2004 -0.2082
   69MOL   C13332909   5.149   8.393   4.269 -0.0331  0.5956  0.7362
   69MOL   C13432910   5.121   0.055   4.164 -0.3309  0.4217 -0.1166
   69MOL   C13532911   5.050   0.177   4.188  0.1914 -0.4483  0.5710
   69MOL   C13632912   4.996   0.204   4.315  0.0625  0.3467  0.0956
   69MOL   O13732913   5.160   0.028   4.036  0.1914 -0.4023  0.0757
   69MOL   H13832914   4.731   8.114   4.582  0.8925 -1.2655  0.2386
   69MOL   H13932915   4.804   8.317   4.470 -0.6799  1.8052  0.4228
   69MOL   H14032916   4.981   0.034   4.837 -0.1326 -0.6250 -0.4215
   69MOL   H14132917   4.925   8.242   4.947 -1.3836  0.2981 -0.2774
   69MOL   H14232918   5.117   8.346   4.472  0.1094 -1.2055 -1.6268
   69MOL   H14332919   5.209   8.307   4.247 -1.3162 -0.0529 -0.3147
   69MOL   H14432920   5.032   0.242   4.104 -1.3037 -0.9587  0.4790
   69MOL   H14532921   4.927   0.285   4.330 -0.8134 -0.3088 -0.3241
   69MOL   C14632922   5.153   8.209   3.996  0.5216  0.2928  0.0994
   69MOL   C14732923   5.071   8.101   3.940 -0.6272 -0.3379 -0.0054
   69MOL   C14832924   4.950   8.130   3.874 -0.1795  0.8269  0.8249
   69MOL   C14932925   4.909   8.266   3.860 -0.7590  0.0002  0.0028
   69MOL   C15032926   4.989   8.369   3.909 -0.1278 -0.1108  0.5175
   69MOL   C15132927   5.103   8.341   3.979 -0.5038  0.1241  0.2338
   69MOL   S15232928   4.852   7.996   3.784 -0.1393 -0.0047  0.3855
   69MOL   O15332929   4.738   7.977   3.874  0.0940 -0.1447  0.2169
   69MOL   O15432930   4.939   7.889   3.742  0.3043 -0.1542 -1.0955
   69MOL   C15532931   4.787   8.076   3.632  0.5801  0.2736  0.2968
   69MOL   C15632932   4.878   8.114   3.532  0.3942 -0.7070 -0.7063
   69MOL   C15732933   4.825   8.165   3.415  0.6147  0.5847 -0.0749
   69MOL   C15832934   4.686   8.185   3.391  0.6040 -0.1873  0.9849
   69MOL   C15932935   4.599   8.145   3.497  0.0518 -0.4225  0.8418
   69MOL   C16032936   4.652   8.105   3.619 -0.1594  0.4159  0.5512
   69MOL   O16132937   4.629   8.230   3.274 -0.2782 -0.6681  0.0927
   69MOL   H16232938   5.245   8.191   4.050  0.6745  1.3949  0.2110
   69MOL   H16332939   5.100   7.997   3.947  1.0754  0.0844 -0.4639
   69MOL   H16432940   4.817   8.296   3.813 -1.5470 -0.8104  0.9799
   69MOL   H16532941   4.953   0.046   3.904  0.2237 -0.0369 -0.7882
   69MOL   H16632942   4.983   8.094   3.548  0.5302  2.2867  2.8057
   69MOL   H16732943   4.904   8.195   3.348 -0.7572 -1.7716 -2.8972
   69MOL   H16832944   4.492   8.144   3.483  0.0892  2.1972 -0.0285
   69MOL   H16932945   4.578   8.088   3.696 -0.7742  0.1427 -0.0910
   69MOL   C17032946   4.615   8.234   3.036 -0.3357  0.4526  0.2778
   69MOL   C17132947   4.640   8.184   2.905 -0.3003 -0.2694  0.8512
   69MOL   C17232948   4.716   8.065   2.897  0.0144  0.2389  0.5352
   69MOL   C17332949   4.771   8.007   3.013  0.0586  0.4822 -1.4517
   69MOL   C17432950   4.745   8.055   3.146  0.3116  0.5501  0.5437
   69MOL   C17532951   4.670   8.175   3.152 -0.1734 -0.2130  0.5300
   69MOL   S17632952   4.776   7.995   2.750  0.1090  0.4237 -0.3286
   69MOL   O17732953   4.691   7.875   2.725 -0.1352  0.2800 -1.3703
   69MOL   O17832954   4.922   7.971   2.767  0.1327 -0.1059 -0.7601
   69MOL   C17932955   4.756   8.106   2.615  0.6662 -0.5147 -0.2411
   69MOL   C18032956   4.630   8.148   2.564 -0.0199  0.9198  1.4822
   69MOL   C18132957   4.632   8.223   2.445  0.2080 -0.1317 -0.2195
   69MOL   C18232958   4.754   8.252   2.378 -0.2712 -0.3315  0.1263
   69MOL   C18332959   4.875   8.202   2.423  0.4535  0.2721 -0.0723
   69MOL   C18432960   4.875   8.137   2.546 -0.2874 -0.7682 -0.1965
   69MOL   O18532961   4.748   8.318   2.254  0.1077 -0.2603  0.1709
   69MOL   H18632962   4.549   8.319   3.041 -0.6302  0.1161  3.6875
   69MOL   H18732963   4.591   8.228   2.819  1.4261 -0.1405 -0.0912
   69MOL   H18832964   4.822   7.912   3.002 -1.3693 -0.3352 -1.1245
   69MOL   H18932965   4.772   7.997   3.233 -1.0160 -1.0665 -0.0856
   69MOL   H19032966   4.546   8.114   2.622 -0.9157 -0.9736 -0.8500
   69MOL   H19132967   4.534   8.243   2.404 -0.0745 -1.7661 -0.3556
   69MOL   H19232968   4.969   8.222   2.374  0.2555  0.2233 -0.4743
   69MOL   H19332969   4.970   8.107   2.588  0.6582  1.1506 -0.9211
   69MOL   C19432970   4.861   8.413   2.066 -0.1591  0.9883 -0.5035
   69MOL   C19532971   4.956   0.073   2.008 -0.0261  0.1478 -0.1241
   69MOL   C19632972   5.022   0.165   2.091 -0.1177 -0.0789 -0.8705
   69MOL   C19732973   5.009   0.155   2.230 -0.0030 -0.0395  0.1904
   69MOL   C19832974   4.929   0.053   2.294  0.1301 -0.9118  0.0585
   69MOL   C19932975   4.849   8.401   2.208  0.2978 -0.0461  0.1923
   69MOL   S20032976   5.127   0.297   2.026  0.1060  0.1401  0.2874
   69MOL   O20132977   5.269   0.258   2.020  0.6843 -0.1713 -0.1941
   69MOL   O20232978   5.088   0.427   2.085  0.3682  0.1934  0.2105
   69MOL   C20332979   5.082   0.319   1.854  0.5118 -0.1188  0.1270
   69MOL   C20432980   5.185   0.327   1.767  0.3906 -0.0876 -0.4433
   69MOL   C20532981   5.156   0.338   1.629  0.1722 -0.6353  0.0014
   69MOL   C20632982   5.020   0.337   1.580  0.2511 -0.1411  0.0089
   69MOL   C20732983   4.910   0.341   1.670 -0.2910 -0.4209 -0.0505
   69MOL   C20832984   4.943   0.327   1.809  0.2666 -0.0457  0.5702
   69MOL   O20932985   4.998   0.353   1.442 -0.1916 -0.6797  0.1491
   69MOL   H21032986   4.796   8.358   1.999 -0.1153  0.3059  0.0179
   69MOL   H21132987   4.970   0.080   1.901 -0.2508 -1.7276 -0.2875
   69MOL   H21232988   5.076   0.223   2.281 -0.5421 -1.2168  2.5660
   69MOL   H21332989   4.939   0.041   2.401 -0.6001  0.6403  0.3244
   69MOL   H21432990   5.286   0.319   1.804 -0.3099  3.0081  2.4813
   69MOL   H21532991   5.235   0.331   1.556 -1.0368 -2.2641 -1.1850
   69MOL   H21632992   4.807   0.338   1.638 -0.7467 -1.1393  1.3874
   69MOL   H21732993   4.859   0.327   1.878  0.2326 -2.2864  0.5524
   69MOL   C21832994   5.001   0.119   1.376 -0.1879  0.8419  0.0256
   69MOL   C21932995   4.956   0.016   1.293 -0.0002 -0.5372 -0.6463
   69MOL   C22032996   4.846   0.039   1.206 -0.0754  0.2549 -0.5395
   69MOL   C22132997   4.775   0.163   1.213 -0.7474 -0.8500  0.0481
   69MOL   C22232998   4.829   0.264   1.295 -0.7774 -0.0305  0.3089
   69MOL   C22332999   4.942   0.245   1.376 -0.5671  0.2785 -0.7486
   69MOL   S22433000   4.783   8.332   1.101 -0.0438  0.2418  0.4523
   69MOL   O22533001   4.792   8.210   1.178  0.0877  0.4195  0.1114
   69MOL   O22633002   4.854   8.338   0.971 -0.0121  0.1808  0.2174
   69MOL   C22733003   4.608   8.366   1.065  0.2526  0.1774  0.3508
   69MOL   C22833004   4.508   8.339   1.164 -0.0881  0.4152  0.0737
   69MOL   C22933005   4.372   8.353   1.124  0.1334  0.2994 -0.2315
   69MOL   C23033006   4.335   8.413   1.004  0.5904 -0.0800  0.2184
   69MOL   C23133007   4.433   0.021   0.910  0.4955 -0.2568 -0.6434
   69MOL   C23233008   4.567   8.423   0.944  0.1752 -0.5252  0.4419
   69MOL   O23333009   4.199   0.004   0.962 -0.4647  0.1700 -0.0108
   69MOL   H23433010   5.088   0.109   1.439  0.5673  1.6977 -0.8622
   69MOL   H23533011   5.001   8.343   1.292 -0.2011 -0.7708  3.7040
   69MOL   H23633012   4.687   0.175   1.152 -0.3003 -1.9269 -0.8173
   69MOL   H23733013   4.785   0.362   1.302  0.6827  0.6345  0.4608
   69MOL   H23833014   4.540   8.296   1.259  0.7774  1.1409  0.1210
   69MOL   H23933015   4.293   8.310   1.184 -1.8751  1.9061 -1.6399
   69MOL   H24033016   4.406   0.075   0.820  1.1063  0.0513 -0.6425
   69MOL   H24133017   4.649   0.028   0.881 -0.6508 -1.8159 -1.3233
   69MOL   C24233018   4.175   0.184   1.132 -0.3754  0.0587 -0.7123
   69MOL   C24333019   4.112   0.303   1.172 -0.1604  0.5230  0.0798
   69MOL   C24433020   3.997   0.348   1.107 -0.4243 -0.5459 -0.4709
   69MOL   C24533021   3.947   0.266   1.002 -0.5559 -0.1279 -0.0245
   69MOL   C24633022   4.012   0.150   0.955  0.2573 -0.0106 -0.5137
   69MOL   C24733023   4.135   0.112   1.018  0.7425  0.0350  0.4026
   69MOL   S24833024   3.899   0.494   1.142 -0.1404  0.3322 -0.0184
   69MOL   O24933025   3.758   0.459   1.177 -0.3467  0.4519 -0.8913
   69MOL   O25033026   3.904   0.589   1.029  0.3009  0.2772 -0.0695
   69MOL   C25133027   3.981   0.566   1.289 -0.3636 -0.4476 -0.2996
   69MOL   C25233028   4.097   0.646   1.285 -0.5091  0.2559 -0.0436
   69MOL   C25333029   4.160   0.680   1.402 -0.4949 -0.2386  0.6687
   69MOL   C25433030   4.109   0.649   1.527 -0.3638 -0.0698  0.2810
   69MOL   C25533031   3.991   0.574   1.532 -0.2297 -0.2734 -0.3524
   69MOL   C25633032   3.927   0.525   1.413  0.0314 -0.1393 -0.1607
   69MOL   O25733033   4.187   0.671   1.638 -0.0867  0.2961 -0.6501
   69MOL   H25833034   4.256   0.163   1.200 -1.7883  1.1605  1.3670
   69MOL   H25933035   4.140   0.357   1.261 -2.1618  0.8258  0.5487
   69MOL   H26033036   3.854   0.291   0.955 -0.6107  0.1153  0.2139
   69MOL   H26133037   3.976   0.099   0.867  0.5854  0.2554 -0.8036
   69MOL   H26233038   4.142   0.683   1.194 -2.1188  2.2864 -0.0472
   69MOL   H26333039   4.249   0.742   1.393 -0.3998 -0.7966 -2.6880
   69MOL   H26433040   3.955   0.558   1.633 -0.5795 -1.0311 -0.5958
   69MOL   H26533041   3.838   0.464   1.416 -0.4209  0.5208  0.0942
   69MOL   C26633042   4.205   0.466   1.765  0.2721  0.5117  0.3887
   69MOL   C26733043   4.292   0.376   1.832 -0.4656 -0.1959 -0.4456
   69MOL   C26833044   4.428   0.399   1.839 -0.5503  0.5305 -0.3263
   69MOL   C26933045   4.489   0.503   1.764 -0.1027 -0.6894  0.2956
   69MOL   C27033046   4.402   0.588   1.689 -0.4699  0.0605 -0.4623
   69MOL   C27133047   4.265   0.575   1.693 -0.5031 -1.1660 -0.6186
   69MOL   S27233048   4.527   0.291   1.947  0.1503 -0.6702  0.2554
   69MOL   O27333049   4.645   0.369   1.981 -0.2483 -0.3628 -0.6239
   69MOL   O27433050   4.529   0.159   1.880 -0.4888  0.3070 -0.6418
   69MOL   C27533051   4.423   0.272   2.096 -0.9538 -0.5243 -0.0179
   69MOL   C27633052   4.464   0.154   2.165  0.1085  0.3159  0.1820
   69MOL   C27733053   4.383   0.110   2.272  0.5897 -0.2429 -0.3643
   69MOL   C27833054   4.274   0.191   2.315 -0.7893  0.0051  0.4478
   69MOL   C27933055   4.239   0.307   2.242 -0.3006  0.4980 -0.0390
   69MOL   C28033056   4.317   0.353   2.136 -0.6218  0.5420  0.0738
   69MOL   O28133057   4.199   0.144   2.422  0.2892  0.2822  0.2905
   69MOL   H28233058   4.102   0.434   1.775 -0.1126  1.9180  1.0259
   69MOL   H28333059   4.244   0.297   1.888 -0.2252 -0.6628 -0.8934
   69MOL   H28433060   4.597   0.506   1.763  0.0712 -0.4513  5.9034
   69MOL   H28533061   4.443   0.673   1.637 -1.6155  1.4981  0.9360
   69MOL   H28633062   4.544   0.092   2.126 -0.7847 -1.8676  1.6924
   69MOL   H28733063   4.416   0.019   2.321  1.5990 -0.6063 -1.6760
   69MOL   H28833064   4.156   0.372   2.268  0.3290  1.1374  0.3813
   69MOL   H28933065   4.291   0.443   2.081 -1.5054  0.3999  0.2492
   69MOL   C29033066   4.010   0.007   2.366 -0.2351 -1.0599 -0.0628
   69MOL   C29133067   3.876   8.416   2.348  0.9325  0.3967 -0.2753
   69MOL   C29233068   3.788   0.097   2.366  0.2420  0.7211 -0.1402
   69MOL   C29333069   3.838   0.220   2.422  0.5637 -0.0093 -0.6848
   69MOL   C29433070   3.978   0.234   2.440 -0.2894  0.1325 -0.1185
   69MOL   C29533071   4.064   0.128   2.410  0.3425 -0.4775  0.5885
   69MOL   S29633072   3.611   0.075   2.326  0.0464 -0.1137 -0.3906
   69MOL   O29733073   3.566   8.370   2.377 -0.1843 -0.0210 -0.4470
   69MOL   O29833074   3.590   0.115   2.183 -0.3688  0.4890 -0.0777
   69MOL   C29933075   3.525   0.195   2.425  0.3324  0.1678  0.0974
   69MOL   C30033076   3.469   0.309   2.365 -0.4190 -0.4350  0.4620
   69MOL   C30133077   3.421   0.418   2.440 -0.3475 -0.3289  0.5065
   69MOL   C30233078   3.420   0.415   2.582  0.0393  0.3944  0.0728
   69MOL   C30333079   3.482   0.300   2.639 -0.7001  0.0309 -0.1204
   69MOL   C30433080   3.533   0.189   2.565  0.1497  0.1777  0.4375
   69MOL   O30533081   3.364   0.518   2.649 -0.4274  0.0384  0.0328
   69MOL   H30633082   4.091   8.364   2.341  1.6514  0.5387  1.4972
   69MOL   H30733083   3.840   8.319   2.318 -0.1841  1.0661 -1.1210
   69MOL   H30833084   3.772   0.304   2.437 -1.0159 -1.4284  0.5849
   69MOL   H30933085   4.031   0.323   2.473 -0.6184  1.3186 -2.6521
   69MOL   H31033086   3.474   0.321   2.257  0.2694 -0.6289  0.4693
   69MOL   H31133087   3.369   0.500   2.394  0.0107 -0.7836 -0.7425
   69MOL   H31233088   3.493   0.312   2.746  2.3742  0.2798 -0.4175
   69MOL   H31333089   3.581   0.105   2.613 -0.2992  0.5094  1.4652
   69MOL   C31433090   3.479   0.725   2.584  0.4171 -0.5398 -0.2536
   69MOL   C31533091   3.546   0.845   2.614  0.2861 -0.0749  0.1916
   69MOL   C31633092   3.577   0.869   2.748 -0.3001  0.6724 -0.3695
   69MOL   C31733093   3.556   0.771   2.841 -0.2445  0.2157 -0.1143
   69MOL   C31833094   3.488   0.650   2.812  0.1392 -0.2062 -0.9019
   69MOL   C31933095   3.444   0.623   2.677 -0.0765  0.1686 -0.3872
   69MOL   S32033096   3.671   1.008   2.800 -0.0762  0.1348 -0.0605
   69MOL   O32133097   3.616   1.061   2.924 -0.2959 -0.1016  0.3509
   69MOL   O32233098   3.696   1.089   2.682 -0.1495 -0.0725  0.2169
   69MOL   C32333099   3.828   0.942   2.848  0.2428  0.2967  0.1061
   69MOL   C32433100   3.843   0.897   2.984 -0.5424 -0.8179  0.2521
   69MOL   C32533101   3.966   0.843   3.014 -0.4108  0.6206 -0.5655
   69MOL   C32633102   4.073   0.835   2.930 -0.4701  0.7172  0.5596
   69MOL   C32733103   4.053   0.865   2.793 -0.3019 -0.0694 -0.6675
   69MOL   C32833104   3.924   0.915   2.751 -0.9303  0.2534 -0.7220
   69MOL   O32933105   4.200   0.800   2.973 -0.0692  0.3807  0.0284
   69MOL   H33033106   3.438   0.715   2.484  1.0039 -1.2618 -0.4197
   69MOL   H33133107   3.560   0.919   2.537  2.5416  0.8637  1.4432
   69MOL   H33233108   3.602   0.790   2.937 -0.9917  1.6243 -0.0115
   69MOL   H33333109   3.470   0.573   2.885  0.5071 -1.8505 -2.5060
   69MOL   H33433110   3.761   0.909   3.054  0.1773 -1.9716  1.2926
   69MOL   H33533111   3.982   0.825   3.120 -0.1199 -0.7537 -0.8283
   69MOL   H33633112   4.135   0.860   2.722 -0.5199  3.1581 -1.2104
   69MOL   H33733113   3.902   0.924   2.646 -0.8212  0.1200 -0.7560
   69MOL   C33833114   4.262   1.033   2.988 -0.6158  0.3808 -0.6326
   69MOL   C33933115   4.351   1.118   3.061  0.1873 -0.4171 -0.7628
   69MOL   C34033116   4.418   1.077   3.172 -0.2329  0.1517 -0.2920
   69MOL   C34133117   4.423   0.943   3.211  0.0200 -0.5693 -0.0814
   69MOL   C34233118   4.355   0.853   3.133  0.1116 -1.0843 -0.2099
   69MOL   C34333119   4.275   0.898   3.025 -0.4784 -0.4808  0.0962
   69MOL   S34433120   4.500   1.201   3.271 -0.3696 -0.2767 -0.0178
   69MOL   O34533121   4.572   1.135   3.385  0.6441  0.3325  0.3889
   69MOL   O34633122   4.403   1.306   3.302  0.4803 -0.3179  0.2412
   69MOL   C34733123   4.626   1.275   3.164  0.1730 -0.7728  0.9864
   69MOL   C34833124   4.646   1.417   3.169  0.3084 -0.1075 -0.1407
   69MOL   C34933125   4.735   1.482   3.091  0.3890 -0.2942 -0.2349
   69MOL   C35033126   4.811   1.408   2.996  0.1052  0.0644  0.0812
   69MOL   C35133127   4.787   1.269   2.983 -0.2637  0.1077  0.3071
   69MOL   C35233128   4.696   1.203   3.064  0.4516 -0.1989 -0.7065
   69MOL   O35333129   4.890   1.474   2.905 -0.1500 -0.6811  0.0944
   69MOL   H35433130   4.212   1.066   2.898 -0.9732  2.1674  0.2114
   69MOL   H35533131   4.366   1.222   3.036  0.5793 -0.2407  0.1878
   69MOL   H35633132   4.460   0.918   3.309  1.3824  2.1258  0.1323
   69MOL   H35733133   4.358   0.749   3.161 -1.8631 -1.4586 -1.2426
   69MOL   H35833134   4.584   1.477   3.235  1.2646  0.5078  0.2157
   69MOL   H35933135   4.756   1.588   3.097  2.2227 -0.6276 -0.3797
   69MOL   H36033136   4.835   1.212   2.905  1.9980  1.5102  0.6397
   69MOL   H36133137   4.688   1.096   3.053 -2.1963  0.0290 -1.3986
   69MOL   C36233138   5.101   1.366   2.850  0.5061  0.3327 -0.3355
   69MOL   C36333139   5.243   1.369   2.849 -0.2190 -0.1276  0.4231
   69MOL   C36433140   5.313   1.464   2.922  0.2914  0.0330 -0.7064
   69MOL   C36533141   5.241   1.564   2.990 -0.2633  0.6056 -0.6361
   69MOL   C36633142   5.095   1.562   2.990 -0.2724 -0.4751 -0.5407
   69MOL   C36733143   5.025   1.468   2.919 -0.6937 -0.1265 -0.3558
   69MOL   S36833144   5.486   1.462   2.915 -0.3545  0.2202  0.0866
   69MOL   O36933145   5.524   1.378   2.805  0.3537  0.4341  0.3434
   69MOL   O37033146   5.538   1.439   3.049  0.8634  0.1880  0.2355
   69MOL   C37133147   5.530   1.620   2.853 -0.0812  0.2353  0.4245
   69MOL   C37233148   5.588   1.715   2.932  0.3555 -0.6665 -0.4713
   69MOL   C37333149   5.642   1.840   2.877  0.1971  0.7931 -0.5976
   69MOL   C37433150   5.622   1.864   2.745  0.6553 -0.0757  0.8230
   69MOL   C37533151   5.551   1.772   2.666 -0.2266  0.1209  0.3824
   69MOL   C37633152   5.504   1.651   2.717  0.6046  0.6940 -0.5818
   69MOL   O37733153   5.671   1.979   2.693 -1.1002 -0.1042 -0.9627
   69MOL   H37833154   5.049   1.290   2.796  0.3109 -0.9750  1.6462
   69MOL   H37933155   5.297   1.288   2.803  1.2191 -0.0410  1.9214
   69MOL   H38033156   5.293   1.639   3.047  1.3764 -1.5039  0.7109
   69MOL   H38133157   5.038   1.645   3.031 -1.1265 -1.2946 -0.0658
   69MOL   H38233158   5.612   1.686   3.033  0.4485 -0.8588 -0.5485
   69MOL   H38333159   5.693   1.918   2.930  1.7238 -0.9074  0.4816
   69MOL   H38433160   5.529   1.791   2.562 -0.8357 -0.2533  0.4442
   69MOL   H38533161   5.449   1.588   2.649  0.7720  1.6806 -1.6556
   69MOL   C38633162   5.478   2.132   2.679  0.1523 -0.4908  0.7349
   69MOL   C38733163   5.421   2.258   2.708 -0.3802 -0.0509  0.1963
   69MOL   C38833164   5.506   2.354   2.766  0.4917 -0.5542 -0.0489
   69MOL   C38933165   5.639   2.328   2.805  0.0791 -0.3100  0.3303
   69MOL   C39033166   5.690   2.200   2.782  0.5268  0.8446  0.6717
   69MOL   C39133167   5.612   2.098   2.719  0.0792 -0.0663  0.0670
   69MOL   S39233168   5.447   2.521   2.797  0.6531 -0.0054 -0.5953
   69MOL   O39333169   5.358   2.556   2.686  0.3602  0.1287 -0.2625
   69MOL   O39433170   5.558   2.613   2.838 -0.6408  0.2465 -0.2052
   69MOL   C39533171   5.351   2.509   2.948  0.3417 -0.3424  0.6690
   69MOL   C39633172   5.385   2.407   3.036 -0.3198  0.6520  0.0755
   69MOL   C39733173   5.311   2.387   3.152  0.0120  0.0703 -0.3934
   69MOL   C39833174   5.193   2.466   3.182 -0.4788  0.6229 -0.6678
   69MOL   C39933175   5.153   2.559   3.084 -0.1360  0.2064 -0.5501
   69MOL   C40033176   5.236   2.583   2.970 -0.1895  0.1634  0.3428
   69MOL   O40133177   5.119   2.441   3.294 -0.1965  0.1096  0.1433
   69MOL   H40233178   5.418   2.058   2.629  0.5008  0.2150 -0.7352
   69MOL   H40333179   5.318   2.278   2.683  0.1392  0.3429 -1.7707
   69MOL   H40433180   5.694   2.413   2.843  0.4487  0.0477 -0.9619
   69MOL   H40533181   5.787   2.175   2.822  0.1872  0.1575  1.0760
   69MOL   H40633182   5.474   2.347   3.021 -0.8710 -0.0073 -0.6405
   69MOL   H40733183   5.340   2.311   3.223  0.5804 -0.9425 -1.6659
   69MOL   H40833184   5.063   2.618   3.097 -0.0262  0.1088  0.7526
   69MOL   H40933185   5.211   2.668   2.908  0.8277  1.3976  1.5853
   69MOL   C41033186   5.265   2.444   3.484  0.3695  0.0669  0.5460
   69MOL   C41133187   5.314   2.382   3.602 -0.3122 -0.7534 -0.2597
   69MOL   C41233188   5.270   2.255   3.637  0.4583 -0.2609 -0.0127
   69MOL   C41333189   5.180   2.183   3.554 -0.5316 -0.4027  0.1020
   69MOL   C41433190   5.136   2.243   3.429  0.2400  0.0956  0.1121
   69MOL   C41533191   5.175   2.378   3.402  0.3238 -0.1314 -0.3893
   69MOL   S41633192   5.339   2.185   3.785  0.1728  0.0039 -0.1970
   69MOL   O41733193   5.232   2.100   3.843  0.0416 -0.7002 -0.1891
   69MOL   O41833194   5.408   2.283   3.868 -0.0044 -1.0167  0.0974
   69MOL   C41933195   5.474   2.067   3.742  0.5140  0.0462  0.6679
   69MOL   C42033196   5.587   2.119   3.670 -0.3809 -0.3564  0.4832
   69MOL   C42133197   5.693   2.032   3.634 -0.4093 -0.5734  0.6201
   69MOL   C42233198   5.698   1.902   3.674  0.0211 -0.0493  0.0415
   69MOL   C42333199   5.586   1.856   3.753 -0.2344  0.1670  0.3707
   69MOL   C42433200   5.485   1.937   3.793  0.3491 -0.2043 -0.2472
   69MOL   O42533201   5.796   1.817   3.635  0.1092  0.3020  0.2835
   69MOL   H42633202   5.292   2.547   3.468  0.0381  0.0568 -0.0871
   69MOL   H42733203   5.378   2.441   3.666 -0.4187  1.6048 -2.2412
   69MOL   H42833204   5.148   2.084   3.581 -2.6782  0.1797 -0.1821
   69MOL   H42933205   5.063   2.192   3.368  0.6017  0.6094 -0.7521
   69MOL   H43033206   5.588   2.222   3.641 -0.2660 -1.1073 -2.3245
   69MOL   H43133207   5.781   2.071   3.585 -0.5223 -0.7828  0.2500
   69MOL   H43233208   5.594   1.754   3.788  0.5812  0.1850  0.2634
   69MOL   H43333209   5.409   1.891   3.855  1.3670  1.4531  2.3091
   69MOL   C43433210   6.024   1.869   3.632  0.1282 -0.3385 -0.3038
   69MOL   C43533211   6.147   1.864   3.698  0.5598 -0.3329  0.7298
   69MOL   C43633212   6.166   1.823   3.831  0.1713  0.2948  0.7027
   69MOL   C43733213   6.051   1.793   3.909 -0.8102 -0.6682  0.3083
   69MOL   C43833214   5.928   1.797   3.846 -0.6461 -0.1442 -0.2592
   69MOL   C43933215   5.913   1.829   3.706  0.9274 -0.0368 -0.1775
   69MOL   S44033216   6.323   1.851   3.910 -0.0134  0.1999 -0.1233
   69MOL   O44133217   6.300   1.936   4.024 -0.6308 -0.2905 -0.1290
   69MOL   O44233218   6.422   1.877   3.806  0.5809  0.2404 -0.2035
   69MOL   C44333219   6.373   1.693   3.991  1.0586 -0.8740 -0.1626
   69MOL   C44433220   6.325   1.577   3.929 -1.0517 -0.7297  0.2613
   69MOL   C44533221   6.387   1.460   3.956  0.1194  0.7462  0.0324
   69MOL   C44633222   6.478   1.443   4.066 -0.3726 -0.3164  0.3481
   69MOL   C44733223   6.512   1.561   4.136 -0.2876  0.0976 -0.4121
   69MOL   C44833224   6.461   1.686   4.098 -0.1018 -0.7675  0.1644
   69MOL   O44933225   6.540   1.322   4.089 -0.3034 -0.4469 -0.1254
   69MOL   H45033226   6.024   1.887   3.526  2.7831 -0.5838 -0.3846
   69MOL   H45133227   6.224   1.909   3.637 -1.1726  0.5877 -0.8185
   69MOL   H45233228   6.054   1.769   4.014 -0.2980 -1.2595  0.1637
   69MOL   H45333229   5.840   1.773   3.905  0.2742 -0.3818  1.0329
   69MOL   H45433230   6.259   1.590   3.844 -0.0472  1.3486 -0.2418
   69MOL   H45533231   6.364   1.374   3.894  0.3635  0.3299  0.5144
   69MOL   H45633232   6.579   1.549   4.220 -1.3436  0.1446  0.4542
   69MOL   H45733233   6.486   1.778   4.149  1.2033  1.6420 -4.5120
   69MOL   C45833234   6.742   1.326   3.966  0.5134  0.5656  0.5719
   69MOL   C45933235   6.821   1.277   3.864 -0.4672 -0.2405  0.0227
   69MOL   C46033236   6.778   1.158   3.801 -0.1655  0.1389 -0.1257
   69MOL   C46133237   6.651   1.096   3.823  0.5489  0.2493 -0.1513
   69MOL   C46233238   6.563   1.166   3.917  0.0041  0.3523  0.4002
   69MOL   C46333239   6.615   1.267   3.996  0.1270 -0.2961 -0.3513
   69MOL   S46433240   6.889   1.062   3.699 -0.1322  0.0199  0.1996
   69MOL   O46533241   6.948   0.955   3.782  0.3678 -0.5813 -0.0266
   69MOL   O46633242   6.969   1.160   3.636 -0.1252  0.1691  0.2010
   69MOL   C46733243   6.795   0.979   3.571 -0.3890 -0.2523  0.5642
   69MOL   C46833244   6.705   1.054   3.492  0.5584 -1.2973  0.6398
   69MOL   C46933245   6.614   0.989   3.401 -0.4001  0.1262 -0.3523
   69MOL   C47033246   6.625   0.846   3.384  0.2641 -0.3824  0.5069
   69MOL   C47133247   6.726   0.776   3.457 -0.0024  0.4278  1.1162
   69MOL   C47233248   6.809   0.839   3.551 -0.2601  0.0935  0.2953
   69MOL   O47333249   6.548   0.764   3.306  0.9054 -0.6816  0.0430
   69MOL   H47433250   6.782   1.407   4.026  1.9155  0.2495  0.0723
   69MOL   H47533251   6.916   1.326   3.847 -1.6511  1.8000 -0.9111
   69MOL   H47633252   6.628   1.000   3.779  1.9337 -0.1954  0.0881
   69MOL   H47733253   6.465   1.127   3.939  0.5372 -0.9484  0.5678
   69MOL   H47833254   6.699   1.161   3.508  0.0830 -1.0572 -1.0434
   69MOL   H47933255   6.542   1.041   3.340  0.4183  1.4469 -0.2083
   69MOL   H48033256   6.737   0.672   3.429  1.7635  0.3793  1.9057
   69MOL   H48133257   6.889   0.786   3.600 -0.3600 -0.6696 -0.3470
   69MOL   H48233258   6.486   0.814   3.254  2.1084  0.5428 -0.2546
   70MOL     C133259   5.448   6.537   4.131  0.1394 -0.6385  0.0125
   70MOL     C233260   5.391   6.468   4.027 -0.2130  0.0244 -0.0046
   70MOL     C333261   5.270   6.518   3.965 -0.4604 -0.0182 -0.3094
   70MOL     C433262   5.228   6.651   3.991 -0.1291 -0.1352  0.2142
   70MOL     C533263   5.290   6.721   4.093  0.4702  0.5003 -0.0837
   70MOL     C633264   5.398   6.661   4.171 -0.1570  0.1988  0.4486
   70MOL     S733265   5.178   6.414   3.855  0.5522  0.2434 -0.5297
   70MOL     O833266   5.223   6.448   3.716  0.9301  0.0167  0.3743
   70MOL     O933267   5.037   6.433   3.890 -0.3986 -1.0934 -0.4636
   70MOL    C1033268   5.222   6.244   3.888  0.2324 -0.7849 -0.5503
   70MOL    C1133269   5.237   6.186   4.020 -0.4012 -1.3220  0.6836
   70MOL    C1233270   5.255   6.042   4.033  0.2574 -0.3375  0.0894
   70MOL    C1333271   5.273   5.963   3.916 -0.1461 -0.2002  0.4125
   70MOL    C1433272   5.242   6.021   3.791  0.4506 -0.0266  0.6476
   70MOL    C1533273   5.224   6.163   3.777 -0.1504  0.2600 -0.6311
   70MOL    O1633274   5.290   5.831   3.937 -0.4207  0.3065  0.0630
   70MOL    H1733275   5.526   6.486   4.187 -0.4933 -0.0069  1.4835
   70MOL    H1833276   5.426   6.371   3.997  0.5328  0.2575  0.1035
   70MOL    H1933277   5.147   6.703   3.942  1.0939  1.7604  0.1406
   70MOL    H2033278   5.242   6.817   4.107 -1.1624 -0.3072 -0.1088
   70MOL    H2133279   5.229   6.240   4.113  2.1082 -1.9630  1.3132
   70MOL    H2233280   5.251   6.002   4.133  1.5017  1.2873  0.8178
   70MOL    H2333281   5.239   5.954   3.707 -0.4405 -0.4983  1.0511
   70MOL    H2433282   5.198   6.204   3.681 -0.2142  0.3437 -0.5787
   70MOL    H2533283   5.445   6.717   4.251 -1.7763 -1.7666  2.8305
   70MOL    C2633284   5.522   5.779   3.976  0.7290  0.1016 -0.3148
   70MOL    C2733285   5.640   5.711   3.937  0.0465 -0.0734  0.1789
   70MOL    C2833286   5.654   5.693   3.795  0.7227 -0.4175 -0.4101
   70MOL    C2933287   5.544   5.708   3.706  0.0998  0.1535 -0.0978
   70MOL    C3033288   5.421   5.749   3.759 -0.5590 -0.4901  0.4357
   70MOL    C3133289   5.409   5.780   3.896 -0.1212 -0.7329 -0.3017
   70MOL    S3233290   5.805   5.636   3.725  0.3516 -0.0901  0.4555
   70MOL    O3333291   5.899   5.623   3.833 -0.1289 -0.3621  0.3529
   70MOL    O3433292   5.840   5.726   3.614  0.0186  0.0565 -0.1997
   70MOL    C3533293   5.787   5.467   3.649 -0.0484 -0.5040  0.6967
   70MOL    C3633294   5.892   5.421   3.573 -0.1731 -0.3083 -0.4048
   70MOL    C3733295   5.877   5.303   3.496 -0.0056  0.5036 -0.1104
   70MOL    C3833296   5.764   5.217   3.504 -0.0387 -0.4872 -0.2671
   70MOL    C3933297   5.654   5.265   3.581 -0.2297  0.1498 -0.4171
   70MOL    C4033298   5.665   5.395   3.643  0.1398 -0.9459  0.4804
   70MOL    O4133299   5.761   5.091   3.443  0.1831 -0.2234 -0.4161
   70MOL    H4233300   5.527   5.811   4.079  1.6250  0.7840 -0.5597
   70MOL    H4333301   5.726   5.700   4.001 -0.3760 -0.6254  0.6576
   70MOL    H4433302   5.558   5.682   3.602  0.0020  0.6142 -0.2300
   70MOL    H4533303   5.344   5.766   3.684 -0.2477 -0.3597  0.1433
   70MOL    H4633304   5.970   5.495   3.569  0.8438 -1.3861 -0.6797
   70MOL    H4733305   5.960   5.253   3.449  1.3259  0.4710  2.1895
   70MOL    H4833306   5.560   5.211   3.575 -0.1768 -0.1039  0.8750
   70MOL    H4933307   5.582   5.432   3.701  0.6969 -1.2649  1.5009
   70MOL    C5033308   5.657   4.959   3.275 -0.8099 -0.3031  0.0438
   70MOL    C5133309   5.620   4.937   3.141  0.3305 -0.2571  0.1135
   70MOL    C5233310   5.640   5.036   3.044  0.4852  0.3645  0.6332
   70MOL    C5333311   5.694   5.162   3.086 -0.8270  0.6833  0.6046
   70MOL    C5433312   5.734   5.185   3.219 -1.0533 -0.4135 -0.1495
   70MOL    C5533313   5.724   5.082   3.313  0.1419 -0.3721 -0.3562
   70MOL    S5633314   5.586   5.017   2.871 -0.1262  0.6199  0.5542
   70MOL    O5733315   5.650   5.123   2.788 -0.1202  0.3782 -0.1461
   70MOL    O5833316   5.439   5.011   2.879 -0.0031 -0.2024  0.0241
   70MOL    C5933317   5.646   4.864   2.801 -0.7092 -0.0162  0.0015
   70MOL    C6033318   5.604   4.741   2.854  0.5030 -0.6817 -0.2771
   70MOL    C6133319   5.656   4.624   2.802 -0.2956  0.0894  0.1195
   70MOL    C6233320   5.751   4.623   2.699 -0.2972  0.3559  0.1142
   70MOL    C6333321   5.793   4.746   2.650  0.4675  1.1125  0.6319
   70MOL    C6433322   5.739   4.869   2.692  0.2409  0.7302  0.3249
   70MOL    O6533323   5.801   4.504   2.649  0.0831  0.0773 -0.2129
   70MOL    H6633324   5.643   4.876   3.342  0.6651 -1.8926 -1.5331
   70MOL    H6733325   5.567   4.848   3.109 -2.2991  1.4599 -0.4844
   70MOL    H6833326   5.696   5.242   3.013  0.1494 -0.4714 -0.6624
   70MOL    H6933327   5.767   5.285   3.245  2.6466 -0.8836 -2.5495
   70MOL    H7033328   5.538   4.738   2.939 -1.8954 -0.4014 -2.0804
   70MOL    H7133329   5.629   4.532   2.851  0.0523  0.3411  0.7854
   70MOL    H7233330   5.862   4.752   2.567 -1.8369  1.5128 -1.3285
   70MOL    H7333331   5.779   4.961   2.654  1.5559  0.1550  0.3086
   70MOL    C7433332   6.010   4.479   2.524  0.4290 -0.1950 -0.4220
   70MOL    C7533333   6.147   4.460   2.509  0.4142 -0.3557 -0.0967
   70MOL    C7633334   6.222   4.430   2.631  0.3510  0.8078 -0.6950
   70MOL    C7733335   6.156   4.442   2.758  0.1318  0.3689 -0.5680
   70MOL    C7833336   6.016   4.458   2.763 -0.0916 -0.6021 -0.0984
   70MOL    C7933337   5.938   4.477   2.648  0.5066  0.2896  0.4765
   70MOL    S8033338   6.400   4.407   2.620  0.2798 -0.4698 -0.2456
   70MOL    O8133339   6.470   4.531   2.661  0.0363  0.1229  0.1203
   70MOL    O8233340   6.441   4.351   2.493  0.3448  0.5116  0.1562
   70MOL    C8333341   6.435   4.283   2.750  1.1936  0.7211 -0.1164
   70MOL    C8433342   6.440   4.329   2.885 -0.4967  0.4895 -0.2672
   70MOL    C8533343   6.459   4.243   2.992  0.2695  0.0561  0.5033
   70MOL    C8633344   6.471   4.103   2.972 -0.7303 -0.6672 -0.3211
   70MOL    C8733345   6.475   4.052   2.841 -0.1439 -0.8832  0.0341
   70MOL    C8833346   6.455   4.140   2.729  0.8183 -0.3490 -0.3106
   70MOL    O8933347   6.508   4.018   3.077 -0.2425  0.0958  0.2062
   70MOL    H9033348   5.954   4.494   2.433  0.6017 -2.3410 -0.9123
   70MOL    H9133349   6.196   4.472   2.413  1.8050 -1.8576  0.3999
   70MOL    H9233350   6.202   4.446   2.855 -1.0276 -0.8092  0.0458
   70MOL    H9333351   5.970   4.475   2.859  1.1017 -0.4845  0.4693
   70MOL    H9433352   6.422   4.434   2.898  0.7315  0.5996  0.5824
   70MOL    H9533353   6.462   4.287   3.090 -0.1182 -1.1812  1.0694
   70MOL    H9633354   6.503   3.948   2.828  2.9546 -0.1802  0.6870
   70MOL    H9733355   6.459   4.109   2.625  0.7715 -1.1064 -0.0847
   70MOL    C9833356   6.316   4.034   3.211  0.1155  0.6147 -0.3194
   70MOL    C9933357   6.254   4.071   3.330  0.3781 -0.2580 -1.1302
   70MOL   C10033358   6.335   4.105   3.440  0.4234  0.0092 -0.1893
   70MOL   C10133359   6.478   4.100   3.429  0.1739  0.2929 -0.4014
   70MOL   C10233360   6.538   4.074   3.309  0.3248 -0.4913 -0.4418
   70MOL   C10333361   6.456   4.040   3.202 -0.3519 -0.1323  0.7388
   70MOL   S10433362   6.263   4.147   3.599  0.2951 -0.4896  0.0286
   70MOL   O10533363   6.292   4.034   3.687 -0.0258 -0.5217 -0.7643
   70MOL   O10633364   6.126   4.193   3.572 -0.7742 -0.6778  0.6010
   70MOL   C10733365   6.355   4.275   3.678 -0.1638 -0.4678  0.1036
   70MOL   C10833366   6.431   4.369   3.600  0.6538 -0.2430 -0.3572
   70MOL   C10933367   6.504   4.471   3.667  0.3099 -0.5853 -0.0161
   70MOL   C11033368   6.508   4.478   3.810  0.3564  0.3596 -0.2513
   70MOL   C11133369   6.420   4.391   3.883 -0.2747 -0.7533 -0.1282
   70MOL   C11233370   6.346   4.286   3.819 -0.3697 -0.7621  0.4385
   70MOL   O11333371   6.581   4.567   3.887  0.4004 -0.0958  0.0100
   70MOL   H11433372   6.256   4.007   3.126 -0.0274 -2.4683  0.7004
   70MOL   H11533373   6.147   4.082   3.346  0.8485 -0.3964  2.2987
   70MOL   H11633374   6.538   4.133   3.512 -0.3939 -0.4539  0.3149
   70MOL   H11733375   6.641   4.106   3.298 -0.3707  2.3248  0.8716
   70MOL   H11833376   6.446   4.360   3.494  0.0334  0.6588 -0.5330
   70MOL   H11933377   6.573   4.531   3.609  1.3643 -1.4620  0.3265
   70MOL   H12033378   6.422   4.395   3.990  0.5129  0.2941 -0.1787
   70MOL   H12133379   6.284   4.215   3.873 -0.5927 -1.4463 -0.7041
   70MOL   C12233380   6.708   4.765   3.834 -0.0241 -0.1336  0.0923
   70MOL   C12333381   6.826   4.826   3.788  0.2799  0.1217 -0.4267
   70MOL   C12433382   6.922   4.748   3.716  0.2892 -0.0359  0.1305
   70MOL   C12533383   6.910   4.605   3.717  0.8467  0.2396  0.2794
   70MOL   C12633384   6.795   4.552   3.784  0.0786  0.0080  0.1183
   70MOL   C12733385   6.687   4.628   3.828 -0.2957  0.2124  0.6761
   70MOL   S12833386   7.065   4.820   3.643 -0.0031  0.5525  0.2362
   70MOL   O12933387   7.066   4.775   3.501 -0.1932  0.2635 -0.8034
   70MOL   O13033388   7.178   4.795   3.729  0.1539  0.5596 -0.4793
   70MOL   C13133389   7.020   4.991   3.639  0.3350 -0.4265 -0.4717
   70MOL   C13233390   7.058   5.077   3.751 -0.5073 -0.7459 -0.0929
   70MOL   C13333391   7.010   5.209   3.760 -0.1793  0.4688 -0.6747
   70MOL   C13433392   6.944   5.265   3.651  0.2044  0.6109 -1.2489
   70MOL   C13533393   6.912   5.185   3.539 -0.2770  0.1103  0.3518
   70MOL   C13633394   6.941   5.043   3.534 -0.0851 -0.4233  0.0198
   70MOL   O13733395   6.898   5.395   3.659  0.0431 -0.9945  0.3648
   70MOL   H13833396   6.636   4.823   3.890 -0.3174 -1.0332  0.6482
   70MOL   H13933397   6.832   4.932   3.805  1.7910  0.0557 -0.5206
   70MOL   H14033398   6.979   4.540   3.665 -0.6800 -0.9164 -0.3095
   70MOL   H14133399   6.792   4.445   3.798  1.4737  0.0932  1.1134
   70MOL   H14233400   7.113   5.034   3.834 -0.8324 -2.3860 -0.7088
   70MOL   H14333401   7.031   5.261   3.852 -2.1207  0.3348 -0.1192
   70MOL   H14433402   6.862   5.229   3.455 -0.5933  0.3357  0.6584
   70MOL   H14533403   6.924   4.983   3.447 -0.8710 -1.0388  0.5919
   70MOL   C14633404   6.676   5.394   3.755 -0.3177  0.1010  0.0582
   70MOL   C14733405   6.533   5.407   3.739 -0.4150 -0.6242  0.4483
   70MOL   C14833406   6.478   5.447   3.611 -0.4910 -0.3092 -0.3546
   70MOL   C14933407   6.568   5.464   3.505 -0.5837  0.1495 -0.0897
   70MOL   C15033408   6.709   5.443   3.523 -0.1137 -0.0520  0.0651
   70MOL   C15133409   6.766   5.410   3.646  0.5392  0.0252 -1.0274
   70MOL   S15233410   6.298   5.476   3.599  0.2141 -0.2671 -0.0584
   70MOL   O15333411   6.239   5.503   3.734 -0.3397  0.2896  0.6094
   70MOL   O15433412   6.247   5.362   3.523  0.4057 -0.3732 -0.1516
   70MOL   C15533413   6.290   5.626   3.496 -0.1018  0.0647 -0.0281
   70MOL   C15633414   6.212   5.630   3.377 -0.4495  0.3644 -0.2418
   70MOL   C15733415   6.199   5.748   3.304  0.2804 -0.1295 -0.0671
   70MOL   C15833416   6.259   5.866   3.348 -0.3895  0.4283  1.0711
   70MOL   C15933417   6.337   5.862   3.465 -0.0472 -0.0234 -0.8933
   70MOL   C16033418   6.350   5.745   3.541 -0.2047  0.0235  0.0657
   70MOL   O16133419   6.238   5.986   3.293  0.4207 -0.0234 -0.2527
   70MOL   H16233420   6.718   5.368   3.851  1.7445  1.0739 -0.5676
   70MOL   H16333421   6.465   5.393   3.821 -1.1827 -1.8051 -0.3714
   70MOL   H16433422   6.528   5.491   3.409  0.2767 -2.4094 -1.2122
   70MOL   H16533423   6.773   5.454   3.437 -1.3256 -2.2403 -1.1552
   70MOL   H16633424   6.160   5.541   3.346 -1.1849  0.4785  0.6586
   70MOL   H16733425   6.146   5.739   3.211  2.0009  1.1495 -1.2007
   70MOL   H16833426   6.387   5.955   3.489 -1.6043  0.4109  0.7460
   70MOL   H16933427   6.401   5.734   3.636  1.3110 -0.4188 -0.7802
   70MOL   C17033428   6.122   5.971   3.074  0.1823 -0.5458 -0.2931
   70MOL   C17133429   6.127   5.972   2.938  0.7334  0.3761 -0.0012
   70MOL   C17233430   6.253   5.994   2.872 -0.2861 -1.0483  0.6910
   70MOL   C17333431   6.366   6.027   2.947  0.4859 -0.4654  0.0913
   70MOL   C17433432   6.362   6.018   3.090  0.0390  0.3412  0.0158
   70MOL   C17533433   6.238   5.997   3.155 -0.5983  0.0597  0.3954
   70MOL   S17633434   6.251   5.978   2.690 -0.0364  0.3179  0.1728
   70MOL   O17733435   6.391   5.948   2.644 -0.2786 -0.1647  0.8286
   70MOL   O17833436   6.187   6.102   2.640 -0.1007 -0.1423 -0.5140
   70MOL   C17933437   6.156   5.836   2.658  0.0423  0.4101  0.0399
   70MOL   C18033438   6.214   5.706   2.673  0.1612 -0.2284 -0.1941
   70MOL   C18133439   6.134   5.593   2.664 -0.3941 -0.6116  0.1011
   70MOL   C18233440   5.994   5.604   2.633 -0.8717 -0.3743 -0.2216
   70MOL   C18333441   5.938   5.729   2.618 -0.5747  0.1886 -0.4714
   70MOL   C18433442   6.016   5.844   2.629  0.2144  0.1996 -0.2343
   70MOL   O18533443   5.912   5.496   2.624  0.6431  0.3657  0.5705
   70MOL   H18633444   6.029   5.955   3.126  1.3586 -0.7067  1.8511
   70MOL   H18733445   6.037   5.953   2.882 -0.3308  0.3008  1.6973
   70MOL   H18833446   6.461   6.062   2.907  1.3519 -0.9582  1.6811
   70MOL   H18933447   6.454   6.037   3.144 -0.4310 -1.4565  1.5083
   70MOL   H19033448   6.317   5.690   2.699  0.8411  1.0830 -2.0049
   70MOL   H19133449   6.186   5.498   2.662 -0.6340 -0.7169 -2.8865
   70MOL   H19233450   5.831   5.735   2.602 -0.3716  1.1120 -1.4961
   70MOL   H19333451   5.965   5.936   2.606 -1.5851 -1.2047 -1.9730
   70MOL   C19433452   5.957   5.267   2.643  0.5194 -0.8215  0.4100
   70MOL   C19533453   5.990   5.164   2.727 -0.6578 -0.0579 -0.2791
   70MOL   C19633454   5.997   5.175   2.871  0.1341 -0.7326  0.9120
   70MOL   C19733455   5.960   5.301   2.927 -0.0989  0.9321 -0.1105
   70MOL   C19833456   5.928   5.407   2.843 -0.6079 -0.0297 -0.1176
   70MOL   C19933457   5.928   5.388   2.703 -0.8933 -0.0771  0.6820
   70MOL   S20033458   6.036   5.024   2.971  0.3588  0.4863  0.2803
   70MOL   O20133459   5.941   4.917   2.932 -0.1279 -0.3034 -0.5488
   70MOL   O20233460   6.050   5.064   3.115  0.1449 -0.1862 -0.4929
   70MOL   C20333461   6.191   4.969   2.907 -0.6537  0.4849 -0.8610
   70MOL   C20433462   6.306   5.048   2.925 -0.0482  0.7751 -0.9012
   70MOL   C20533463   6.431   5.003   2.873  0.5977 -0.0993  0.1738
   70MOL   C20633464   6.435   4.884   2.798 -0.3430  0.0301  0.4253
   70MOL   C20733465   6.323   4.804   2.779 -0.4186  0.6994 -0.5237
   70MOL   C20833466   6.197   4.844   2.833 -0.0292 -0.2336 -0.2640
   70MOL   O20933467   6.552   4.840   2.750 -0.1921 -0.0741  0.0904
   70MOL   H21033468   5.959   5.255   2.536  0.7635  2.2274  0.0196
   70MOL   H21133469   6.021   5.068   2.688  0.8270  0.7099 -1.0642
   70MOL   H21233470   5.965   5.324   3.032 -3.1955 -0.6544  0.4584
   70MOL   H21333471   5.916   5.506   2.885  1.6499  0.3248 -0.2741
   70MOL   H21433472   6.318   5.141   2.978  2.8233 -0.0948  0.0756
   70MOL   H21533473   6.519   5.064   2.882 -0.9808  2.1835  0.4952
   70MOL   H21633474   6.339   4.712   2.723  0.6181  0.2464  0.4950
   70MOL   H21733475   6.109   4.785   2.814  0.1782 -0.5055 -0.3859
   70MOL   C21833476   6.671   4.804   2.553  0.2026  0.3007  0.4208
   70MOL   C21933477   6.731   4.852   2.441 -0.1721 -0.3563  0.1626
   70MOL   C22033478   6.726   4.987   2.400  0.4490 -0.3573  0.0262
   70MOL   C22133479   6.643   5.072   2.473  0.0404  0.6095 -0.2641
   70MOL   C22233480   6.560   5.025   2.582  0.1700  0.1797  0.2386
   70MOL   C22333481   6.588   4.891   2.626  0.5686  0.3320 -0.0077
   70MOL   S22433482   6.808   5.047   2.264  0.1656  0.1622 -0.0008
   70MOL   O22533483   6.950   5.010   2.270 -0.0646  0.1069 -0.3079
   70MOL   O22633484   6.785   5.194   2.260  0.6138 -0.2032  0.3465
   70MOL   C22733485   6.727   4.983   2.117  0.5872 -0.1879 -0.1761
   70MOL   C22833486   6.586   4.996   2.103 -0.0749 -0.3746  0.9361
   70MOL   C22933487   6.517   4.923   2.002  0.0359  0.3661 -0.4947
   70MOL   C23033488   6.584   4.829   1.924  0.0204 -0.7467 -0.1312
   70MOL   C23133489   6.721   4.817   1.946 -0.5350  0.2253 -0.5833
   70MOL   C23233490   6.796   4.899   2.030  0.8592  0.5678  0.6607
   70MOL   O23333491   6.514   4.765   1.827  0.3956  0.0079  0.2349
   70MOL   H23433492   6.698   4.704   2.584 -1.9662 -0.9396 -1.4586
   70MOL   H23533493   6.804   4.791   2.389  1.1476  0.4925  0.9814
   70MOL   H23633494   6.631   5.176   2.447 -0.6699  0.8547  1.0379
   70MOL   H23733495   6.498   5.095   2.636  1.5569 -1.0968  3.6593
   70MOL   H23833496   6.532   5.066   2.165  0.7844 -0.4143  1.7321
   70MOL   H23933497   6.412   4.933   1.983 -0.1293 -0.7240 -0.2157
   70MOL   H24033498   6.769   4.748   1.878  4.5518  0.6835  2.2942
   70MOL   H24133499   6.900   4.871   2.036  0.8542 -0.5670 -3.1601
   70MOL   C24233500   6.559   4.802   1.595  0.7254  0.3754 -0.2054
   70MOL   C24333501   6.531   4.866   1.471 -0.3553 -0.2179 -0.4981
   70MOL   C24433502   6.429   4.968   1.464 -0.0280  0.0364  0.5626
   70MOL   C24533503   6.360   5.004   1.578 -0.0337 -0.1668  0.1328
   70MOL   C24633504   6.386   4.941   1.701 -0.4276 -0.4278  0.6657
   70MOL   C24733505   6.487   4.836   1.713  0.1694  0.1326  0.3289
   70MOL   S24833506   6.401   5.046   1.307  0.1886 -0.5985  0.1336
   70MOL   O24933507   6.258   5.064   1.280  0.6357 -0.0225 -0.1229
   70MOL   O25033508   6.474   4.971   1.202 -0.3450  0.1391  0.1865
   70MOL   C25133509   6.475   5.213   1.314  0.2907 -0.1596 -0.0726
   70MOL   C25233510   6.472   5.288   1.200 -0.2610 -0.0445  1.1038
   70MOL   C25333511   6.532   5.419   1.193  0.4431 -0.5972 -0.3020
   70MOL   C25433512   6.586   5.470   1.315  0.2198 -0.8347 -0.0036
   70MOL   C25533513   6.593   5.388   1.427  0.1224  0.4509 -0.3068
   70MOL   C25633514   6.531   5.259   1.434  1.0371 -0.5459 -0.2367
   70MOL   O25733515   6.651   5.593   1.311  0.4277  0.4642 -0.4978
   70MOL   H25833516   6.632   4.722   1.593 -0.8508 -1.0580 -2.0945
   70MOL   H25933517   6.590   4.833   1.387  1.1717  0.4777  0.2866
   70MOL   H26033518   6.284   5.080   1.570 -0.4850 -0.5971  0.3145
   70MOL   H26133519   6.325   4.977   1.783  2.1012  1.0796  1.9331
   70MOL   H26233520   6.424   5.245   1.113  1.3182 -0.4786  0.4325
   70MOL   H26333521   6.540   5.482   1.105  0.1583 -1.1967 -0.7622
   70MOL   H26433522   6.637   5.433   1.515 -0.0486  0.0281  0.0004
   70MOL   H26533523   6.535   5.194   1.520 -1.4343 -2.1619 -1.2870
   70MOL   C26633524   6.879   5.536   1.272 -0.0133  0.4330 -0.5965
   70MOL   C26733525   7.016   5.528   1.303  0.4375  0.3322 -0.6629
   70MOL   C26833526   7.052   5.576   1.432  0.1817 -0.1470 -0.4332
   70MOL   C26933527   6.959   5.630   1.519  0.3420  0.2243  0.2162
   70MOL   C27033528   6.827   5.644   1.478 -0.0911 -0.0395  0.4491
   70MOL   C27133529   6.781   5.593   1.357  0.5665  0.2504  0.9636
   70MOL   S27233530   7.224   5.570   1.484  0.0313 -0.5536 -0.0044
   70MOL   O27333531   7.298   5.471   1.409 -0.5028 -0.9536 -0.0560
   70MOL   O27433532   7.224   5.561   1.632 -0.0535  0.7841  0.0608
   70MOL   C27533533   7.292   5.736   1.443  0.0043  0.5671 -0.6705
   70MOL   C27633534   7.235   5.847   1.503 -0.2383 -0.1970 -0.6592
   70MOL   C27733535   7.288   5.976   1.481  0.9771 -0.1374  0.0203
   70MOL   C27833536   7.403   5.991   1.403  0.5504 -0.0603 -0.2420
   70MOL   C27933537   7.459   5.879   1.337 -0.3056 -0.6000 -0.1519
   70MOL   C28033538   7.412   5.750   1.367  0.1832  0.4698 -0.4753
   70MOL   O28133539   7.456   6.115   1.379  1.0238 -0.0710 -0.0095
   70MOL   H28233540   6.860   5.498   1.173  1.1425 -0.5289 -0.4545
   70MOL   H28333541   7.088   5.476   1.242  0.9042 -2.5009  2.1817
   70MOL   H28433542   6.993   5.675   1.611  0.9427 -0.9067  0.5643
   70MOL   H28533543   6.768   5.701   1.548  1.8085  2.0299  0.4095
   70MOL   H28633544   7.144   5.835   1.561 -0.1702 -0.2047 -0.5538
   70MOL   H28733545   7.252   6.068   1.523  1.8347  0.4310 -0.4709
   70MOL   H28833546   7.553   5.879   1.284 -0.0853 -2.9533  0.2086
   70MOL   H28933547   7.454   5.671   1.306  2.4808 -0.0858  1.7269
   70MOL   C29033548   7.601   6.155   1.192 -0.5107  0.2603 -0.5089
   70MOL   C29133549   7.620   6.202   1.063 -0.1355 -0.3293 -0.2450
   70MOL   C29233550   7.512   6.222   0.977  0.6278 -0.1863 -0.4954
   70MOL   C29333551   7.376   6.220   1.028 -0.2074  0.3994 -0.0270
   70MOL   C29433552   7.359   6.198   1.165 -0.3033  0.3246  0.0668
   70MOL   C29533553   7.471   6.155   1.250 -0.4878 -0.4566  0.7285
   70MOL   S29633554   7.546   6.245   0.803 -0.3734 -0.0434  0.2402
   70MOL   O29733555   7.653   6.348   0.784  0.1816  0.0036 -0.3185
   70MOL   O29833556   7.422   6.250   0.730  0.0473 -0.6026 -0.0385
   70MOL   C29933557   7.632   6.096   0.763  0.5371  0.0583  0.4303
   70MOL   C30033558   7.567   5.974   0.788  0.4702 -0.2188 -0.2276
   70MOL   C30133559   7.635   5.858   0.773 -0.9266 -0.0737  0.6883
   70MOL   C30233560   7.767   5.859   0.728 -0.6871 -0.2048  0.1425
   70MOL   C30333561   7.827   5.981   0.686  0.5112  0.4202  0.5947
   70MOL   C30433562   7.761   6.102   0.711 -0.6017 -0.7255  0.0941
   70MOL   O30533563   7.834   5.739   0.719 -0.4455  0.1647  0.0547
   70MOL   H30633564   7.687   6.120   1.247 -2.0179 -1.0204  1.1065
   70MOL   H30733565   7.722   6.208   1.027  0.2899 -2.5606  0.5178
   70MOL   H30833566   7.293   6.245   0.964  1.4977  3.5102 -1.1724
   70MOL   H30933567   7.262   6.211   1.210  0.1472  3.0695  0.2907
   70MOL   H31033568   7.463   5.967   0.817 -0.1355 -0.8770 -2.4530
   70MOL   H31133569   7.594   5.763   0.804  1.3943 -0.9745  1.0693
   70MOL   H31233570   7.924   5.983   0.638 -0.0794 -0.5686 -0.6529
   70MOL   H31333571   7.797   6.198   0.677 -0.9096 -1.9185 -3.8474
   70MOL   C31433572   7.920   5.670   0.936 -0.1404 -1.2446  0.6717
   70MOL   C31533573   8.029   5.656   1.023 -0.0937 -0.4829  0.2034
   70MOL   C31633574   8.162   5.686   0.969  0.2611 -0.5027 -0.3410
   70MOL   C31733575   8.181   5.733   0.839 -0.4479 -0.1572  0.7508
   70MOL   C31833576   8.073   5.752   0.756 -0.2468  0.4181 -0.1936
   70MOL   C31933577   7.941   5.722   0.803  0.3604  0.4616  0.7102
   70MOL   S32033578   8.318   5.671   1.055  0.0476 -0.0271  0.0110
   70MOL   O32133579   8.373   5.805   1.050 -0.3509 -0.2376  0.2003
   70MOL   O32233580   8.395   5.570   0.981 -0.2821 -0.7829  0.2896
   70MOL   C32333581   8.295   5.626   1.231  0.0747  0.3016  1.1547
   70MOL   C32433582   8.377   5.527   1.287  0.1508  0.5876  0.2711
   70MOL   C32533583   8.359   5.493   1.425  0.1533 -0.6206 -0.6102
   70MOL   C32633584   8.256   5.552   1.505 -0.2996  0.8709  0.0106
   70MOL   C32733585   8.173   5.645   1.441  0.0064  0.0709 -0.3032
   70MOL   C32833586   8.198   5.683   1.307 -0.2549  0.0145  0.0073
   70MOL   O32933587   8.221   5.506   1.630  0.6663  0.3699  0.3774
   70MOL   H33033588   7.822   5.654   0.978 -0.1846 -1.7457  0.3795
   70MOL   H33133589   8.022   5.628   1.127  1.5756  0.0994  0.4889
   70MOL   H33233590   8.277   5.748   0.792 -1.9411  1.3970 -1.8504
   70MOL   H33333591   8.092   5.789   0.657 -0.4539 -1.9608 -1.1722
   70MOL   H33433592   0.028   5.476   1.231  1.0089  1.1174  0.9408
   70MOL   H33533593   8.415   5.417   1.477 -1.4958 -0.9282  0.7832
   70MOL   H33633594   8.095   5.699   1.492  0.3595 -1.7219  2.2120
   70MOL   H33733595   8.131   5.755   1.262  1.9452  0.9516 -1.8714
   70MOL   C33833596   8.216   5.517   1.864 -0.5290  0.2565 -0.1596
   70MOL   C33933597   8.247   5.574   1.987 -0.1124 -0.0326 -0.2535
   70MOL   C34033598   8.302   5.706   1.991  0.2394 -0.1093  0.2445
   70MOL   C34133599   8.329   5.770   1.873 -0.0541  0.4723 -0.2924
   70MOL   C34233600   8.309   5.707   1.749  0.0146 -0.3349  0.0469
   70MOL   C34333601   8.249   5.580   1.741  0.0316  1.0302 -0.1068
   70MOL   S34433602   8.328   5.776   2.149  0.0882 -0.1998 -0.0328
   70MOL   O34533603   0.049   5.798   2.154 -0.5037 -0.3984 -0.0257
   70MOL   O34633604   8.273   5.688   2.249 -0.7774 -0.1602 -0.7082
   70MOL   C34733605   8.248   5.940   2.153 -0.0019  0.2109 -0.1521
   70MOL   C34833606   8.155   5.993   2.067 -0.3343  0.5189 -0.1668
   70MOL   C34933607   8.130   6.132   2.068  0.5045  0.2379  0.4083
   70MOL   C35033608   8.189   6.217   2.155  0.0480  0.8190  0.4016
   70MOL   C35133609   8.282   6.155   2.244 -0.1572  0.1145 -0.4436
   70MOL   C35233610   8.309   6.020   2.248 -0.2869  0.0073 -0.2101
   70MOL   O35333611   8.167   6.351   2.148 -0.7362 -0.1025  0.4310
   70MOL   H35433612   8.174   5.417   1.861  1.3589 -0.5967  0.8436
   70MOL   H35533613   8.219   5.526   2.079  0.2898  1.5931  0.7515
   70MOL   H35633614   8.361   5.873   1.872 -0.2669  0.5519  0.4032
   70MOL   H35733615   8.349   5.764   1.666 -2.9813 -1.7053 -2.4572
   70MOL   H35833616   8.124   5.932   1.983  1.6287 -0.3754 -0.2565
   70MOL   H35933617   8.078   6.177   1.985  0.3773 -1.2937 -0.3645
   70MOL   H36033618   8.335   6.216   2.315 -2.0592 -0.5970  1.6860
   70MOL   H36133619   8.385   5.980   2.313  0.5805 -0.1206 -1.2939
   70MOL   C36233620   8.015   6.350   2.331 -0.1190  0.4087 -0.6586
   70MOL   C36333621   7.951   6.412   2.444  0.1756  0.1332  0.0096
   70MOL   C36433622   8.005   6.533   2.489  0.0589 -0.5225 -0.6419
   70MOL   C36533623   8.108   6.597   2.418  0.2181 -0.7286 -0.8018
   70MOL   C36633624   8.167   6.533   2.305  0.2640  0.5506 -0.5604
   70MOL   C36733625   8.122   6.411   2.262  0.3270  0.7641  0.0074
   70MOL   S36833626   7.933   6.620   2.632  0.1142 -0.2814 -0.1045
   70MOL   O36933627   8.027   6.726   2.681  0.0142 -0.0338 -0.6795
   70MOL   O37033628   7.883   6.513   2.720 -0.3004 -0.1703 -0.3887
   70MOL   C37133629   7.781   6.698   2.576 -0.4644  0.5112 -0.0106
   70MOL   C37233630   7.662   6.701   2.653 -0.2009  0.0610  0.1466
   70MOL   C37333631   7.552   6.770   2.599  0.6554 -0.4949 -0.3347
   70MOL   C37433632   7.553   6.824   2.468  0.3049 -0.0941 -0.3243
   70MOL   C37533633   7.672   6.819   2.389  0.3101  0.4205 -0.0923
   70MOL   C37633634   7.781   6.756   2.446 -0.2181  0.1897  0.2454
   70MOL   O37733635   7.440   6.884   2.414 -0.0342  0.3244  0.2958
   70MOL   H37833636   7.984   6.250   2.306  1.0172 -0.0459 -0.2261
   70MOL   H37933637   7.888   6.350   2.505 -0.8744  0.5890 -0.5974
   70MOL   H38033638   8.133   6.699   2.445 -1.3150 -0.5198 -0.1649
   70MOL   H38133639   8.246   6.593   2.263 -0.6740  3.1311  1.2356
   70MOL   H38233640   7.643   6.646   2.744  1.5969 -0.4942  0.2037
   70MOL   H38333641   7.456   6.765   2.648  1.0317 -2.4290  0.2328
   70MOL   H38433642   7.693   6.856   2.290 -1.3155 -1.4325 -1.1617
   70MOL   H38533643   7.874   6.752   2.391  0.4626  0.5964  1.3573
   70MOL   C38633644   7.205   6.824   2.462 -0.8847 -0.3848 -0.1484
   70MOL   C38733645   7.101   6.734   2.443  0.3369  0.4909 -0.4647
   70MOL   C38833646   7.108   6.629   2.361  0.1945  0.4438 -0.2431
   70MOL   C38933647   7.233   6.598   2.292 -0.2463 -0.3846  0.2565
   70MOL   C39033648   7.336   6.691   2.307 -0.1314  1.0275 -0.1523
   70MOL   C39133649   7.326   6.803   2.396  0.1943 -0.0447 -0.4457
   70MOL   S39233650   6.965   6.526   2.329 -0.0884 -0.0123 -0.0363
   70MOL   O39333651   6.877   6.550   2.446 -0.2905 -0.0439  0.1683
   70MOL   O39433652   7.019   6.392   2.298  0.2353 -0.3592 -0.0444
   70MOL   C39533653   6.881   6.595   2.190 -0.7224  0.0729  0.3287
   70MOL   C39633654   6.771   6.680   2.199 -0.2437  0.2694 -0.0469
   70MOL   C39733655   6.718   6.728   2.082  0.6652 -0.0257 -0.1313
   70MOL   C39833656   6.764   6.682   1.957 -0.2673  0.3414  0.2602
   70MOL   C39933657   6.872   6.589   1.946 -0.3487 -0.4197  1.1484
   70MOL   C40033658   6.936   6.554   2.065  0.3398 -0.0506 -0.1516
   70MOL   O40133659   6.713   6.727   1.842 -0.5950  0.5080  0.3031
   70MOL   H40233660   7.204   6.900   2.538  1.6986 -0.3845 -0.0718
   70MOL   H40333661   7.014   6.736   2.508 -2.6615 -2.7184 -4.1126
   70MOL   H40433662   7.248   6.510   2.231  1.3722  0.9235 -1.3084
   70MOL   H40533663   7.430   6.680   2.255 -0.1849 -1.0030  0.1368
   70MOL   H40633664   6.735   6.704   2.298  0.8348  1.0727  0.1570
   70MOL   H40733665   6.643   6.806   2.092  0.0338 -0.3684 -1.9312
   70MOL   H40833666   6.913   6.561   1.850 -1.9864  1.7954 -0.2441
   70MOL   H40933667   7.026   6.495   2.081  1.3537  2.1847  2.9282
   70MOL   C41033668   6.718   6.969   1.840  0.1287 -0.6951 -0.3384
   70MOL   C41133669   6.784   7.086   1.804  0.2803  0.3910 -0.0725
   70MOL   C41233670   6.903   7.090   1.729  0.2894  0.1208 -0.4810
   70MOL   C41333671   6.960   6.968   1.697 -0.1197  0.8992 -0.7269
   70MOL   C41433672   6.896   6.847   1.734  0.2836 -0.6827 -0.7186
   70MOL   C41533673   6.781   6.848   1.806  0.1138 -0.3315 -0.2116
   70MOL   S41633674   6.982   7.244   1.692  0.0238  0.1486  0.2674
   70MOL   O41733675   7.121   7.215   1.654  0.1018  0.1525 -0.4853
   70MOL   O41833676   6.959   7.332   1.810  0.3107 -0.8198 -0.6406
   70MOL   C41933677   6.899   7.309   1.552  0.4826 -0.0572  1.0328
   70MOL   C42033678   6.883   7.452   1.538 -0.2371  0.6213 -0.0612
   70MOL   C42133679   6.815   7.510   1.427 -0.0451 -0.0791 -0.3459
   70MOL   C42233680   6.754   7.421   1.333 -0.5155  0.1770  0.2870
   70MOL   C42333681   6.755   7.286   1.357  0.3963 -0.3368  0.3141
   70MOL   C42433682   6.829   7.222   1.459 -0.2283  0.2050 -0.1364
   70MOL   O42533683   6.696   7.471   1.218 -0.2325  0.2135  0.4355
   70MOL   H42633684   6.628   6.974   1.898  0.8711 -1.0196  0.8590
   70MOL   H42733685   6.728   7.172   1.839  0.2742  0.0765  0.7125
   70MOL   H42833686   7.056   6.964   1.647 -0.0358 -0.1687 -0.4809
   70MOL   H42933687   6.936   6.754   1.696  0.4397 -0.1648 -1.8489
   70MOL   H43033688   6.933   7.507   1.616 -1.9655 -1.2492  2.4683
   70MOL   H43133689   6.809   7.618   1.415 -3.0038 -0.2247 -0.6097
   70MOL   H43233690   6.705   7.212   1.297 -2.0486 -0.1648  2.0605
   70MOL   H43333691   6.824   7.114   1.467 -1.1414  0.2045 -0.7227
   70MOL   C43433692   6.860   7.430   1.051  0.4875  0.2125 -0.4087
   70MOL   C43533693   6.912   7.369   0.934  0.4416  0.4429 -0.4093
   70MOL   C43633694   6.816   7.298   0.854  0.0008  0.1286 -0.1045
   70MOL   C43733695   6.680   7.288   0.894 -0.7582 -0.1512  0.0160
   70MOL   C43833696   6.640   7.345   1.015  0.2669  0.1049  0.2542
   70MOL   C43933697   6.729   7.419   1.092 -0.2507  0.2368 -0.2117
   70MOL   S44033698   6.875   7.214   0.710  0.0086  0.1339  0.1479
   70MOL   O44133699   7.016   7.239   0.662  0.4246  0.7388  0.1848
   70MOL   O44233700   6.770   7.236   0.610  0.4854 -0.1771 -0.0854
   70MOL   C44333701   6.870   7.037   0.737 -0.0132 -0.1432 -0.0220
   70MOL   C44433702   6.751   6.966   0.704  0.6358 -0.4435 -0.7930
   70MOL   C44533703   6.735   6.825   0.711  0.3810 -0.6522 -0.2947
   70MOL   C44633704   6.848   6.751   0.746 -0.4423 -0.6804 -0.6568
   70MOL   C44733705   6.972   6.820   0.778  0.2247  0.3518  0.2996
   70MOL   C44833706   6.981   6.958   0.774  0.1674 -0.5427  0.0597
   70MOL   O44933707   6.848   6.615   0.754  0.3437  0.7396  0.1408
   70MOL   H45033708   6.926   7.477   1.123  2.4421  0.8821 -2.5788
   70MOL   H45133709   7.011   7.394   0.901  0.2653  1.9649  0.1557
   70MOL   H45233710   6.612   7.222   0.841 -1.1735 -1.2497  1.8581
   70MOL   H45333711   6.537   7.333   1.043  0.7271 -1.2578  1.4222
   70MOL   H45433712   6.665   7.023   0.671  1.8663 -0.0625 -3.4737
   70MOL   H45533713   6.637   6.787   0.686  0.2445 -0.2389 -0.3965
   70MOL   H45633714   7.055   6.766   0.821 -0.3291 -0.4827  0.3414
   70MOL   H45733715   7.069   7.011   0.809  0.1630  1.2116 -2.4876
   70MOL   C45833716   6.878   6.534   0.527  0.0704 -0.4399 -0.7064
   70MOL   C45933717   6.824   6.472   0.413  0.3191  0.3752  0.0094
   70MOL   C46033718   6.691   6.419   0.424 -0.1358  0.0576  0.1298
   70MOL   C46133719   6.615   6.422   0.541 -0.6901  0.1631 -0.6109
   70MOL   C46233720   6.669   6.492   0.652  0.2386 -0.1461 -0.2427
   70MOL   C46333721   6.799   6.547   0.647  0.1715 -0.5723  0.1913
   70MOL   S46433722   6.618   6.327   0.282  0.0741  0.5056 -0.0967
   70MOL   O46533723   6.680   6.372   0.155 -0.3567  0.6163  0.0434
   70MOL   O46633724   6.469   6.325   0.308  0.6822 -0.2739 -0.3645
   70MOL   C46733725   6.665   6.156   0.306 -0.0393 -0.0245  0.2114
   70MOL   C46833726   6.699   6.077   0.194 -0.1974  0.1013  0.1070
   70MOL   C46933727   6.741   5.941   0.210  0.6082 -0.2830 -0.0419
   70MOL   C47033728   6.758   5.886   0.336  0.5268  0.5120 -0.8529
   70MOL   C47133729   6.725   5.972   0.450 -0.6615  0.4149 -0.1907
   70MOL   C47233730   6.671   6.101   0.437  0.1837  0.9061 -0.9770
   70MOL   O47333731   6.796   5.758   0.353 -0.6043 -0.3479 -0.3764
   70MOL   H47433732   6.981   6.565   0.522 -0.3723  0.9663 -1.3483
   70MOL   H47533733   6.884   6.478   0.324  1.2358  0.3586  0.6169
   70MOL   H47633734   6.515   6.384   0.552 -0.3311 -2.0611 -4.2274
   70MOL   H47733735   6.605   6.514   0.736 -0.3918  1.0961 -1.0399
   70MOL   H47833736   6.685   6.119   0.096 -1.9112  0.2547  0.4139
   70MOL   H47933737   6.771   5.882   0.125  0.4693 -0.2230 -0.1323
   70MOL   H48033738   6.741   5.928   0.548 -2.3054  0.7014  0.2315
   70MOL   H48133739   6.644   6.161   0.522  0.8444 -0.4469  0.2164
   70MOL   H48233740   6.735   5.700   0.310  0.1743 -0.4997 -1.2972
   71MOL     C133741   2.389   3.854   3.413 -0.3021  0.5367  0.6667
   71MOL     C233742   2.446   3.923   3.520 -0.3980 -0.3234 -0.0397
   71MOL     C333743   2.377   3.921   3.641  0.2275  0.3080 -0.2249
   71MOL     C433744   2.249   3.860   3.652  1.1208 -0.1385  0.1005
   71MOL     C533745   2.188   3.801   3.537  0.5071  0.2039 -0.4393
   71MOL     C633746   2.263   3.788   3.421 -0.0854 -0.3198 -0.1539
   71MOL     S733747   2.453   4.000   3.787  0.2212 -0.0939 -0.4738
   71MOL     O833748   2.592   3.954   3.811 -0.2299  0.0027 -0.6465
   71MOL     O933749   2.356   3.974   3.897  0.1795  0.0112 -0.4794
   71MOL    C1033750   2.468   4.178   3.758 -0.1699  0.4891 -0.7044
   71MOL    C1133751   2.503   4.228   3.633 -0.7394 -0.2771  0.7422
   71MOL    C1233752   2.506   4.368   3.616 -0.1829 -0.1767  1.0689
   71MOL    C1333753   2.479   4.458   3.718  0.6110  0.4351  0.4612
   71MOL    C1433754   2.439   4.403   3.846 -0.7884 -0.5858  0.7873
   71MOL    C1533755   2.434   4.265   3.864 -0.1976  0.2343  0.3082
   71MOL    O1633756   2.513   4.589   3.700  0.3934 -0.3482  0.2144
   71MOL    H1733757   2.436   3.854   3.316  1.4269  0.4073  1.4856
   71MOL    H1833758   2.548   3.957   3.518 -0.2829 -0.6168  0.5440
   71MOL    H1933759   2.188   3.861   3.741 -1.2022  0.8103 -1.4702
   71MOL    H2033760   2.085   3.770   3.532  0.2898  1.1319 -2.2945
   71MOL    H2133761   2.528   4.162   3.550  2.4598  1.0181  0.5904
   71MOL    H2233762   2.541   4.400   3.519 -3.2668  0.6993  0.2168
   71MOL    H2333763   2.432   4.462   3.936  0.3039  0.5678  0.1192
   71MOL    H2433764   2.407   4.219   3.958  0.7866 -0.2745  0.3475
   71MOL    H2533765   2.218   3.736   3.338 -0.3740 -1.8388  0.9487
   71MOL    C2633766   2.452   4.783   3.606 -0.5083 -0.4689  0.2422
   71MOL    C2733767   2.368   4.883   3.566  0.4704 -0.4369 -0.3462
   71MOL    C2833768   2.230   4.870   3.581  0.0409 -0.2005 -0.0042
   71MOL    C2933769   2.178   4.741   3.617 -0.8137  0.0516  0.0462
   71MOL    C3033770   2.270   4.642   3.662  0.1076  0.3307 -0.0762
   71MOL    C3133771   2.410   4.662   3.653 -0.0571 -0.0532  0.1490
   71MOL    S3233772   2.111   4.999   3.530  0.0300 -0.3221  0.3578
   71MOL    O3333773   2.005   5.005   3.630 -0.6175  0.7725 -0.2303
   71MOL    O3433774   2.073   4.971   3.389 -0.8314  0.1519  0.4795
   71MOL    C3533775   2.194   5.150   3.553  0.4090 -0.0976  0.4204
   71MOL    C3633776   2.233   5.198   3.679 -0.3198  0.2919 -0.6626
   71MOL    C3733777   2.277   5.332   3.685  0.4158  0.2932 -0.0723
   71MOL    C3833778   2.292   5.413   3.569 -0.0539 -0.2185  0.1581
   71MOL    C3933779   2.259   5.364   3.446  0.8095  0.0330  0.3577
   71MOL    C4033780   2.211   5.231   3.438  0.0923  0.2177  0.4809
   71MOL    O4133781   2.325   5.543   3.573 -0.2590 -0.8224  0.1120
   71MOL    H4233782   2.557   4.806   3.602 -0.5736 -0.2836 -0.5009
   71MOL    H4333783   2.405   4.976   3.526  0.9804 -1.1729 -1.5971
   71MOL    H4433784   2.071   4.731   3.611 -1.0055  2.1140 -0.6027
   71MOL    H4533785   2.233   4.545   3.693 -0.5277  0.2483 -1.0950
   71MOL    H4633786   2.209   5.137   3.765 -0.1391 -0.1240 -0.9059
   71MOL    H4733787   2.306   5.376   3.780 -1.3991  1.5474 -0.0752
   71MOL    H4833788   2.257   5.432   3.363  0.9308  2.4092  2.2331
   71MOL    H4933789   2.181   5.183   3.346  0.8625 -2.4374  1.5624
   71MOL    C5033790   2.255   5.700   3.749  0.3359 -0.4606  0.5176
   71MOL    C5133791   2.154   5.786   3.799 -0.4811  0.3964 -0.7893
   71MOL    C5233792   2.029   5.793   3.731 -0.4171  0.5734 -0.8237
   71MOL    C5333793   2.004   5.717   3.616  0.1423  0.5839 -0.6898
   71MOL    C5433794   2.109   5.644   3.561  0.2798  0.3344  0.2137
   71MOL    C5533795   2.232   5.625   3.626  0.2064 -0.5633 -0.5482
   71MOL    S5633796   1.896   5.879   3.816 -0.0490 -0.0766 -0.2427
   71MOL    O5733797   1.779   5.884   3.724  0.0565  0.3474 -0.2175
   71MOL    O5833798   1.954   6.007   3.860  0.6460 -0.0399 -0.0155
   71MOL    C5933799   1.849   5.784   3.957  0.0093  0.0189  0.7993
   71MOL    C6033800   1.753   5.825   4.051  0.0157  0.0447 -0.4221
   71MOL    C6133801   1.716   5.735   4.158 -0.2126  0.4417  0.2676
   71MOL    C6233802   1.779   5.610   4.169  0.2344  0.4882  0.1927
   71MOL    C6333803   1.867   5.565   4.067 -0.1162 -0.2240 -0.3339
   71MOL    C6433804   1.900   5.654   3.962  0.3823  0.1054 -0.0823
   71MOL    O6533805   1.741   5.526   4.277  0.0553  0.4741 -0.3189
   71MOL    H6633806   2.351   5.678   3.793  1.0389  0.6252 -0.4234
   71MOL    H6733807   2.167   5.836   3.894 -1.3416 -0.9686  0.0776
   71MOL    H6833808   1.911   5.722   3.560 -1.4014 -1.6139  1.5722
   71MOL    H6933809   2.091   5.590   3.469 -0.1337  1.2170 -0.2370
   71MOL    H7033810   1.709   5.923   4.043 -1.4060 -0.7386 -3.0928
   71MOL    H7133811   1.661   5.780   4.239 -1.1661 -0.8268  0.3391
   71MOL    H7233812   1.902   5.463   4.056 -1.4904 -0.8408  0.8903
   71MOL    H7333813   1.970   5.605   3.895  1.0358  0.9167 -0.0043
   71MOL    C7433814   1.523   5.411   4.260  0.0318  0.1383  0.4825
   71MOL    C7533815   1.451   5.300   4.223 -0.3657  0.6707 -0.3228
   71MOL    C7633816   1.513   5.184   4.180  0.3480  0.0247  0.0126
   71MOL    C7733817   1.655   5.169   4.186 -0.5497  0.0994 -0.2826
   71MOL    C7833818   1.729   5.283   4.228  0.8305  0.4181 -0.6365
   71MOL    C7933819   1.664   5.411   4.251  0.2414  0.6243 -0.4934
   71MOL    S8033820   1.418   5.044   4.127 -0.1978 -0.0035  0.3936
   71MOL    O8133821   1.469   4.927   4.199  0.1531  0.5798 -0.0317
   71MOL    O8233822   1.413   5.033   3.983  0.0532 -0.3138 -0.3907
   71MOL    C8333823   1.248   5.069   4.185  0.5153  0.0833  0.3147
   71MOL    C8433824   1.210   5.055   4.317  0.2408 -0.1386  0.6896
   71MOL    C8533825   1.077   5.074   4.357 -0.3440 -0.0041  0.0446
   71MOL    C8633826   0.976   5.088   4.262 -0.2888  0.4417  0.4254
   71MOL    C8733827   1.017   5.104   4.123  0.2968 -0.3994 -0.3398
   71MOL    C8833828   1.153   5.099   4.089 -0.0671 -0.2734  0.0933
   71MOL    O8933829   0.842   5.079   4.292  0.6311  0.0302 -0.0656
   71MOL    H9033830   1.470   5.494   4.306  0.0696  0.0465  0.6910
   71MOL    H9133831   1.343   5.309   4.220 -0.4513 -0.1878  0.1555
   71MOL    H9233832   1.710   5.078   4.165 -0.8048 -0.2943  0.7499
   71MOL    H9333833   1.836   5.283   4.218  0.9046  2.1518 -0.1531
   71MOL    H9433834   1.276   5.024   4.397 -1.4519  0.7634  2.4926
   71MOL    H9533835   1.046   5.047   4.457 -0.1395 -1.6564 -0.3277
   71MOL    H9633836   0.940   5.132   4.053  1.7601  3.5047 -0.5369
   71MOL    H9733837   1.173   5.117   3.984 -2.2904  1.2500 -0.0855
   71MOL    C9833838   0.791   4.844   4.350 -0.6404 -0.4605 -0.4838
   71MOL    C9933839   0.739   4.717   4.314 -0.0654 -0.2657  0.0823
   71MOL   C10033840   0.676   4.704   4.189  0.7045  0.0074 -0.2597
   71MOL   C10133841   0.661   4.814   4.106  0.4756 -0.6884  0.1119
   71MOL   C10233842   0.718   4.937   4.138  1.1481  0.2818  0.6196
   71MOL   C10333843   0.784   4.956   4.260 -0.3492  0.4632  0.6847
   71MOL   S10433844   0.606   4.546   4.158  0.1061 -0.2385 -0.0160
   71MOL   O10533845   0.678   4.443   4.240 -0.6440 -0.2837 -0.1351
   71MOL   O10633846   0.615   4.526   4.015 -0.5984 -0.4560  0.3006
   71MOL   C10733847   0.435   4.555   4.206 -0.2151 -0.3345 -0.3933
   71MOL   C10833848   0.336   4.483   4.134 -0.2806  0.1592 -0.1702
   71MOL   C10933849   0.202   4.491   4.167 -0.2398  0.5608  0.3150
   71MOL   C11033850   0.158   4.561   4.275  0.0010  0.1106  0.8878
   71MOL   C11133851   0.256   4.627   4.351 -0.0363  0.8550 -0.4004
   71MOL   C11233852   0.395   4.630   4.318 -0.2014  0.6593 -0.1021
   71MOL   O11333853   0.029   4.553   4.321  0.3909  0.1259  0.3590
   71MOL   H11433854   0.822   4.839   4.453  1.7694 -1.4924 -1.2194
   71MOL   H11533855   0.731   4.635   4.382 -0.2390  0.3420  0.7996
   71MOL   H11633856   0.603   4.810   4.015 -0.0720 -0.5998  0.4560
   71MOL   H11733857   0.702   5.024   4.075  0.0398 -0.1469  0.2893
   71MOL   H11833858   0.375   4.410   4.065  0.3985  2.2116 -2.0356
   71MOL   H11933859   0.130   4.428   4.117 -0.3401 -0.2336  1.4428
   71MOL   H12033860   0.222   4.675   4.442  1.3709 -0.7159  0.9835
   71MOL   H12133861   0.466   4.683   4.381  1.4782  0.9454 -2.1707
   71MOL   C12233862   8.262   4.462   4.204 -1.2395 -0.4191  0.5430
   71MOL   C12333863   8.173   4.353   4.178  0.0335 -0.0823  0.0726
   71MOL   C12433864   8.205   4.225   4.234  0.2805  0.0499 -0.3580
   71MOL   C12533865   8.315   4.206   4.316  0.2995  0.0205 -0.2358
   71MOL   C12633866   8.391   4.316   4.344  0.4129 -0.8658 -1.0527
   71MOL   C12733867   8.370   4.447   4.291  0.3762  0.4431 -0.3655
   71MOL   S12833868   8.117   4.081   4.186  0.0556  0.2644 -0.4137
   71MOL   O12933869   7.975   4.106   4.198 -0.6575 -0.3090 -0.4991
   71MOL   O13033870   8.168   3.965   4.262 -0.4148 -0.5555 -0.9230
   71MOL   C13133871   8.155   4.041   4.015 -0.7394 -0.5237 -0.1953
   71MOL   C13233872   8.257   4.104   3.949  0.3187 -0.8628  0.8620
   71MOL   C13333873   8.291   4.063   3.812 -0.5219 -0.7541  0.0560
   71MOL   C13433874   8.229   3.945   3.762 -0.3163  0.9734 -0.4938
   71MOL   C13533875   8.130   3.876   3.841  0.7483 -0.1825 -0.2656
   71MOL   C13633876   8.084   3.930   3.960 -0.3777 -0.1184 -0.3595
   71MOL   O13733877   8.275   3.885   3.648 -0.2668  0.5356 -0.1060
   71MOL   H13833878   8.241   4.560   4.166  0.3316 -0.4211 -0.3636
   71MOL   H13933879   8.084   4.358   4.117 -1.2457  1.1860  1.9834
   71MOL   H14033880   8.339   4.109   4.356 -1.1020 -0.1220  0.2841
   71MOL   H14133881   0.047   4.296   4.413 -1.4348 -3.3522  0.4607
   71MOL   H14233882   8.318   4.182   3.993  1.0839  0.3074 -2.1333
   71MOL   H14333883   8.356   4.128   3.755 -1.6191 -0.2778 -0.6638
   71MOL   H14433884   8.090   3.785   3.797  0.8764 -0.1914 -0.3632
   71MOL   H14533885   8.017   3.876   4.026  0.1353 -2.0254 -1.3600
   71MOL   C14633886   8.404   3.703   3.755  0.0398 -0.3282 -0.2741
   71MOL   C14733887   8.420   3.560   3.773  0.1340  0.4376 -0.0914
   71MOL   C14833888   8.353   3.471   3.689  0.0349  0.1673 -0.0282
   71MOL   C14933889   8.279   3.517   3.581  0.4074  0.5279 -0.5267
   71MOL   C15033890   8.266   3.654   3.563  0.4246  0.3338  0.1333
   71MOL   C15133891   8.322   3.752   3.647  0.1478  0.0446 -0.2491
   71MOL   S15233892   8.333   3.299   3.726  0.3740  0.4993 -0.3754
   71MOL   O15333893   8.320   3.235   3.595  0.3141 -0.7367  0.1115
   71MOL   O15433894   8.224   3.297   3.821  0.6250 -0.3984  0.2652
   71MOL   C15533895   0.065   3.254   3.800  0.4554 -0.5569  0.0568
   71MOL   C15633896   0.176   3.254   3.715  0.1973  0.5904 -0.3320
   71MOL   C15733897   0.303   3.239   3.774 -0.0724  0.2376  0.3356
   71MOL   C15833898   0.319   3.233   3.917 -0.3987 -0.0430  0.2837
   71MOL   C15933899   0.201   3.236   4.000 -0.5242 -0.7075 -0.1307
   71MOL   C16033900   0.078   3.245   3.937  0.3696 -0.0699 -0.6025
   71MOL   O16133901   0.447   3.215   3.966  0.3370  0.1100 -0.0211
   71MOL   H16233902   0.024   3.761   3.834 -2.6980  0.3101  0.8766
   71MOL   H16333903   0.045   3.527   3.862 -1.0597  1.7784  1.1149
   71MOL   H16433904   8.217   3.446   3.528 -0.5242  0.8357  0.1397
   71MOL   H16533905   8.191   3.692   3.495 -0.6016 -0.1095  0.9988
   71MOL   H16633906   0.168   3.275   3.610  1.4861  0.6674 -0.4190
   71MOL   H16733907   0.383   3.232   3.702  0.2071 -0.2967  0.7020
   71MOL   H16833908   0.219   3.241   4.107  1.9690  0.8123 -0.5853
   71MOL   H16933909   8.412   3.257   3.994  0.6105 -2.1936  0.2638
   71MOL   C17033910   0.502   3.110   4.170  0.1224  0.2512  0.3149
   71MOL   C17133911   0.521   2.994   4.245 -0.1323 -0.3932  0.3604
   71MOL   C17233912   0.512   2.867   4.181 -0.3498  0.7542  0.0340
   71MOL   C17333913   0.473   2.853   4.048  0.4091 -0.5790  0.1587
   71MOL   C17433914   0.466   2.972   3.968 -0.2760 -0.1962  0.2806
   71MOL   C17533915   0.469   3.097   4.033  0.3423 -0.1879 -0.3849
   71MOL   S17633916   0.525   2.714   4.279 -0.0290 -0.0077 -0.6701
   71MOL   O17733917   0.633   2.732   4.375 -0.1644  0.1963 -0.4158
   71MOL   O17833918   0.521   2.601   4.183 -0.4546 -0.0435 -0.8683
   71MOL   C17933919   0.382   2.703   4.378  0.4859 -0.3188 -0.1168
   71MOL   C18033920   0.263   2.755   4.324  0.1507  0.2401  0.0023
   71MOL   C18133921   0.151   2.752   4.405  0.3918  0.4975  0.3416
   71MOL   C18233922   0.148   2.693   4.532 -0.4036  0.5262  0.0393
   71MOL   C18333923   0.268   2.645   4.583  0.8208  0.3199 -0.8695
   71MOL   C18433924   0.387   2.648   4.507  0.1712 -0.3025  0.2171
   71MOL   O18533925   0.032   2.686   4.604  0.7641  0.4669  0.0119
   71MOL   H18633926   0.514   3.209   4.213  1.3535  0.1528  0.1911
   71MOL   H18733927   0.525   2.996   4.353 -1.1590  0.4341  0.3945
   71MOL   H18833928   0.457   2.756   4.002  0.2034 -0.6813  0.4464
   71MOL   H18933929   0.437   2.959   3.865 -0.9137  2.3114  0.1104
   71MOL   H19033930   0.261   2.795   4.224 -2.8443  1.1746  0.3838
   71MOL   H19133931   0.057   2.796   4.376 -0.0047  0.4072  1.4738
   71MOL   H19233932   0.266   2.597   4.680  0.3034 -2.3070 -2.1360
   71MOL   H19333933   0.473   2.593   4.540  0.5464  0.0325 -0.1946
   71MOL   C19433934   0.115   2.838   4.781 -0.3177  0.2318  0.2478
   71MOL   C19533935   0.089   2.890   4.905 -0.2762 -0.4312  0.4886
   71MOL   C19633936   8.389   2.878   4.969 -0.1274 -0.2235  0.5083
   71MOL   C19733937   8.291   2.804   4.908 -0.3234 -0.0154 -0.3268
   71MOL   C19833938   8.312   2.745   4.781 -0.4751  0.1357  0.0028
   71MOL   C19933939   0.013   2.761   4.718  0.7138  0.0087  0.5153
   71MOL   S20033940   8.352   2.964   5.124  0.0611  0.2072 -0.1568
   71MOL   O20133941   8.257   2.876   5.200  0.0657  0.1104 -0.6337
   71MOL   O20233942   8.306   3.102   5.091  0.5495  0.3988  0.2934
   71MOL   C20333943   0.086   2.991   5.207  0.4104 -0.6221 -0.4972
   71MOL   C20433944   0.160   2.886   5.269 -0.0040  0.0140  0.0616
   71MOL   C20533945   0.279   2.913   5.336 -0.6615  0.6689  0.6941
   71MOL   C20633946   0.331   3.048   5.330  0.1328  0.1993  0.4270
   71MOL   C20733947   0.263   3.150   5.257 -0.5267 -0.0224  0.5893
   71MOL   C20833948   0.137   3.119   5.200  0.6841 -0.2333  0.3217
   71MOL   O20933949   0.448   3.070   5.396 -0.2476  0.2372 -0.8299
   71MOL   H21033950   0.212   2.867   4.743 -0.3166  0.2668  0.2770
   71MOL   H21133951   0.175   2.932   4.956  1.9085 -0.8732 -2.6518
   71MOL   H21233952   8.198   2.790   4.960  0.3143  1.7797  1.3642
   71MOL   H21333953   8.242   2.685   4.724  0.4529 -1.1714  0.2190
   71MOL   H21433954   0.121   2.785   5.268  1.7447 -0.6516 -0.9641
   71MOL   H21533955   0.328   2.839   5.397  0.0195  1.0190  0.5748
   71MOL   H21633956   0.303   3.250   5.254  0.8667 -0.6136 -2.1313
   71MOL   H21733957   0.087   3.202   5.151  0.2154 -0.8589 -0.2758
   71MOL   C21833958   0.691   3.083   5.393  0.6410 -0.0016  0.7348
   71MOL   C21933959   0.816   3.079   5.326 -0.3198  0.0734 -0.6410
   71MOL   C22033960   0.816   3.040   5.193 -0.2758  0.6308  0.1800
   71MOL   C22133961   0.704   2.980   5.141 -0.7773 -0.1562  0.7188
   71MOL   C22233962   0.575   3.003   5.193 -0.5607  0.3788  1.0717
   71MOL   C22333963   0.568   3.055   5.326 -0.6603 -0.2690 -0.0952
   71MOL   S22433964   0.968   3.046   5.098  0.2222 -0.0179  0.1330
   71MOL   O22533965   0.950   2.975   4.971 -0.1045 -0.2782  0.4715
   71MOL   O22633966   1.074   3.007   5.192  0.1225 -0.3271 -0.7121
   71MOL   C22733967   0.992   3.224   5.063 -0.0195 -0.0152 -0.5704
   71MOL   C22833968   0.912   3.289   4.963  0.0304  0.5195  0.7877
   71MOL   C22933969   0.915   3.427   4.954 -0.6264  0.2437  0.8773
   71MOL   C23033970   1.004   3.502   5.031  0.2435 -0.0243 -0.6031
   71MOL   C23133971   1.094   3.438   5.125 -0.5092  0.2559  0.9073
   71MOL   C23233972   1.090   3.301   5.139 -0.9966 -0.2704  0.6404
   71MOL   O23333973   1.004   3.640   5.029 -0.1404  0.4409  0.4868
   71MOL   H23433974   0.694   3.121   5.494  1.3965  0.5208  0.5241
   71MOL   H23533975   0.906   3.103   5.380 -0.1803 -2.1213  0.1436
   71MOL   H23633976   0.712   2.936   5.043 -0.3366  3.4106 -0.9653
   71MOL   H23733977   0.485   2.955   5.156 -1.9880  2.5413  1.6806
   71MOL   H23833978   0.854   3.229   4.894 -1.2638 -1.0718  3.1768
   71MOL   H23933979   0.847   3.474   4.885 -1.9278 -1.4454  0.9724
   71MOL   H24033980   1.164   3.494   5.184  0.6004  0.3859 -0.5004
   71MOL   H24133981   1.153   3.238   5.201  1.1638 -0.1970 -1.3820
   71MOL   C24233982   0.944   3.766   4.835  0.0023 -0.0889  0.5829
   71MOL   C24333983   0.989   3.827   4.715  0.3261 -0.3875  0.2428
   71MOL   C24433984   1.121   3.810   4.669  0.5152  0.2553  0.7121
   71MOL   C24533985   1.210   3.730   4.736 -0.7769  0.7175 -0.7282
   71MOL   C24633986   1.169   3.676   4.862 -0.2268 -0.0144  0.2714
   71MOL   C24733987   1.037   3.696   4.910  0.0495 -0.3373  1.1802
   71MOL   S24833988   1.166   3.893   4.512 -0.0381  0.0187 -0.4766
   71MOL   O24933989   1.314   3.906   4.512  0.4762  0.0396  0.1352
   71MOL   O25033990   1.085   4.016   4.508 -0.5897 -0.0639 -0.0065
   71MOL   C25133991   1.112   3.799   4.370 -0.0310 -0.5003  0.5838
   71MOL   C25233992   1.094   3.880   4.250  0.2081  0.0566 -0.2539
   71MOL   C25333993   1.053   3.810   4.134  0.4694 -0.0921 -0.4821
   71MOL   C25433994   1.021   3.672   4.137  0.0564 -0.2569 -0.8801
   71MOL   C25533995   1.048   3.596   4.249  0.6152 -0.0446 -0.3096
   71MOL   C25633996   1.094   3.658   4.371 -0.0532  0.2417 -0.3994
   71MOL   O25733997   0.978   3.600   4.027  0.3910 -0.1746 -0.3822
   71MOL   H25833998   0.847   3.787   4.879  0.3362 -0.4650  1.5126
   71MOL   H25933999   0.912   3.884   4.666  1.5952  0.2607 -1.0516
   71MOL   H26034000   1.311   3.717   4.699 -0.8062  0.8697 -0.8639
   71MOL   H26134001   1.240   3.611   4.911 -0.1105  0.3650  0.6045
   71MOL   H26234002   1.114   3.986   4.246  1.2943 -0.1005  0.6243
   71MOL   H26334003   1.048   3.855   4.035  1.8840  0.5741 -0.2577
   71MOL   H26434004   1.038   3.489   4.256 -1.7712  0.1466 -0.1804
   71MOL   H26534005   1.108   3.597   4.459 -0.6359  0.3896 -0.2040
   71MOL   C26634006   0.988   3.715   3.819 -1.1142 -0.5584  0.3204
   71MOL   C26734007   1.044   3.722   3.693  0.0903 -0.1489 -0.4627
   71MOL   C26834008   1.144   3.630   3.650 -0.4866 -0.2621  0.4546
   71MOL   C26934009   1.194   3.536   3.740  0.4454  0.3690 -0.4405
   71MOL   C27034010   1.145   3.531   3.866 -0.2211 -0.2537  0.4021
   71MOL   C27134011   1.036   3.615   3.908 -0.1255 -0.1380  0.1428
   71MOL   S27234012   1.211   3.638   3.481 -0.6459  0.0552  0.0594
   71MOL   O27334013   1.354   3.611   3.483 -0.4516  0.0063 -0.2408
   71MOL   O27434014   1.159   3.765   3.420 -0.1187 -0.0920  1.1194
   71MOL   C27534015   1.137   3.499   3.392  0.1177  0.1019 -0.0629
   71MOL   C27634016   1.037   3.529   3.297  0.3259  0.1093 -0.7915
   71MOL   C27734017   0.970   3.422   3.237 -0.2780 -0.4978  0.2137
   71MOL   C27834018   0.988   3.295   3.286 -0.0538 -0.2328 -0.8184
   71MOL   C27934019   1.078   3.270   3.387 -0.1215 -0.1723  0.2869
   71MOL   C28034020   1.156   3.369   3.445 -0.2820 -0.6629 -0.3055
   71MOL   O28134021   0.913   3.197   3.221 -0.0030  0.2490  0.4092
   71MOL   H28234022   0.901   3.775   3.841  0.8270  1.9538  1.3749
   71MOL   H28334023   1.011   3.791   3.616 -0.3259 -0.1682 -0.3063
   71MOL   H28434024   1.279   3.474   3.715 -0.7471 -1.4421 -0.0856
   71MOL   H28534025   1.182   3.468   3.946 -0.1185  0.8425  1.2276
   71MOL   H28634026   1.011   3.631   3.270 -0.7559  0.0641  0.0449
   71MOL   H28734027   0.894   3.437   3.162 -1.1997  2.0583  1.5810
   71MOL   H28834028   1.092   3.167   3.416 -1.5066 -0.2563  0.6661
   71MOL   H28934029   1.226   3.356   3.526 -0.3192  0.3845 -0.0986
   71MOL   C29034030   0.948   2.961   3.219  0.1526  0.9172 -0.0132
   71MOL   C29134031   1.018   2.855   3.169  0.0084  0.0296  0.5032
   71MOL   C29234032   1.122   2.875   3.078 -0.3190 -0.0649  0.2370
   71MOL   C29334033   1.154   3.003   3.035 -0.6116  0.1893  0.3518
   71MOL   C29434034   1.077   3.111   3.071 -0.2818  0.1167 -0.4268
   71MOL   C29534035   0.977   3.088   3.170 -0.2039  0.7585 -0.2342
   71MOL   S29634036   1.198   2.737   2.987  0.0777  0.0386 -0.0115
   71MOL   O29734037   1.329   2.775   2.932 -0.3017 -0.0979 -0.7892
   71MOL   O29834038   1.101   2.684   2.893  0.3451  0.3073 -0.2884
   71MOL   C29934039   1.225   2.610   3.112 -0.4759 -0.7948  0.5629
   71MOL   C30034040   1.257   2.638   3.249 -0.6047  0.4481  0.5734
   71MOL   C30134041   1.269   2.533   3.337  0.1960  0.1167  0.3523
   71MOL   C30234042   1.251   2.400   3.292 -1.0133 -0.0985 -0.1849
   71MOL   C30334043   1.233   2.373   3.154  0.0355  0.0991 -0.8132
   71MOL   C30434044   1.216   2.478   3.064  0.0907  0.0337  0.2631
   71MOL   O30534045   1.263   2.297   3.382 -0.2524 -0.2497 -0.0515
   71MOL   H30634046   0.865   2.954   3.288 -0.3812  0.2342 -0.7213
   71MOL   H30734047   0.997   2.756   3.207  0.7058  0.5055  2.1746
   71MOL   H30834048   1.242   3.007   2.972 -0.0624 -2.7127  0.8390
   71MOL   H30934049   1.098   3.214   3.046  1.3905 -0.6699 -2.4802
   71MOL   H31034050   1.266   2.737   3.291  1.0655  0.2143  0.7870
   71MOL   H31134051   1.288   2.552   3.442 -0.8434 -2.8867  1.1243
   71MOL   H31234052   1.224   2.273   3.115  1.5135  0.0726 -1.0886
   71MOL   H31334053   1.204   2.448   2.961 -0.2086  0.1452  0.2655
   71MOL   C31434054   1.116   2.113   3.408 -0.3639  0.1064  0.2184
   71MOL   C31534055   0.996   2.053   3.448 -0.2607 -0.3168  0.3371
   71MOL   C31634056   0.919   2.130   3.537 -0.0134 -0.0754 -0.1418
   71MOL   C31734057   0.949   2.260   3.582  1.2161 -0.2464  0.6169
   71MOL   C31834058   1.066   2.315   3.522 -0.1353  0.2295 -0.2325
   71MOL   C31934059   1.154   2.243   3.440  0.0805  0.0237  0.4861
   71MOL   S32034060   0.763   2.061   3.599 -0.0377 -0.3398  0.0194
   71MOL   O32134061   0.705   2.006   3.477 -0.6800  0.3652  0.1240
   71MOL   O32234062   0.690   2.167   3.678 -0.6809  0.1284  0.0316
   71MOL   C32334063   0.800   1.927   3.714 -0.1043 -0.1532 -0.4833
   71MOL   C32434064   0.918   1.853   3.716 -0.3087 -0.8023  0.6342
   71MOL   C32534065   0.936   1.736   3.803 -0.0399 -0.9057 -0.1285
   71MOL   C32634066   0.829   1.702   3.892  0.8514  0.1928 -0.2802
   71MOL   C32734067   0.706   1.778   3.884  0.2261 -0.0368  0.0340
   71MOL   C32834068   0.692   1.887   3.799  0.2428 -0.2176 -0.0546
   71MOL   O32934069   0.852   1.601   3.988  0.2808  0.3422 -0.8919
   71MOL   H33034070   1.191   2.060   3.351 -1.0859 -0.7805  0.0684
   71MOL   H33134071   0.971   1.950   3.427 -0.0438 -0.3728  0.3555
   71MOL   H33234072   0.885   2.319   3.645  1.1240  1.1496 -0.7417
   71MOL   H33334073   1.086   2.420   3.537  1.1261  0.0111 -0.3066
   71MOL   H33434074   0.999   1.886   3.653 -2.1178  0.9913 -0.8294
   71MOL   H33534075   1.026   1.676   3.798  1.8891  2.0271 -1.7175
   71MOL   H33634076   0.623   1.743   3.943 -0.1179 -1.8968 -1.5022
   71MOL   H33734077   0.600   1.944   3.795  1.1892  1.2443 -1.4660
   71MOL   C33834078   0.847   1.507   4.207  0.2296  0.3543 -0.2763
   71MOL   C33934079   0.829   1.528   4.347  0.1417  0.0399  0.3049
   71MOL   C34034080   0.834   1.659   4.402  0.1860 -0.3457  0.2023
   71MOL   C34134081   0.847   1.772   4.307 -0.5300  0.3608 -0.0468
   71MOL   C34234082   0.838   1.751   4.171 -0.0630 -0.4463 -0.1063
   71MOL   C34334083   0.843   1.624   4.121  0.6257 -0.0135  0.4126
   71MOL   S34434084   0.789   1.696   4.574  0.1796 -0.3037  0.0499
   71MOL   O34534085   0.647   1.652   4.589  0.3619 -0.6280 -0.3331
   71MOL   O34634086   0.831   1.837   4.593  0.4661  0.2833  0.0174
   71MOL   C34734087   0.895   1.597   4.685  0.3921 -0.4531  0.7439
   71MOL   C34834088   1.031   1.565   4.660 -0.0418  0.4435  0.0975
   71MOL   C34934089   1.096   1.473   4.749  0.2703 -0.0342 -0.4503
   71MOL   C35034090   1.038   1.422   4.866  0.0516 -0.0174  0.0997
   71MOL   C35134091   0.909   1.460   4.902 -0.5590  0.0394  0.0002
   71MOL   C35234092   0.841   1.546   4.808  0.3100 -0.2649 -0.3737
   71MOL   O35334093   1.101   1.319   4.931  0.5198  0.0690  0.0800
   71MOL   H35434094   0.859   1.413   4.157 -0.1979 -0.1500  0.5624
   71MOL   H35534095   0.820   1.446   4.416 -0.8318  0.8506  1.1590
   71MOL   H35634096   0.846   1.870   4.353  1.2245  0.4494 -0.1586
   71MOL   H35734097   0.854   1.832   4.101  0.0098  0.0803  0.5132
   71MOL   H35834098   1.077   1.599   4.569 -0.1712  1.8789  0.5518
   71MOL   H35934099   1.195   1.451   4.713  0.2421 -0.7734 -0.0770
   71MOL   H36034100   0.855   1.417   4.985  0.3729  0.8083  1.0265
   71MOL   H36134101   0.736   1.560   4.826  0.4492 -1.3302  1.4269
   71MOL   C36234102   1.145   1.128   4.787 -0.0125 -0.0202  0.5384
   71MOL   C36334103   1.132   0.990   4.750 -0.6642  0.0041  0.4169
   71MOL   C36434104   1.030   0.918   4.822  0.4202  0.8649  0.4206
   71MOL   C36534105   0.941   0.981   4.904  0.5023  0.3596 -0.1196
   71MOL   C36634106   0.969   1.111   4.950 -0.4131 -0.1358 -0.9623
   71MOL   C36734107   1.070   1.192   4.890 -0.2077 -0.8930 -0.1127
   71MOL   S36834108   1.017   0.742   4.801  0.2045  0.0342 -0.1173
   71MOL   O36934109   1.067   0.695   4.672 -0.3597  0.2434  1.0944
   71MOL   O37034110   0.879   0.694   4.834  0.0346  0.1319 -0.3933
   71MOL   C37134111   1.116   0.673   4.932 -1.0073 -0.0409 -0.2261
   71MOL   C37234112   1.168   0.754   5.030 -0.1160  0.4165 -0.1190
   71MOL   C37334113   1.239   0.700   5.138  0.1145 -0.7407 -0.5268
   71MOL   C37434114   1.255   0.560   5.150 -0.2166 -0.5196  0.3823
   71MOL   C37534115   1.198   0.478   5.049  0.1209  0.5085 -0.6670
   71MOL   C37634116   1.126   0.532   4.942  0.3980 -0.1758 -0.4866
   71MOL   O37734117   1.331   0.509   5.254  0.2043 -0.2701  0.6197
   71MOL   H37834118   1.210   1.183   4.722 -1.4878  1.3717  0.2223
   71MOL   H37934119   1.204   0.949   4.681 -0.0627  1.2161  0.3017
   71MOL   H38034120   0.862   0.918   4.942 -0.4920  2.8710  2.1512
   71MOL   H38134121   0.906   1.139   5.032 -0.1873 -0.5979 -0.6298
   71MOL   H38234122   1.154   0.860   5.037 -1.3456  0.3937 -1.9268
   71MOL   H38334123   1.268   0.771   5.213 -0.1423  0.8374 -1.8892
   71MOL   H38434124   1.195   0.371   5.058  0.6749  0.3793 -2.0293
   71MOL   H38534125   1.078   0.461   4.875  0.3382 -0.5175 -0.0806
   71MOL   C38634126   1.531   0.476   5.125 -0.0898  0.7929 -0.4485
   71MOL   C38734127   1.671   0.476   5.118  0.0679 -0.2195  0.7403
   71MOL   C38834128   1.745   0.515   5.226 -0.5557  0.1083  0.4906
   71MOL   C38934129   1.687   0.553   5.347 -0.1498 -0.0468  0.3345
   71MOL   C39034130   1.548   0.562   5.352  0.8725  0.3876 -0.3021
   71MOL   C39134131   1.466   0.520   5.243  0.4110 -0.0389  0.1512
   71MOL   S39234132   1.924   0.529   5.223  0.3050  0.0699 -0.1004
   71MOL   O39334133   1.983   0.420   5.308  0.3825 -0.7132  0.3794
   71MOL   O39434134   1.951   0.673   5.253  0.4159 -0.3634 -0.2179
   71MOL   C39534135   1.979   0.499   5.057 -0.2583 -0.4824  0.0392
   71MOL   C39634136   1.986   0.612   4.969 -0.7044  0.2770 -1.0086
   71MOL   C39734137   2.041   0.612   4.840 -0.3614  0.0498  0.0898
   71MOL   C39834138   2.081   0.483   4.791  0.8819 -0.2111  1.0799
   71MOL   C39934139   2.075   0.379   4.883 -0.3311  0.5409  0.0865
   71MOL   C40034140   2.029   0.379   5.014  0.1527 -0.4331  0.1946
   71MOL   O40134141   2.125   0.469   4.662  0.0237  0.5795 -0.6803
   71MOL   H40234142   1.471   0.442   5.042  2.2609 -2.2352 -1.0091
   71MOL   H40334143   1.717   0.457   5.023 -0.9705 -2.0080  0.5716
   71MOL   H40434144   1.754   0.579   5.428  0.7973 -3.4463  0.7356
   71MOL   H40534145   1.505   0.598   5.445  2.6135  4.3700 -0.9712
   71MOL   H40634146   1.959   0.705   5.017  3.3522 -0.2924  2.6728
   71MOL   H40734147   2.035   0.705   4.786 -2.1151  0.0363  0.2611
   71MOL   H40834148   2.111   0.282   4.850 -0.5795  0.4087  0.2096
   71MOL   H40934149   2.028   0.296   5.083 -1.0833  0.5345  1.3747
   71MOL   C41034150   2.250   0.634   4.546  0.5409  0.1997  0.5004
   71MOL   C41134151   2.378   0.675   4.509 -0.3002  0.5980 -0.6012
   71MOL   C41234152   2.493   0.610   4.553 -0.7282  0.6216  0.5970
   71MOL   C41334153   2.486   0.499   4.641  0.5194 -0.0638 -0.1759
   71MOL   C41434154   2.358   0.447   4.669  0.9363  1.0074  0.2866
   71MOL   C41534155   2.248   0.516   4.627  0.5493  0.1178  0.0133
   71MOL   S41634156   2.647   0.694   4.517  0.0129 -0.0276 -0.2904
   71MOL   O41734157   2.645   0.833   4.568 -0.9056 -0.0849  0.0220
   71MOL   O41834158   2.672   0.673   4.369  0.2341 -0.2886 -0.7738
   71MOL   C41934159   2.774   0.608   4.603 -0.7109 -0.5543 -1.1097
   71MOL   C42034160   2.883   0.560   4.528  0.4533  0.3344 -1.0507
   71MOL   C42134161   2.997   0.506   4.602 -0.2087 -0.8798  0.5235
   71MOL   C42234162   2.999   0.498   4.738 -0.2312 -0.5625 -0.4684
   71MOL   C42334163   2.888   0.543   4.814  0.0853  0.4469 -0.1771
   71MOL   C42434164   2.779   0.597   4.744 -0.2986  0.2390 -0.4680
   71MOL   O42534165   3.109   0.442   4.799 -0.3701  1.1046 -0.2113
   71MOL   H42634166   2.158   0.681   4.513  0.9886 -1.0136 -2.6801
   71MOL   H42734167   2.389   0.758   4.440  0.2837  0.5633 -0.5514
   71MOL   H42834168   2.573   0.444   4.673 -0.9956 -1.3602  1.9346
   71MOL   H42934169   2.350   0.355   4.725 -1.5346  0.7535 -0.4463
   71MOL   H43034170   2.891   0.560   4.420  1.6811  1.4132 -0.9725
   71MOL   H43134171   3.083   0.482   4.541  0.9538  2.0067  0.9136
   71MOL   H43234172   2.891   0.530   4.921  0.8914  1.4920 -0.0659
   71MOL   H43334173   2.710   0.659   4.799  1.0015  0.1827  1.2544
   71MOL   C43434174   3.227   0.483   5.008 -0.0057 -0.6188 -0.4912
   71MOL   C43534175   3.317   0.570   5.078 -0.5503  0.6606 -0.1069
   71MOL   C43634176   3.347   0.694   5.022  0.8331 -0.6399 -0.2537
   71MOL   C43734177   3.302   0.729   4.896 -0.2317  0.7715  0.5141
   71MOL   C43834178   3.222   0.636   4.822  0.0470 -0.3741  0.2505
   71MOL   C43934179   3.175   0.524   4.881  0.5093 -0.1289  0.5178
   71MOL   S44034180   3.460   0.813   5.100 -0.1933  0.2644  0.1889
   71MOL   O44134181   3.383   0.928   5.128 -0.0047 -0.3684 -0.3889
   71MOL   O44234182   3.571   0.818   5.007  0.0723  0.3021 -0.3478
   71MOL   C44334183   3.520   0.743   5.255 -0.3481 -0.1587  0.5271
   71MOL   C44434184   3.467   0.797   5.374  0.2657  0.0096 -0.6142
   71MOL   C44534185   3.497   0.744   5.501  0.4815 -0.0618  0.0552
   71MOL   C44634186   3.580   0.628   5.503  0.2930  0.2097 -0.0894
   71MOL   C44734187   3.629   0.569   5.388 -0.4158  0.1811 -0.0451
   71MOL   C44834188   3.599   0.625   5.263  0.7580 -0.0725  1.0240
   71MOL   O44934189   3.610   0.565   5.618 -0.2152  0.9044 -0.5231
   71MOL   H45034190   3.196   0.391   5.054 -1.9349  0.4734  0.4790
   71MOL   H45134191   3.358   0.554   5.177 -0.7971  2.3923  0.2852
   71MOL   H45234192   3.333   0.817   4.842  0.6667 -0.4762 -1.0915
   71MOL   H45334193   3.205   0.661   4.718 -1.7735 -1.1656  0.3281
   71MOL   H45434194   3.406   0.886   5.379  1.5481  0.9320 -1.0863
   71MOL   H45534195   3.463   0.789   5.593 -2.6643 -1.5250 -0.3152
   71MOL   H45634196   3.693   0.482   5.392 -3.0230 -1.9778 -2.8519
   71MOL   H45734197   3.631   0.579   5.171 -1.3677 -0.3776  0.3915
   71MOL   C45834198   3.525   0.477   5.820  0.2296 -0.1447 -1.0105
   71MOL   C45934199   3.426   0.414   5.895  0.2392 -0.0880  0.8592
   71MOL   C46034200   3.305   0.362   5.835 -1.3137  0.2469 -1.2376
   71MOL   C46134201   3.287   0.375   5.697  0.1169  0.3965 -0.1852
   71MOL   C46234202   3.391   0.438   5.618  0.0286 -0.2302  0.0088
   71MOL   C46334203   3.507   0.499   5.684  0.0416 -0.3894 -0.1108
   71MOL   S46434204   3.176   0.277   5.925 -0.2044  0.1877  0.3366
   71MOL   O46534205   3.213   0.132   5.942  0.3513  0.5414 -0.3073
   71MOL   O46634206   3.050   0.314   5.862 -0.1718 -0.0556 -0.2162
   71MOL   C46734207   3.183   0.347   6.089  0.2856  0.3380 -0.5214
   71MOL   C46834208   3.279   0.302   6.176  0.3462 -0.4515  0.5870
   71MOL   C46934209   3.297   0.354   6.303 -0.5165 -0.3101  0.2508
   71MOL   C47034210   3.220   0.462   6.335  0.5161  0.5894 -0.2124
   71MOL   C47134211   3.122   0.524   6.256  0.0975 -0.0011 -0.3068
   71MOL   C47234212   3.104   0.460   6.130 -0.0897  0.5474 -0.2310
   71MOL   O47334213   3.222   0.504   6.467 -0.2039  0.2263  0.2736
   71MOL   H47434214   3.605   0.515   5.882 -0.2145 -1.1347  0.2129
   71MOL   H47534215   3.450   0.411   6.000  1.1881  1.1416  0.6954
   71MOL   H47634216   3.202   0.334   5.646 -0.0502 -0.0195  0.4154
   71MOL   H47734217   3.379   0.440   5.511  1.5862  1.4487 -0.1568
   71MOL   H47834218   3.337   0.218   6.139 -0.0351 -0.3252 -0.3011
   71MOL   H47934219   3.371   0.308   6.367 -0.9096  0.0202  0.9484
   71MOL   H48034220   3.067   0.608   6.296  0.7107  0.0942  0.3629
   71MOL   H48134221   3.028   0.491   6.060 -0.4612  2.5377  1.0272
   71MOL   H48234222   3.195   0.592   6.490 -1.7004 -0.5499  1.5915
   72MOL     C134223   3.145   6.969   2.322  0.5510 -0.4011  1.1661
   72MOL     C234224   3.076   6.861   2.268 -0.4402 -0.0437 -0.0141
   72MOL     C334225   3.024   6.753   2.346 -0.2606 -0.0400 -0.5645
   72MOL     C434226   3.021   6.769   2.486  0.2156 -0.1577 -0.6198
   72MOL     C534227   3.078   6.893   2.543 -0.1465 -0.0199  0.2427
   72MOL     C634228   3.141   6.988   2.460 -0.0827  0.2700 -0.1731
   72MOL     S734229   2.945   6.619   2.272  0.2315 -0.0179  0.0411
   72MOL     O834230   2.968   6.498   2.354 -0.3270  0.2889 -0.7826
   72MOL     O934231   2.984   6.620   2.131  0.1338 -0.2341  0.6222
   72MOL    C1034232   2.771   6.649   2.261 -0.1954 -0.1663 -0.2413
   72MOL    C1134233   2.675   6.587   2.339 -0.2023  0.1423  0.0598
   72MOL    C1234234   2.545   6.636   2.332  0.4120 -1.2056 -0.6758
   72MOL    C1334235   2.508   6.740   2.241  0.5474  0.8785  0.4333
   72MOL    C1434236   2.607   6.807   2.165  0.0097  0.2848  0.1362
   72MOL    C1534237   2.738   6.760   2.176 -0.2002  0.2343  0.3874
   72MOL    O1634238   2.374   6.775   2.229 -0.4262  0.5314  0.1108
   72MOL    H1734239   3.184   7.052   2.264  0.5921 -1.7225 -0.7427
   72MOL    H1834240   3.056   6.866   2.162  1.2946 -2.0115 -0.4762
   72MOL    H1934241   2.974   6.699   2.554  0.7627  0.9515  0.9405
   72MOL    H2034242   3.091   6.904   2.649  2.1121 -0.2872  0.0296
   72MOL    H2134243   2.705   6.502   2.398 -1.0803 -0.3685 -0.2260
   72MOL    H2234244   2.463   6.592   2.386  0.6224 -0.6699  0.0920
   72MOL    H2334245   2.593   6.897   2.106 -0.1237 -0.4134 -0.9131
   72MOL    H2434246   2.820   6.810   2.125 -0.0303 -1.5521 -1.1449
   72MOL    H2534247   3.187   7.075   2.505 -1.1480  0.6713  0.1480
   72MOL    C2634248   2.299   6.589   2.083  0.4439  0.4315  0.0970
   72MOL    C2734249   2.239   6.547   1.961 -0.7020  0.4812 -0.6316
   72MOL    C2834250   2.181   6.643   1.872 -0.0114  0.1910  0.3667
   72MOL    C2934251   2.195   6.776   1.903 -0.6856 -0.1996  0.2289
   72MOL    C3034252   2.254   6.825   2.019 -0.3407  0.1508 -0.1171
   72MOL    C3134253   2.310   6.730   2.115 -0.0058 -0.1302 -0.7097
   72MOL    S3234254   2.095   6.582   1.723  0.1318  0.1683  0.0274
   72MOL    O3334255   2.142   6.441   1.692 -0.0233  0.1516 -0.5941
   72MOL    O3434256   2.101   6.693   1.624 -0.2283  0.0944  0.3957
   72MOL    C3534257   1.924   6.572   1.769 -0.3396 -1.0848  0.1806
   72MOL    C3634258   1.850   6.463   1.722  0.0754 -0.1569  0.0657
   72MOL    C3734259   1.712   6.465   1.735  0.0516  0.0835 -0.1635
   72MOL    C3834260   1.648   6.579   1.791  0.1143  0.1602  0.0115
   72MOL    C3934261   1.724   6.693   1.830  0.8214  0.7916 -0.0812
   72MOL    C4034262   1.868   6.686   1.822 -0.1966 -0.5658 -0.3437
   72MOL    O4134263   1.511   6.570   1.808  0.5639  0.0559  0.0301
   72MOL    H4234264   2.333   6.519   2.158  0.6968  1.8291  1.3214
   72MOL    H4334265   2.238   6.441   1.939  1.5153  0.5826 -1.3599
   72MOL    H4434266   2.162   6.840   1.823  1.8190  1.0376  0.1422
   72MOL    H4534267   2.258   6.931   2.038 -0.3281  0.1025  0.1575
   72MOL    H4634268   1.910   6.382   1.682  2.7111  1.3932  0.7225
   72MOL    H4734269   1.664   6.378   1.692 -0.1981  0.4358 -0.5987
   72MOL    H4834270   1.677   6.771   1.889 -0.0010 -0.2479  0.6695
   72MOL    H4934271   1.929   6.772   1.847 -0.9685 -0.5684  1.6557
   72MOL    C5034272   1.418   6.670   1.618  0.2918 -0.0897 -0.7911
   72MOL    C5134273   1.366   6.786   1.555  0.4478  0.2382 -0.0559
   72MOL    C5234274   1.343   6.901   1.635  0.3352  0.8973 -0.5162
   72MOL    C5334275   1.368   6.899   1.773  0.0549 -0.0642 -0.6609
   72MOL    C5434276   1.421   6.789   1.838  0.2780 -0.5415  0.1478
   72MOL    C5534277   1.447   6.675   1.758 -0.5037 -0.0141  0.5024
   72MOL    S5634278   1.275   7.050   1.554  0.1205  0.2699  0.2956
   72MOL    O5734279   1.278   7.028   1.408  0.1219  0.4143 -0.1245
   72MOL    O5834280   1.344   7.165   1.613  0.0389  0.5654 -0.3184
   72MOL    C5934281   1.106   7.069   1.599  0.6954  0.9522  0.4008
   72MOL    C6034282   1.016   6.984   1.531  0.1973 -0.2459 -0.0140
   72MOL    C6134283   0.883   6.971   1.575 -0.0796 -0.1032  0.0253
   72MOL    C6234284   0.839   7.059   1.677 -0.2168  0.4205 -0.0825
   72MOL    C6334285   0.932   7.141   1.745 -0.5872 -0.1281 -0.2027
   72MOL    C6434286   1.067   7.147   1.711 -0.2507 -0.2736  0.2500
   72MOL    O6534287   0.705   7.060   1.717 -0.3649 -0.1173  0.4703
   72MOL    H6634288   1.434   6.575   1.570  1.5172  0.1896 -0.9639
   72MOL    H6734289   1.354   6.788   1.447  1.4969 -0.7828 -0.2042
   72MOL    H6834290   1.350   6.992   1.825 -0.6192 -0.1843 -0.6816
   72MOL    H6934291   1.435   6.792   1.945 -0.5394  0.1915  0.2386
   72MOL    H7034292   1.062   6.929   1.450  0.1076  1.1629 -1.0398
   72MOL    H7134293   0.816   6.903   1.524 -0.4268 -0.2052  0.6091
   72MOL    H7234294   0.900   7.201   1.828  0.5610  0.4122 -0.1494
   72MOL    H7334295   1.139   7.212   1.758  0.9056  0.3392 -2.2977
   72MOL    C7434296   0.617   6.839   1.746  0.0783 -0.3013 -0.3155
   72MOL    C7534297   0.589   6.729   1.830  0.1405  0.2938  0.2716
   72MOL    C7634298   0.616   6.739   1.970 -0.4846 -0.1558 -0.5066
   72MOL    C7734299   0.662   6.856   2.021 -0.3389 -0.2883 -0.5120
   72MOL    C7834300   0.689   6.968   1.940  0.2151  1.0670 -0.6156
   72MOL    C7934301   0.671   6.957   1.800 -0.0602 -0.6214  0.0245
   72MOL    S8034302   0.564   6.611   2.079  0.3617  0.3119  0.1219
   72MOL    O8134303   0.658   6.493   2.059 -0.1877  0.0695 -0.4751
   72MOL    O8234304   0.420   6.590   2.055  0.3655 -0.1555 -0.1081
   72MOL    C8334305   0.570   6.665   2.252  0.1163  0.6984 -0.2010
   72MOL    C8434306   0.460   6.738   2.312 -0.1684  0.1197 -0.0299
   72MOL    C8534307   0.481   6.791   2.446 -0.9200 -0.1377 -0.3510
   72MOL    C8634308   0.609   6.781   2.508 -0.0184 -0.3511  0.5858
   72MOL    C8734309   0.710   6.705   2.447  0.2621  0.4321 -0.0912
   72MOL    C8834310   0.692   6.645   2.321  0.4908  0.0213 -0.7952
   72MOL    O8934311   0.633   6.835   2.636 -0.0914  0.0158 -0.0979
   72MOL    H9034312   0.588   6.833   1.642 -1.9768 -1.2573  0.2750
   72MOL    H9134313   0.541   6.640   1.793  1.2885 -0.2409  0.0354
   72MOL    H9234314   0.675   6.862   2.128 -0.1420 -0.6505 -0.5130
   72MOL    H9334315   0.720   7.060   1.988  0.3625  0.3951  0.5983
   72MOL    H9434316   0.369   6.751   2.255 -0.3772 -0.0665  0.2553
   72MOL    H9534317   0.390   6.833   2.485  0.2946  2.8733 -0.5754
   72MOL    H9634318   0.802   6.691   2.502 -1.5136 -2.4371  2.2804
   72MOL    H9734319   0.775   6.598   2.269  0.3934 -0.2370 -0.7206
   72MOL    C9834320   0.781   6.987   2.752 -0.2638 -0.5016  0.4078
   72MOL    C9934321   0.860   7.102   2.744  0.0978 -0.4809 -0.1078
   72MOL   C10034322   0.858   7.190   2.632 -0.6580  0.3918  0.2749
   72MOL   C10134323   0.766   7.163   2.525 -0.4979  0.1480  0.1104
   72MOL   C10234324   0.698   7.039   2.528  0.7334  0.2349 -0.2438
   72MOL   C10334325   0.698   6.953   2.639  0.8635 -0.1158  0.2066
   72MOL   S10434326   0.978   7.334   2.625  0.4012  0.0220  0.2373
   72MOL   O10534327   0.992   7.367   2.484  0.1173 -0.0225 -0.3462
   72MOL   O10634328   1.089   7.287   2.706  0.0569 -0.2297  0.8351
   72MOL   C10734329   0.899   7.474   2.693  0.5299  0.0619 -1.1989
   72MOL   C10834330   0.972   7.549   2.783 -0.0125 -0.7324 -0.4553
   72MOL   C10934331   0.906   7.658   2.844 -0.3098 -0.6042  0.1824
   72MOL   C11034332   0.770   7.686   2.806 -0.0564  0.1707 -0.0648
   72MOL   C11134333   0.699   7.615   2.706 -0.1789 -0.1261  0.5249
   72MOL   C11234334   0.763   7.503   2.649  0.9218 -0.2210 -0.3771
   72MOL   O11334335   0.706   7.798   2.855 -0.8554 -0.3357 -0.2555
   72MOL   H11434336   0.788   6.927   2.842 -2.2138 -2.4168 -0.6692
   72MOL   H11534337   0.921   7.131   2.828 -0.9984  1.5629  0.0219
   72MOL   H11634338   0.766   7.228   2.439 -1.0256  1.3351  0.9940
   72MOL   H11734339   0.642   7.024   2.436  0.7911 -2.4635  0.1119
   72MOL   H11834340   1.072   7.515   2.807  0.4082  0.7639 -0.0158
   72MOL   H11934341   0.955   7.727   2.911 -1.1599  1.1724 -0.9832
   72MOL   H12034342   0.614   7.661   2.657  0.7086  1.3339  0.3206
   72MOL   H12134343   0.712   7.447   2.572  0.4988 -0.4864  0.0924
   72MOL   C12234344   0.844   7.993   2.884  0.1322 -0.4542  0.3657
   72MOL   C12334345   0.917   8.098   2.824  0.1923 -0.1561  0.2946
   72MOL   C12434346   0.880   8.135   2.692 -0.5675  0.1694  0.4222
   72MOL   C12534347   0.780   8.067   2.622  0.3166 -0.5147 -0.2271
   72MOL   C12634348   0.724   7.949   2.676 -0.3592  0.2638  0.3887
   72MOL   C12734349   0.760   7.910   2.806  0.5214  0.1046  0.1306
   72MOL   S12834350   0.947   8.281   2.608  0.1124  0.0655  0.1064
   72MOL   O12934351   0.971   8.249   2.465  0.2405  0.2157 -0.4036
   72MOL   O13034352   1.058   8.335   2.684 -0.0621 -0.2426 -0.8093
   72MOL   C13134353   0.811   8.395   2.623 -0.6415 -0.4082 -0.1230
   72MOL   C13234354   0.724   8.407   2.510  0.1675  0.0925 -0.3392
   72MOL   C13334355   0.614   0.065   2.517  0.8125 -0.5483 -0.4435
   72MOL   C13434356   0.599   0.154   2.629  0.0437  0.7761  0.0152
   72MOL   C13534357   0.689   0.147   2.735  0.2249  0.6032 -0.3264
   72MOL   C13634358   0.796   0.055   2.731 -0.1756  0.1574  0.4174
   72MOL   O13734359   0.499   0.252   2.617 -0.5969  0.1801  0.7421
   72MOL   H13834360   0.871   7.965   2.984  1.3453 -0.1738  0.1208
   72MOL   H13934361   0.983   8.164   2.879 -0.6767  1.0929 -0.1504
   72MOL   H14034362   0.745   8.089   2.523 -0.3497  2.2170  0.5798
   72MOL   H14134363   0.660   7.887   2.615  0.7386 -0.4463 -0.0630
   72MOL   H14234364   0.738   8.345   2.423  3.0866  2.3212 -1.5403
   72MOL   H14334365   0.542   0.063   2.437  0.1667  0.2553  0.1118
   72MOL   H14434366   0.664   0.217   2.813  0.4756 -0.5579  0.8136
   72MOL   H14534367   0.863   0.049   2.815  1.3606  1.5237 -0.6760
   72MOL   C14634368   0.291   0.145   2.567  0.4203  0.5168 -0.3059
   72MOL   C14734369   0.156   0.123   2.601  0.8104 -0.1918 -0.0298
   72MOL   C14834370   0.104   0.171   2.728  0.5797 -1.2124 -0.0509
   72MOL   C14934371   0.178   0.251   2.810 -0.6616 -0.4755  0.6826
   72MOL   C15034372   0.313   0.271   2.773 -0.0985 -0.0431 -0.4608
   72MOL   C15134373   0.370   0.225   2.651  0.4659  0.1356 -0.0508
   72MOL   S15234374   8.362   0.129   2.781  0.2016  0.2103 -0.0324
   72MOL   O15334375   8.293   0.254   2.820  0.5538 -0.1127 -0.0680
   72MOL   O15434376   8.361   0.017   2.877 -0.2850  0.2907 -0.1582
   72MOL   C15534377   8.279   0.077   2.627 -1.0312 -0.1456 -0.4430
   72MOL   C15634378   8.276   8.360   2.598 -0.6315  0.1430 -0.1114
   72MOL   C15734379   8.200   8.308   2.495  0.3640 -0.3968 -0.3046
   72MOL   C15834380   8.128   8.398   2.417  0.5109  0.3160  0.4339
   72MOL   C15934381   8.125   0.112   2.442 -0.2298  0.4211  0.5452
   72MOL   C16034382   8.201   0.165   2.548  0.5120  0.1930 -0.2997
   72MOL   O16134383   8.069   8.354   2.301  0.4947  0.1208  0.5090
   72MOL   H16234384   0.314   0.113   2.467 -0.4002 -2.3931  0.3842
   72MOL   H16334385   0.097   0.061   2.535  1.7019  0.6606 -1.6454
   72MOL   H16434386   0.130   0.292   2.897 -0.8363  0.4310  0.1630
   72MOL   H16534387   0.388   0.316   2.837 -1.5594  1.0923  0.4830
   72MOL   H16634388   8.333   8.290   2.658 -0.4003  0.9759  0.6584
   72MOL   H16734389   8.192   8.202   2.475  2.7030 -0.8870  1.1915
   72MOL   H16834390   8.066   0.175   2.378 -3.1423 -1.7218  1.0234
   72MOL   H16934391   8.204   0.269   2.576  0.2027  0.9165 -2.9104
   72MOL   C17034392   7.929   8.193   2.205  0.7121 -0.1962  0.3743
   72MOL   C17134393   7.802   8.122   2.208 -0.4238  0.0358 -1.0680
   72MOL   C17234394   7.702   8.168   2.295  0.4221 -0.3864 -0.7956
   72MOL   C17334395   7.723   8.275   2.381  0.5958  0.1724 -0.5099
   72MOL   C17434396   7.851   8.333   2.391  0.2358 -0.2813  0.4269
   72MOL   C17534397   7.950   8.289   2.304  0.0911 -0.4988  0.4081
   72MOL   S17634398   7.543   8.076   2.313  0.0328 -0.2194 -0.0491
   72MOL   O17734399   7.451   8.155   2.394  0.2210 -0.0935  0.3827
   72MOL   O17834400   7.574   7.940   2.357  0.2310  0.3834 -0.1979
   72MOL   C17934401   7.485   8.071   2.143 -0.1088  0.2433 -0.1907
   72MOL   C18034402   7.489   7.952   2.076 -0.7617 -0.6722 -0.1451
   72MOL   C18134403   7.428   7.944   1.947  0.3203 -0.4241 -0.0326
   72MOL   C18234404   7.382   8.068   1.888 -0.5760  0.2662 -0.1818
   72MOL   C18334405   7.386   8.189   1.955 -0.0650  0.1010  0.3762
   72MOL   C18434406   7.427   8.188   2.093 -0.1475 -0.0396 -0.2059
   72MOL   O18534407   7.330   8.081   1.764  0.4616 -0.6198 -0.1947
   72MOL   H18634408   8.000   8.155   2.133  0.6584  0.1094  0.1587
   72MOL   H18734409   7.793   8.027   2.159  1.0096 -1.2505  1.0592
   72MOL   H18834410   7.638   8.319   2.430 -1.4419 -2.9590 -1.0800
   72MOL   H18934411   7.867   8.418   2.456  2.2935  1.1002 -1.8113
   72MOL   H19034412   7.540   7.866   2.117  0.0773 -0.5274 -0.8711
   72MOL   H19134413   7.424   7.854   1.889 -1.2250  0.7032 -1.7150
   72MOL   H19234414   7.364   8.283   1.905 -0.1976 -0.2427 -0.2130
   72MOL   H19334415   7.411   8.272   2.160 -1.1983 -0.3128 -0.1034
   72MOL   C19434416   7.387   7.904   1.608 -0.2395  0.0165 -0.5052
   72MOL   C19534417   7.453   7.877   1.491  0.3775 -0.0146 -1.1380
   72MOL   C19634418   7.538   7.976   1.431 -0.7276 -0.0044 -0.4562
   72MOL   C19734419   7.553   8.105   1.478 -0.0692  0.2843 -0.0972
   72MOL   C19834420   7.475   8.131   1.590 -0.0641  0.3266  0.1143
   72MOL   C19934421   7.402   8.035   1.655 -0.0861  0.4828 -0.0048
   72MOL   S20034422   7.629   7.918   1.283 -0.1332  0.3631  0.4183
   72MOL   O20134423   7.742   8.008   1.268  0.2809 -0.2133 -0.2870
   72MOL   O20234424   7.528   7.904   1.176 -0.6615 -0.2580 -0.0694
   72MOL   C20334425   7.703   7.757   1.327 -0.5052  0.5013 -1.6399
   72MOL   C20434426   7.650   7.638   1.286  0.2251 -0.2529 -0.3529
   72MOL   C20534427   7.714   7.515   1.312 -0.0821  0.1429 -0.5193
   72MOL   C20634428   7.833   7.510   1.382 -0.1074 -0.0372 -0.2786
   72MOL   C20734429   7.885   7.635   1.427 -0.3348 -0.2990  0.2736
   72MOL   C20834430   7.821   7.755   1.395 -0.2916 -0.6634  0.1866
   72MOL   O20934431   7.890   7.390   1.398 -0.1207  0.0063  0.0002
   72MOL   H21034432   7.317   7.832   1.649 -2.3712  1.0513 -2.2096
   72MOL   H21134433   7.444   7.781   1.443 -1.8132 -1.6029  2.1655
   72MOL   H21234434   7.613   8.181   1.431 -2.1965  0.9768 -1.7612
   72MOL   H21334435   7.480   8.235   1.620  0.9910 -0.4305  2.6962
   72MOL   H21434436   7.557   7.636   1.231 -0.1228  2.0416  0.0914
   72MOL   H21534437   7.677   7.423   1.272 -1.1283  0.3248  0.0117
   72MOL   H21634438   7.984   7.629   1.467 -0.0248  2.5644  0.0255
   72MOL   H21734439   7.867   7.852   1.408 -1.1542 -0.0102 -1.4206
   72MOL   C21834440   7.792   7.196   1.485 -0.5045 -0.1328  0.1043
   72MOL   C21934441   7.744   7.121   1.598  0.5065  0.5868  0.2480
   72MOL   C22034442   7.762   7.167   1.730 -0.5305 -0.0017  0.6034
   72MOL   C22134443   7.828   7.287   1.753 -0.1036 -0.6373 -0.1705
   72MOL   C22234444   7.878   7.360   1.645  0.0186  0.3699  0.1545
   72MOL   C22334445   7.862   7.317   1.510  0.3604  1.2342  0.1217
   72MOL   S22434446   7.696   7.084   1.875 -0.3053 -0.1271  0.3959
   72MOL   O22534447   7.635   6.962   1.817  0.1858  0.9537  0.2098
   72MOL   O22634448   7.615   7.180   1.954  0.0206  0.2059 -0.5075
   72MOL   C22734449   7.834   7.025   1.965  0.1663  0.1351  0.0201
   72MOL   C22834450   7.820   6.896   2.016  0.0366 -0.1251  0.0995
   72MOL   C22934451   7.922   6.845   2.105  0.0049 -0.4153  0.7155
   72MOL   C23034452   8.037   6.914   2.137 -0.2263 -0.6283 -0.5905
   72MOL   C23134453   8.049   7.046   2.085  0.2793 -0.1563  0.0999
   72MOL   C23234454   7.951   7.103   1.997  0.7442 -0.1541  0.1821
   72MOL   O23334455   8.134   6.861   2.211 -0.0231  0.2735 -0.3700
   72MOL   H23434456   7.773   7.170   1.382  0.0182 -2.8256  0.6428
   72MOL   H23534457   7.687   7.030   1.594 -0.3541  1.0862  0.9269
   72MOL   H23634458   7.842   7.325   1.853 -2.0248  0.1533 -0.1692
   72MOL   H23734459   7.935   7.448   1.671 -0.1356  0.8189 -1.0046
   72MOL   H23834460   7.729   6.841   1.997  0.1317 -0.2446 -0.0114
   72MOL   H23934461   7.908   6.744   2.139 -0.6382 -1.3488 -2.1935
   72MOL   H24034462   8.132   7.109   2.111 -1.6875  2.6002 -0.0690
   72MOL   H24134463   7.963   7.202   1.955 -0.0340  0.3629  1.1479
   72MOL   C24234464   8.323   6.931   2.352  0.0632  0.0801 -0.0191
   72MOL   C24334465   8.382   7.016   2.444  0.1920  0.1791  0.3311
   72MOL   C24434466   8.296   7.087   2.528  0.4522 -0.2964  0.1096
   72MOL   C24534467   8.159   7.080   2.511 -0.5005 -0.2839  0.0673
   72MOL   C24634468   8.101   7.009   2.407  0.3160  0.3220  0.5471
   72MOL   C24734469   8.188   6.933   2.318  0.1204  0.2176  0.1045
   72MOL   S24834470   8.356   7.189   2.672 -0.1374 -0.4142  0.0908
   72MOL   O24934471   8.269   7.312   2.693 -0.4695  0.2110  0.1214
   72MOL   O25034472   0.076   7.199   2.663  0.5326  0.0514  0.3834
   72MOL   C25134473   8.324   7.081   2.813 -0.1497 -0.6295  0.6349
   72MOL   C25234474   8.369   7.132   2.937  0.3133  0.1135 -0.2849
   72MOL   C25334475   8.349   7.059   3.056  0.7858 -0.6751 -0.0683
   72MOL   C25434476   8.282   6.935   3.048 -0.0190 -0.1466 -0.5890
   72MOL   C25534477   8.246   6.879   2.928  0.4398 -1.0259  0.0179
   72MOL   C25634478   8.263   6.949   2.807 -0.0995 -0.8623  0.3493
   72MOL   O25734479   8.241   6.873   3.165  0.2840 -0.0280  0.0042
   72MOL   H25834480   8.385   6.862   2.297 -1.5279 -2.1227  0.8690
   72MOL   H25934481   0.064   7.028   2.443  0.3023 -0.7853  0.4003
   72MOL   H26034482   8.097   7.135   2.579  0.4880 -0.0520  0.7861
   72MOL   H26134483   7.995   7.015   2.392  0.3350 -1.1483 -0.2848
   72MOL   H26234484   0.002   7.222   2.942 -1.2785  1.0789  1.3481
   72MOL   H26334485   8.375   7.100   3.152 -3.4998  1.5828  0.2355
   72MOL   H26434486   8.188   6.788   2.931  3.1531 -2.7899  1.1033
   72MOL   H26534487   8.240   6.916   2.707  1.6229  0.4731 -0.5235
   72MOL   C26634488   8.017   6.965   3.153 -0.2958 -0.1088 -0.1203
   72MOL   C26734489   7.896   7.007   3.218  0.2783 -0.5731 -0.5725
   72MOL   C26834490   7.897   7.036   3.354 -0.3740 -0.3015  0.1418
   72MOL   C26934491   8.015   7.001   3.429 -0.1482  0.0176 -0.0139
   72MOL   C27034492   8.122   6.943   3.364 -0.3211  0.1344  0.2402
   72MOL   C27134493   8.131   6.926   3.224 -0.2477  0.9625  0.4860
   72MOL   S27234494   7.761   7.122   3.428  0.1199  0.2325 -0.0148
   72MOL   O27334495   7.759   7.086   3.572  0.2909  0.3055  0.5498
   72MOL   O27434496   7.639   7.099   3.353 -0.1992 -0.0169 -0.1037
   72MOL   C27534497   7.796   7.296   3.415  0.0590  0.0470  0.6848
   72MOL   C27634498   7.786   7.362   3.289  0.2385  0.4410  0.9100
   72MOL   C27734499   7.821   7.500   3.280 -0.2118 -0.0200  0.1588
   72MOL   C27834500   7.858   7.566   3.398 -0.0570 -0.3574  0.5580
   72MOL   C27934501   7.868   7.498   3.520  0.2879  0.3598  0.8240
   72MOL   C28034502   7.839   7.365   3.529  1.0200  0.0653 -0.7461
   72MOL   O28134503   7.898   7.699   3.387  0.4622 -0.0496  0.1557
   72MOL   H28234504   8.026   6.957   3.046  4.4058 -2.2628  0.2830
   72MOL   H28334505   7.809   7.020   3.156 -0.2654 -2.1731 -0.1950
   72MOL   H28434506   8.014   7.008   3.537 -3.6374  2.7339 -0.1215
   72MOL   H28534507   8.204   6.909   3.426  1.5729  0.4755 -1.9833
   72MOL   H28634508   7.759   7.305   3.201 -0.1225  0.8859  0.7281
   72MOL   H28734509   7.823   7.545   3.182 -3.5962 -0.7411 -0.3092
   72MOL   H28834510   7.897   7.551   3.610  1.0841  1.5042 -0.0936
   72MOL   H28934511   7.854   7.321   3.626 -2.0487  0.6024  0.0290
   72MOL   C29034512   8.028   7.783   3.571 -1.1705  0.1000  0.7425
   72MOL   C29134513   8.157   7.819   3.626  1.0187  0.3113 -0.2703
   72MOL   C29234514   8.266   7.821   3.537 -0.6878  0.0029  0.5487
   72MOL   C29334515   8.252   7.764   3.410  0.2991 -0.3774 -0.6165
   72MOL   C29434516   8.127   7.733   3.358  0.4838  0.4758 -0.3177
   72MOL   C29534517   8.018   7.736   3.440 -0.2879 -0.6521  1.1911
   72MOL   S29634518   8.421   7.872   3.587  0.5300  0.0253  0.0021
   72MOL   O29734519   0.051   7.961   3.486  0.4738  0.7933 -0.1005
   72MOL   O29834520   0.070   7.751   3.623 -0.3279 -0.0768 -0.4136
   72MOL   C29934521   8.403   7.969   3.739  0.0258 -0.4097  0.2687
   72MOL   C30034522   8.360   7.906   3.857 -0.0191 -0.3924  0.1729
   72MOL   C30134523   8.364   7.968   3.980  0.7599 -0.2040 -0.3934
   72MOL   C30234524   8.393   8.109   3.993  0.6566  0.4777  0.1425
   72MOL   C30334525   0.001   8.175   3.871 -0.7160  0.9101  0.2861
   72MOL   C30434526   0.014   8.107   3.745  0.8927  0.0999 -0.1987
   72MOL   O30534527   8.392   8.169   4.113  0.1021 -0.0404  0.8692
   72MOL   H30634528   7.937   7.788   3.629 -2.1082  0.6943 -0.7654
   72MOL   H30734529   8.163   7.848   3.730  1.2243  1.6038 -0.6327
   72MOL   H30834530   8.343   7.774   3.353 -0.2019 -2.2567 -1.8067
   72MOL   H30934531   8.119   7.701   3.256 -0.3267 -2.1871  0.5532
   72MOL   H31034532   8.333   7.802   3.842 -6.0328  0.9878 -0.0942
   72MOL   H31134533   8.363   7.908   4.070 -0.4782  2.0003  1.0832
   72MOL   H31234534   0.026   8.279   3.854 -0.2760  0.2839 -3.2453
   72MOL   H31334535   0.053   8.156   3.657 -0.0513 -0.2913 -0.8462
   72MOL   C31434536   8.148   8.201   4.120  0.1282  0.6108  0.3139
   72MOL   C31534537   8.029   8.245   4.188 -0.5204  1.1343  0.3448
   72MOL   C31634538   8.051   8.330   4.296  0.1837 -0.5549  0.3495
   72MOL   C31734539   8.177   8.389   4.324  0.4696 -0.4890 -0.5841
   72MOL   C31834540   8.289   8.335   4.257 -0.2651 -0.7635  0.5268
   72MOL   C31934541   8.278   8.244   4.156  0.8809  0.0762  0.2625
   72MOL   S32034542   7.904   8.395   4.387 -0.2946 -0.0792  0.1597
   72MOL   O32134543   7.791   8.390   4.286  0.2611 -0.1878 -0.1405
   72MOL   O32234544   7.944   0.090   4.463 -0.1294 -0.0799 -0.0039
   72MOL   C32334545   7.855   8.276   4.510 -0.7290 -0.7225  0.6444
   72MOL   C32434546   7.717   8.267   4.540 -0.4030  0.4050  0.0699
   72MOL   C32534547   7.676   8.178   4.642  0.6933 -0.2575 -0.0601
   72MOL   C32634548   7.773   8.104   4.707 -0.6180  0.1747 -0.3839
   72MOL   C32734549   7.909   8.107   4.672 -0.3494 -0.6019  0.1095
   72MOL   C32834550   7.955   8.192   4.568 -0.6041  0.1416 -0.3168
   72MOL   O32934551   7.736   8.010   4.803  0.3387  0.0072 -0.0397
   72MOL   H33034552   8.142   8.124   4.044  1.7831  0.3057  0.4707
   72MOL   H33134553   7.930   8.210   4.165  0.2772  0.2554 -1.8699
   72MOL   H33234554   8.189   0.046   4.393  1.6117 -0.0724 -1.2736
   72MOL   H33334555   8.392   8.344   4.287  0.2283 -0.5273 -1.2390
   72MOL   H33434556   7.644   8.333   4.495 -1.6063 -2.1301 -1.8327
   72MOL   H33534557   7.571   8.165   4.665 -0.1209  0.0678 -3.3090
   72MOL   H33634558   7.981   8.048   4.727 -0.0104 -0.1755  0.1236
   72MOL   H33734559   8.059   8.195   4.538 -0.9327 -0.9316 -1.6239
   72MOL   C33834560   7.528   7.935   4.904  0.5511 -0.0210  0.2701
   72MOL   C33934561   7.400   7.886   4.897 -0.2614  0.2032 -0.7364
   72MOL   C34034562   7.363   7.818   4.777  0.3365  0.1237  0.3385
   72MOL   C34134563   7.449   7.810   4.665 -0.1906 -0.4808  0.0779
   72MOL   C34234564   7.579   7.876   4.677 -0.0449 -0.7445  0.5371
   72MOL   C34334565   7.615   7.943   4.793  0.2044 -0.2543  0.6340
   72MOL   S34434566   7.201   7.753   4.756 -0.0022 -0.4123 -0.0320
   72MOL   O34534567   7.125   7.765   4.883 -0.2677 -0.2017  0.0417
   72MOL   O34634568   7.207   7.618   4.688  0.9631  0.2974 -0.0185
   72MOL   C34734569   7.133   7.867   4.639 -0.1034 -0.1697  0.9451
   72MOL   C34834570   7.092   7.823   4.511 -1.1746 -0.2481 -0.3228
   72MOL   C34934571   7.031   7.916   4.420 -0.6075 -0.9132  0.4116
   72MOL   C35034572   7.015   8.052   4.454  0.0029 -0.0423 -0.1357
   72MOL   C35134573   7.051   8.091   4.580 -0.2143 -0.3910  0.0732
   72MOL   C35234574   7.113   8.000   4.677 -0.1548 -0.2633  0.4906
   72MOL   O35334575   6.965   8.140   4.356 -0.1168  0.4272 -0.0660
   72MOL   H35434576   7.563   7.985   4.993 -1.1293  1.6562  0.0213
   72MOL   H35534577   7.337   7.907   4.982  2.8032  0.5846  1.5022
   72MOL   H35634578   7.415   7.760   4.576 -0.9262  0.4219 -0.1541
   72MOL   H35734579   7.635   7.879   4.584  1.1298 -2.2559  1.1710
   72MOL   H35834580   7.093   7.717   4.491  0.7406  0.0193 -1.7897
   72MOL   H35934581   6.991   7.875   4.328 -0.5403 -0.1911  0.0580
   72MOL   H36034582   7.050   8.194   4.610  2.2709 -0.8447  1.8817
   72MOL   H36134583   7.141   8.040   4.773  0.8822 -0.3249  0.2104
   72MOL   C36234584   6.753   8.061   4.257  0.7858 -0.3238 -0.1992
   72MOL   C36334585   6.613   8.066   4.249  0.3545 -0.1294 -1.0174
   72MOL   C36434586   6.543   8.156   4.321 -0.2322  0.3834 -0.1605
   72MOL   C36534587   6.611   8.237   4.422 -0.4589 -0.2422  0.4579
   72MOL   C36634588   6.752   8.233   4.424  0.3842  0.7409  0.8044
   72MOL   C36734589   6.826   8.145   4.342 -0.0052  0.4558 -0.1798
   72MOL   S36834590   6.363   8.158   4.304 -0.3548  0.4848  0.0155
   72MOL   O36934591   6.307   8.033   4.358 -0.4152  0.6139 -0.6111
   72MOL   O37034592   6.331   8.191   4.161  0.1851  0.4857  0.1161
   72MOL   C37134593   6.294   8.297   4.407  0.4128 -0.3665  0.3665
   72MOL   C37234594   6.231   8.408   4.341  0.2402  0.3422  0.3845
   72MOL   C37334595   6.177   0.086   4.422 -0.4329 -0.8606  0.3450
   72MOL   C37434596   6.176   0.077   4.562  0.5651 -0.0268  0.4722
   72MOL   C37534597   6.238   8.392   4.622  0.0415 -0.0491 -0.2765
   72MOL   C37634598   6.297   8.289   4.542  0.7980 -0.2022 -0.7075
   72MOL   O37734599   6.108   0.169   4.638  0.2922  0.0114  0.4939
   72MOL   H37834600   6.821   7.998   4.203  1.2935 -0.0152  0.0779
   72MOL   H37934601   6.558   7.999   4.184  0.0344 -0.3228 -0.5587
   72MOL   H38034602   6.554   8.301   4.487  1.2001  0.3431  1.3812
   72MOL   H38134603   6.812   8.296   4.487 -1.1428  1.3064  1.7092
   72MOL   H38234604   6.240   8.417   4.234 -0.8223  2.3513  0.4507
   72MOL   H38334605   6.132   0.172   4.375  0.9312  0.8509  2.0779
   72MOL   H38434606   6.239   8.378   4.729  0.2394 -1.3984 -0.4518
   72MOL   H38534607   6.334   8.203   4.596 -2.2316  0.5925  2.8520
   72MOL   C38634608   6.306   0.278   4.733  0.3690 -0.1921 -0.6555
   72MOL   C38734609   6.368   0.338   4.846 -0.3478  0.0715  0.6181
   72MOL   C38834610   6.306   0.339   4.973 -0.2301  0.7760  0.1169
   72MOL   C38934611   6.189   0.265   4.993  1.1103 -0.4205 -0.2507
   72MOL   C39034612   6.121   0.214   4.880  0.2697 -0.1336  0.0857
   72MOL   C39134613   6.175   0.227   4.748  0.0293  0.3749 -0.0728
   72MOL   S39234614   6.389   0.416   5.112 -0.0500 -0.2476 -0.4208
   72MOL   O39334615   6.290   0.495   5.186 -0.2076  0.1071 -0.2410
   72MOL   O39434616   6.511   0.478   5.062 -0.0028  0.3041 -0.0184
   72MOL   C39534617   6.430   0.285   5.230 -0.6060 -0.2210 -0.0577
   72MOL   C39634618   6.439   0.148   5.198  0.2213 -0.7349  0.8235
   72MOL   C39734619   6.469   0.055   5.299  0.1447  0.7575 -0.1927
   72MOL   C39834620   6.493   0.098   5.427  0.3523  0.9920  0.2385
   72MOL   C39934621   6.484   0.238   5.461  0.1548  0.0250  0.2465
   72MOL   C40034622   6.456   0.329   5.357  0.3166 -0.4142 -0.3414
   72MOL   O40134623   6.546   0.007   5.517  0.4214 -0.1919 -0.0351
   72MOL   H40234624   6.354   0.284   4.636 -1.8119 -0.5665 -1.7902
   72MOL   H40334625   6.465   0.385   4.843  0.6305 -1.9781 -1.9866
   72MOL   H40434626   6.156   0.259   5.096  0.3128 -0.7960 -0.5265
   72MOL   H40534627   6.018   0.181   4.882  0.3835 -0.5214 -0.2713
   72MOL   H40634628   6.406   0.109   5.103 -1.1865  0.4299  0.8097
   72MOL   H40734629   6.477   8.377   5.270 -0.5293  0.5121  0.5065
   72MOL   H40834630   6.508   0.276   5.559  1.1742  1.3712 -0.5027
   72MOL   H40934631   6.461   0.435   5.376  1.4945 -0.4321 -0.5356
   72MOL   C41034632   6.555   8.300   5.719  0.0880 -0.3685 -0.9404
   72MOL   C41134633   6.527   8.285   5.856 -0.1424  0.2722  0.0923
   72MOL   C41234634   6.423   8.360   5.912  0.0817 -0.6083 -0.2516
   72MOL   C41334635   6.357   0.039   5.836 -1.2381 -0.1088  0.5727
   72MOL   C41434636   6.402   0.063   5.706 -0.2000 -0.2616  0.4996
   72MOL   C41534637   6.495   8.405   5.640  0.7614  0.8877  0.2902
   72MOL   S41634638   6.362   8.319   6.068 -0.4896 -0.0597  0.0147
   72MOL   O41734639   6.463   8.233   6.128 -0.3396 -0.4306 -0.8712
   72MOL   O41834640   6.224   8.275   6.053 -0.0202  0.6655 -0.0366
   72MOL   C41934641   6.348   0.050   6.156 -0.6322  0.1042  0.3012
   72MOL   C42034642   6.300   0.045   6.289 -0.5145  1.0446  0.3901
   72MOL   C42134643   6.294   0.163   6.372  0.0477  0.4377 -0.1241
   72MOL   C42234644   6.330   0.291   6.322 -0.0538  0.1989 -0.6302
   72MOL   C42334645   6.383   0.289   6.192 -0.5436 -0.7913  0.1796
   72MOL   C42434646   6.385   0.179   6.106 -0.0634  0.4290  0.1519
   72MOL   O42534647   6.347   0.398   6.401  0.0444 -0.5832  0.0377
   72MOL   H42634648   6.629   8.233   5.677  1.3131 -0.4529  1.2655
   72MOL   H42734649   6.571   8.203   5.911 -0.3587 -1.2880 -2.0020
   72MOL   H42834650   6.268   0.089   5.871 -1.0213 -0.1402  1.1714
   72MOL   H42934651   6.351   0.133   5.641  0.7610  0.4945  0.5530
   72MOL   H43034652   6.277   8.374   6.334 -2.8349  1.2792 -0.2499
   72MOL   H43134653   6.273   0.157   6.478  0.6238  1.2572  0.0409
   72MOL   H43234654   6.426   0.383   6.160  0.1733 -0.8388  0.9914
   72MOL   H43334655   6.436   0.193   6.012 -0.9673 -0.0638 -0.4280
   72MOL   C43434656   6.351   0.609   6.295  0.4720 -0.3152 -0.3595
   72MOL   C43534657   6.284   0.728   6.257 -0.1399  0.1574 -0.7619
   72MOL   C43634658   6.143   0.740   6.283 -0.2745 -0.3045 -0.1589
   72MOL   C43734659   6.071   0.645   6.355  0.4442  0.4926  0.6501
   72MOL   C43834660   6.150   0.525   6.392  1.0391  0.0875  0.2386
   72MOL   C43934661   6.284   0.508   6.363  0.5601 -0.0688  0.3685
   72MOL   S44034662   6.058   0.885   6.224 -0.2284 -0.0585 -0.1580
   72MOL   O44134663   5.914   0.845   6.223  0.0755  0.7051  0.2418
   72MOL   O44234664   6.120   0.917   6.095 -0.2860  0.2684 -0.1179
   72MOL   C44334665   6.057   1.023   6.338  0.4082  0.3620 -0.4414
   72MOL   C44434666   6.106   1.015   6.469 -0.0751  0.3327  0.0386
   72MOL   C44534667   6.117   1.138   6.536 -0.0352  0.6080 -0.8969
   72MOL   C44634668   6.062   1.257   6.476  0.2483 -0.2946 -0.0438
   72MOL   C44734669   5.993   1.256   6.357  0.2142 -0.2029 -0.2454
   72MOL   C44834670   5.988   1.138   6.286 -0.0638  0.2648 -0.1475
   72MOL   O44934671   6.085   1.379   6.540  0.1305  0.0381 -0.4749
   72MOL   H45034672   6.456   0.596   6.276  0.2884  2.2985 -3.6108
   72MOL   H45134673   6.341   0.807   6.211 -1.0776  0.1239 -2.0132
   72MOL   H45234674   5.965   0.654   6.375 -0.4013 -4.5280 -0.9848
   72MOL   H45334675   6.098   0.451   6.451 -0.2839  0.1796 -0.7815
   72MOL   H45434676   6.152   0.927   6.512 -2.0866 -1.3383 -1.1190
   72MOL   H45534677   6.174   1.139   6.627  1.1956 -2.0646 -1.5989
   72MOL   H45634678   5.947   1.345   6.317  0.9751  0.2022 -0.2373
   72MOL   H45734679   5.937   1.139   6.191 -2.0281 -0.7880  0.8756
   72MOL   C45834680   5.984   1.591   6.538 -0.1043  1.4687 -0.1018
   72MOL   C45934681   5.874   1.675   6.559 -0.0317  0.1329  0.8729
   72MOL   C46034682   5.751   1.626   6.604  0.1381  0.4469 -0.6095
   72MOL   C46134683   5.735   1.489   6.634 -0.2325  0.4995  0.4475
   72MOL   C46234684   5.848   1.407   6.610 -1.0905 -0.0631  0.0129
   72MOL   C46334685   5.973   1.452   6.563  0.2037 -0.0434 -0.3355
   72MOL   S46434686   5.618   1.740   6.652 -0.2769  0.3692 -0.2190
   72MOL   O46534687   5.583   1.815   6.532  0.1929  0.3549 -0.1506
   72MOL   O46634688   5.661   1.804   6.776 -0.1577 -0.1707  0.0063
   72MOL   C46734689   5.471   1.649   6.696 -0.1971  0.0271 -0.3054
   72MOL   C46834690   5.439   1.620   6.827 -0.0614 -0.0577  0.0160
   72MOL   C46934691   5.319   1.549   6.855 -0.3429  0.4884 -0.5012
   72MOL   C47034692   5.230   1.508   6.754 -0.0561  0.3658 -0.1235
   72MOL   C47134693   5.266   1.534   6.621  0.2911 -0.8899 -0.1773
   72MOL   C47234694   5.381   1.603   6.592 -0.1987 -0.4004  0.8073
   72MOL   O47334695   5.108   1.453   6.787 -0.5679  0.5198 -0.1013
   72MOL   H47434696   6.080   1.633   6.511 -0.7256  2.1942 -1.2047
   72MOL   H47534697   5.884   1.782   6.549  2.0770 -0.1273 -0.1661
   72MOL   H47634698   5.643   1.444   6.669 -0.3408 -2.3214 -3.1499
   72MOL   H47734699   5.837   1.303   6.636 -0.7993 -0.8349 -2.8305
   72MOL   H47834700   5.500   1.633   6.914  0.3054  1.3603 -0.4499
   72MOL   H47934701   5.310   1.519   6.959  1.1039  1.8996  0.0425
   72MOL   H48034702   5.206   1.509   6.534 -0.5295 -1.0787  0.4293
   72MOL   H48134703   5.409   1.631   6.492  1.2935 -0.4844  1.1875
   72MOL   H48234704   5.092   1.482   6.876 -0.6294 -1.5158  0.5631
   73MOL     C134705   6.030   6.837   5.743  0.1199  0.9781 -0.5561
   73MOL     C234706   6.089   6.812   5.869  0.3419 -0.0364 -0.6700
   73MOL     C334707   6.201   6.890   5.907  0.3541  0.3805 -0.4819
   73MOL     C434708   6.256   6.989   5.818 -0.9925 -0.4164 -0.3382
   73MOL     C534709   6.193   7.017   5.695 -0.1593 -0.2263 -0.1531
   73MOL     C634710   6.083   6.941   5.656 -0.2475  0.1794  0.2620
   73MOL     S734711   6.282   6.852   6.067  0.3237 -0.5774 -0.1031
   73MOL     O834712   6.184   6.766   6.141  0.2069  0.3865  0.5856
   73MOL     O934713   6.330   6.974   6.131  0.1233 -0.7071  0.0276
   73MOL    C1034714   6.413   6.737   6.029  0.0107 -0.1150  0.0995
   73MOL    C1134715   6.419   6.668   5.904  0.3605 -0.3017 -0.7741
   73MOL    C1234716   6.509   6.567   5.886 -0.5920  0.3346 -0.1766
   73MOL    C1334717   6.597   6.525   5.987  0.1925  0.0180 -0.0726
   73MOL    C1434718   6.597   6.601   6.110  0.1031 -0.9803  0.2004
   73MOL    C1534719   6.502   6.701   6.133  0.0351 -0.2845  0.5948
   73MOL    O1634720   6.672   6.415   5.981  0.3395  0.1166  0.6978
   73MOL    H1734721   5.948   6.772   5.717  0.1405  0.7975 -0.1570
   73MOL    H1834722   6.062   6.728   5.931 -0.8168  0.0170 -1.1073
   73MOL    H1934723   6.344   7.042   5.852 -2.4076  1.4385  0.5745
   73MOL    H2034724   6.227   7.105   5.640  1.9280 -0.5643  0.5387
   73MOL    H2134725   6.344   6.676   5.826 -2.0538 -3.1133  1.1204
   73MOL    H2234726   6.500   6.509   5.796  0.9009 -0.8772  0.4213
   73MOL    H2334727   6.663   6.582   6.193  1.8204  1.2368 -0.5882
   73MOL    H2434728   6.498   6.765   6.219 -1.2316 -2.0136  1.8599
   73MOL    H2534729   6.037   6.967   5.562 -0.6333  3.9838  1.4191
   73MOL    C2634730   6.709   6.266   5.787  0.3187  0.1062 -0.1152
   73MOL    C2734731   6.790   6.229   5.676 -1.0250  0.4041  1.1887
   73MOL    C2834732   6.891   6.322   5.639 -0.0082 -0.0311 -0.5501
   73MOL    C2934733   6.909   6.445   5.708  1.2258 -0.2432  0.2105
   73MOL    C3034734   6.844   6.476   5.828  0.3282  0.4384 -0.0933
   73MOL    C3134735   6.738   6.385   5.866  0.1562  0.0214 -0.1076
   73MOL    S3234736   7.011   6.288   5.505  0.4332 -0.0770  0.0248
   73MOL    O3334737   6.958   6.362   5.390 -0.1997  1.0701 -0.7262
   73MOL    O3434738   7.035   6.144   5.491  0.4314 -0.4136  0.0826
   73MOL    C3534739   7.168   6.365   5.548  0.7204  0.1922  0.5480
   73MOL    C3634740   7.187   6.500   5.531 -0.0032 -0.2051  0.0621
   73MOL    C3734741   7.297   6.568   5.589 -0.3953  0.2589  0.2604
   73MOL    C3834742   7.385   6.493   5.671  1.6410 -0.4357  0.2248
   73MOL    C3934743   7.370   6.358   5.684  0.0599  0.3769  0.3236
   73MOL    C4034744   7.262   6.294   5.620 -0.2164  0.1646 -0.8026
   73MOL    O4134745   7.478   6.563   5.748 -0.0269  0.5767  0.1258
   73MOL    H4234746   6.631   6.200   5.821  2.0374 -2.6817 -1.4942
   73MOL    H4334747   6.775   6.130   5.635 -1.5739  0.5137  1.1163
   73MOL    H4434748   6.987   6.514   5.680  3.0770 -1.4837  2.2419
   73MOL    H4534749   6.856   6.572   5.876 -0.4729  0.3357  0.3351
   73MOL    H4634750   7.119   6.543   5.459  1.3171 -0.9454 -1.6542
   73MOL    H4734751   7.302   6.675   5.575  0.9934  0.0400 -1.0324
   73MOL    H4834752   7.448   6.308   5.738  0.4282 -1.9749 -2.2749
   73MOL    H4934753   7.252   6.189   5.643 -1.2785  0.2152 -1.0258
   73MOL    C5034754   7.608   6.559   5.945 -0.1462  0.0326 -0.8211
   73MOL    C5134755   7.625   6.532   6.089 -0.2943  0.2145 -0.3313
   73MOL    C5234756   7.510   6.511   6.162 -0.0391 -0.0359 -0.8444
   73MOL    C5334757   7.385   6.495   6.101  0.1414  0.8962  0.1073
   73MOL    C5434758   7.365   6.511   5.964 -0.1348  0.0251 -0.3029
   73MOL    C5534759   7.481   6.546   5.881 -0.5677  0.5543  0.1160
   73MOL    S5634760   7.531   6.507   6.341  0.4174 -0.5405  0.2085
   73MOL    O5734761   7.663   6.545   6.382 -0.7085 -0.5644 -0.6135
   73MOL    O5834762   7.481   6.374   6.375 -0.4941 -0.5563  0.3463
   73MOL    C5934763   7.417   6.610   6.421  0.1151 -0.1337  0.0803
   73MOL    C6034764   7.370   6.577   6.546 -0.0519  0.2537  0.7982
   73MOL    C6134765   7.267   6.654   6.605 -0.1617 -0.4804  0.0171
   73MOL    C6234766   7.214   6.763   6.538 -0.0704  0.2092 -0.4830
   73MOL    C6334767   7.263   6.801   6.412  0.3679  0.1733  0.2183
   73MOL    C6434768   7.368   6.725   6.352  0.0129 -0.5238 -0.2892
   73MOL    O6534769   7.135   6.849   6.599  0.7191 -0.8601  0.2895
   73MOL    H6634770   7.697   6.573   5.885  1.3011  2.9827  1.8469
   73MOL    H6734771   7.715   6.574   6.131  0.9382 -1.3878 -1.3619
   73MOL    H6834772   7.302   6.467   6.163  0.0703  0.5649 -0.1361
   73MOL    H6934773   7.263   6.495   5.931 -0.3339  1.3792 -0.3890
   73MOL    H7034774   7.414   6.488   6.589 -3.4285 -2.0749 -0.3397
   73MOL    H7134775   7.228   6.619   6.700 -2.2669  1.8420  0.0426
   73MOL    H7234776   7.221   6.893   6.373  0.5932  0.8196  1.4691
   73MOL    H7334777   7.397   6.757   6.253  0.3205 -0.1598 -0.0841
   73MOL    C7434778   7.203   7.077   6.644  0.1679 -0.4541 -0.0763
   73MOL    C7534779   7.278   7.165   6.727  0.0915  0.4777 -0.1609
   73MOL    C7634780   7.360   7.115   6.830  0.1191 -0.4526  0.2580
   73MOL    C7734781   7.366   6.978   6.852 -0.5268  0.1955 -0.2964
   73MOL    C7834782   7.293   6.891   6.777  0.2104 -0.2357  0.4825
   73MOL    C7934783   7.205   6.938   6.672  0.7841  0.7937 -0.3041
   73MOL    S8034784   7.472   7.229   6.913 -0.0220  0.3468  0.1314
   73MOL    O8134785   7.466   7.193   7.054 -0.4894 -0.3617 -0.3406
   73MOL    O8234786   7.440   7.366   6.871 -0.6629  0.4712  0.1986
   73MOL    C8334787   7.635   7.191   6.852  0.9100 -0.7193  0.1396
   73MOL    C8434788   7.752   7.233   6.924 -0.3074 -0.6999  0.0702
   73MOL    C8534789   7.882   7.221   6.863  0.0809  0.0769 -0.0983
   73MOL    C8634790   7.888   7.176   6.735 -1.2852  0.3260 -0.1297
   73MOL    C8734791   7.772   7.133   6.666 -1.3188  0.1270 -0.1274
   73MOL    C8834792   7.643   7.141   6.719  0.0288 -0.0012  0.0596
   73MOL    O8934793   8.010   7.160   6.677  0.9115 -0.6958 -0.5082
   73MOL    H9034794   7.130   7.115   6.574 -0.5392  0.5054  1.1525
   73MOL    H9134795   7.267   7.270   6.703 -0.0140 -0.2776 -3.6482
   73MOL    H9234796   7.429   6.949   6.935 -0.4728  2.1772  0.3811
   73MOL    H9334797   7.304   6.793   6.820 -0.6175  0.2405  1.8052
   73MOL    H9434798   7.735   7.273   7.022 -1.3754  0.0155 -0.4004
   73MOL    H9534799   7.971   7.256   6.913  1.6157 -0.5167 -2.2979
   73MOL    H9634800   7.775   7.100   6.563 -3.2567 -2.7529  0.6804
   73MOL    H9734801   7.556   7.127   6.656  0.9672 -0.0035 -1.2515
   73MOL    C9834802   8.127   7.323   6.555 -0.2379 -0.8714 -1.0651
   73MOL    C9934803   8.150   7.388   6.438  0.0856 -0.5206  0.2090
   73MOL   C10034804   8.095   7.335   6.319  0.0039  0.5845  0.1556
   73MOL   C10134805   8.023   7.213   6.314 -0.2671 -0.1213 -0.6656
   73MOL   C10234806   7.994   7.160   6.442 -0.1577  1.1016  0.2278
   73MOL   C10334807   8.039   7.215   6.558 -0.0751  0.1583  0.0031
   73MOL   S10434808   8.122   7.429   6.166 -0.4443 -0.2361 -0.3653
   73MOL   O10534809   8.205   7.550   6.192 -0.1965  0.4691 -0.0650
   73MOL   O10634810   7.986   7.439   6.105 -0.1617 -0.3475 -0.0301
   73MOL   C10734811   8.219   7.321   6.059  0.9038 -0.0588  0.6407
   73MOL   C10834812   8.273   7.382   5.947  0.4731  0.0583  0.3288
   73MOL   C10934813   8.351   7.303   5.853 -0.1015 -0.1404 -0.0946
   73MOL   C11034814   8.381   7.175   5.888  0.2260  0.3077  0.3899
   73MOL   C11134815   8.330   7.120   6.010  0.2668 -0.1082  0.0155
   73MOL   C11234816   8.250   7.193   6.092 -0.9508 -0.4476  0.2209
   73MOL   O11334817   0.026   7.106   5.783  0.2148 -0.5614  0.0638
   73MOL   H11434818   8.160   7.369   6.647 -1.5024 -1.2000 -0.4263
   73MOL   H11534819   8.206   7.480   6.431  0.5579 -0.7648  0.7475
   73MOL   H11634820   7.996   7.173   6.218 -0.0769 -0.9663 -0.3762
   73MOL   H11734821   7.937   7.068   6.440 -0.1388  1.1053 -2.0732
   73MOL   H11834822   8.261   7.489   5.933  0.7537  0.5958  3.7858
   73MOL   H11934823   8.382   7.347   5.759  0.6367  2.1059  1.1804
   73MOL   H12034824   8.358   7.022   6.045 -0.8900  0.0625  1.4790
   73MOL   H12134825   8.231   7.153   6.191 -0.9609 -1.4241 -0.1723
   73MOL   C12234826   0.142   6.903   5.744  0.5110  0.1573 -0.3715
   73MOL   C12334827   0.150   6.762   5.727  0.1450  0.6295  0.0613
   73MOL   C12434828   0.031   6.691   5.746  0.4762  0.4882 -0.2631
   73MOL   C12534829   8.338   6.755   5.782  0.2078 -0.6798 -0.2896
   73MOL   C12634830   8.330   6.894   5.803  0.3909  0.2070  0.7339
   73MOL   C12734831   0.021   6.968   5.782 -0.4584  0.0958 -0.3834
   73MOL   S12834832   0.018   6.515   5.714 -0.0517 -0.0694  0.2123
   73MOL   O12934833   0.135   6.474   5.631 -0.0005 -0.0647  0.1036
   73MOL   O13034834   8.310   6.497   5.656 -0.3148  0.3281  0.5050
   73MOL   C13134835   0.041   6.429   5.869  0.1679 -0.8586 -0.1239
   73MOL   C13234836   0.074   6.493   5.988 -0.0190 -0.3860  0.2258
   73MOL   C13334837   0.099   6.414   6.102  0.8247 -0.3269 -0.1408
   73MOL   C13434838   0.083   6.270   6.099 -0.1131  0.0510 -0.1570
   73MOL   C13534839   0.036   6.217   5.981  0.0015 -0.0358 -0.3972
   73MOL   C13634840   0.020   6.293   5.867 -0.5026  0.5737  0.0842
   73MOL   O13734841   0.114   6.189   6.208 -0.1762  0.2956 -0.2096
   73MOL   H13834842   0.230   6.963   5.724  0.6358  0.2757  0.5130
   73MOL   H13934843   0.240   6.724   5.680 -0.3389 -1.3328  0.6427
   73MOL   H14034844   8.243   6.703   5.785 -0.6346  0.9338  1.8113
   73MOL   H14134845   8.240   6.942   5.838 -0.9560  0.3907 -2.8318
   73MOL   H14234846   0.083   6.601   5.989  1.4639 -0.4907 -0.4090
   73MOL   H14334847   0.129   6.450   6.199 -0.5714 -1.0466  0.5589
   73MOL   H14434848   0.011   6.112   5.974 -2.1893  0.5186 -1.2647
   73MOL   H14534849   8.400   6.251   5.778 -0.0250 -0.4767  0.3376
   73MOL   C14634850   0.199   5.978   6.113 -0.5725 -0.0554  0.0343
   73MOL   C14734851   0.187   5.842   6.097 -0.5091  0.0144 -0.6027
   73MOL   C14834852   0.083   5.774   6.159  0.0689 -0.4258  0.5549
   73MOL   C14934853   8.415   5.845   6.242  0.4843  0.1752  0.0837
   73MOL   C15034854   0.000   5.979   6.259  0.2364 -0.4482  0.5321
   73MOL   C15134855   0.107   6.048   6.191  0.1974  0.3194  0.1817
   73MOL   S15234856   0.066   5.597   6.134 -0.2427  0.3478 -0.1162
   73MOL   O15334857   0.027   5.535   6.261  0.9725  0.1965  0.1517
   73MOL   O15434858   0.191   5.533   6.080  0.2750  0.2492  0.1738
   73MOL   C15534859   8.353   5.578   6.014 -0.2618 -0.1293  0.3793
   73MOL   C15634860   8.374   5.489   5.906  0.4424  0.0701 -0.1216
   73MOL   C15734861   8.274   5.470   5.810  0.7347  0.6640 -0.2693
   73MOL   C15834862   8.152   5.546   5.811 -0.8057  0.1938  0.0338
   73MOL   C15934863   8.135   5.633   5.923  0.1006  0.1747  0.3162
   73MOL   C16034864   8.230   5.644   6.024 -0.5471 -0.7486 -0.3784
   73MOL   O16134865   8.058   5.531   5.719  0.2224  0.3825  0.2306
   73MOL   H16234866   0.275   6.030   6.055 -2.2883  0.1021 -2.1268
   73MOL   H16334867   0.252   5.781   6.037  0.4239 -0.0313  0.4226
   73MOL   H16434868   8.329   5.796   6.286  1.1235  0.3584  1.5655
   73MOL   H16534869   8.351   6.033   6.316 -0.1759 -1.4729  0.9683
   73MOL   H16634870   0.038   5.427   5.903 -0.0574 -0.6938  0.8169
   73MOL   H16734871   8.293   5.394   5.736  1.8329  2.0414 -1.4237
   73MOL   H16834872   8.036   5.673   5.937  0.7547  1.0588  2.6421
   73MOL   H16934873   8.212   5.704   6.112 -1.1188  1.7447 -2.1393
   73MOL   C17034874   7.841   5.464   5.646 -0.3922 -0.1664  0.1104
   73MOL   C17134875   7.726   5.380   5.652 -0.4012 -0.4009  0.0869
   73MOL   C17234876   7.703   5.319   5.771 -0.2367  0.9740 -0.7046
   73MOL   C17334877   7.789   5.334   5.884  0.1609 -0.3806 -0.4489
   73MOL   C17434878   7.909   5.408   5.869  0.2985 -0.2029 -0.5235
   73MOL   C17534879   7.939   5.465   5.745  0.2252  0.7294  0.2251
   73MOL   S17634880   7.538   5.243   5.792  0.2606  0.2581  0.3091
   73MOL   O17734881   7.561   5.101   5.800  0.2982 -0.0693 -0.0218
   73MOL   O17834882   7.442   5.300   5.691  0.6811  0.2450  0.4272
   73MOL   C17934883   7.488   5.298   5.955 -0.0970 -0.0026 -0.2565
   73MOL   C18034884   7.469   5.436   5.974 -0.0032  0.0317  0.4772
   73MOL   C18134885   7.419   5.474   6.098  0.9202 -0.2116  0.2553
   73MOL   C18234886   7.388   5.377   6.199 -0.2176 -0.6454 -0.4524
   73MOL   C18334887   7.422   5.240   6.188  0.0198  0.2944  0.2616
   73MOL   C18434888   7.471   5.202   6.062  0.6274 -0.1991  0.2988
   73MOL   O18534889   7.328   5.415   6.313  0.5205 -0.5509  0.3542
   73MOL   H18634890   7.868   5.528   5.564  0.2307  0.4621  0.7945
   73MOL   H18734891   7.657   5.379   5.568  0.3306  0.8444 -0.5431
   73MOL   H18834892   7.769   5.290   5.980  1.0089  0.8294  0.2945
   73MOL   H18934893   7.976   5.411   5.954  1.5570 -3.2507 -1.3186
   73MOL   H19034894   7.483   5.500   5.888 -1.2994 -0.3888 -0.0623
   73MOL   H19134895   7.397   5.578   6.113  2.4245  0.6493 -3.1070
   73MOL   H19234896   7.391   5.180   6.272  0.3227  0.2807  0.3659
   73MOL   H19334897   7.483   5.096   6.043  0.1971 -0.5930  2.2021
   73MOL   C19434898   7.164   5.272   6.413 -0.0182  0.0777  0.1660
   73MOL   C19534899   7.031   5.232   6.430  0.4161  0.6470  0.4022
   73MOL   C19634900   6.937   5.293   6.348 -0.2956  0.3094 -0.1680
   73MOL   C19734901   6.962   5.400   6.262 -1.0764 -0.1401  0.4275
   73MOL   C19834902   7.098   5.438   6.243 -0.4181  0.4062  0.8941
   73MOL   C19934903   7.198   5.378   6.322  0.0971  0.1284  0.3187
   73MOL   S20034904   6.769   5.256   6.385  0.0822  0.5871 -0.1083
   73MOL   O20134905   6.722   5.375   6.458  0.3971  0.2610 -0.0971
   73MOL   O20234906   6.762   5.128   6.448 -0.1983  0.4766  0.2105
   73MOL   C20334907   6.681   5.245   6.224  0.2852 -0.0331 -0.1966
   73MOL   C20434908   6.681   5.122   6.158  0.1456 -0.2852  0.2741
   73MOL   C20534909   6.595   5.116   6.048  0.5279  0.7997 -0.6997
   73MOL   C20634910   6.542   5.229   5.980  0.3402  0.4267 -0.4806
   73MOL   C20734911   6.561   5.353   6.046  0.6051 -0.3090  0.3130
   73MOL   C20834912   6.630   5.364   6.171 -0.4048  0.0747 -0.3468
   73MOL   O20934913   6.461   5.211   5.869 -0.3856  0.1221 -0.3777
   73MOL   H21034914   7.240   5.219   6.469 -1.0521 -0.4077  1.1370
   73MOL   H21134915   7.000   5.154   6.498 -0.1848  0.7889  0.2864
   73MOL   H21234916   6.882   5.452   6.211  0.0453  0.0834 -1.1438
   73MOL   H21334917   7.123   5.525   6.184  3.4404 -0.0995  1.6415
   73MOL   H21434918   6.719   5.034   6.207  0.5187 -0.4468 -0.3046
   73MOL   H21534919   6.557   5.020   6.014 -0.8400  0.6192  1.2530
   73MOL   H21634920   6.512   5.441   6.007  2.1334  0.8032  0.8828
   73MOL   H21734921   6.627   5.461   6.221 -2.0151 -0.8551  1.4446
   73MOL   C21834922   6.251   5.299   5.807  0.3099 -0.3572  0.0918
   73MOL   C21934923   6.109   5.308   5.825  0.3547 -0.9331 -0.3008
   73MOL   C22034924   6.050   5.229   5.930  0.2761  0.0527 -0.1836
   73MOL   C22134925   6.125   5.141   6.002 -0.2995  0.4977 -0.2485
   73MOL   C22234926   6.264   5.120   5.975  1.2219  0.3359 -0.0307
   73MOL   C22334927   6.326   5.210   5.886  0.6628  0.2618 -0.3479
   73MOL   S22434928   5.875   5.254   5.962  0.1856  0.3319  0.0684
   73MOL   O22534929   5.801   5.128   5.991 -0.0259  0.2355 -0.0158
   73MOL   O22634930   5.840   5.330   5.843  1.1824  0.3110 -0.1548
   73MOL   C22734931   5.867   5.357   6.112 -0.0403 -0.3202 -0.2806
   73MOL   C22834932   5.879   5.299   6.239  0.7052 -0.2616  0.4856
   73MOL   C22934933   5.884   5.386   6.350 -0.8582  0.2343  0.2364
   73MOL   C23034934   5.879   5.527   6.334  0.1518  0.8470  0.0099
   73MOL   C23134935   5.873   5.589   6.204 -0.0312 -0.2581  0.2143
   73MOL   C23234936   5.864   5.496   6.099  0.8570 -0.4422  0.1653
   73MOL   O23334937   5.885   5.594   6.457 -0.6961  0.2601 -0.0260
   73MOL   H23434938   6.299   5.358   5.731 -0.8325  0.1757 -0.2268
   73MOL   H23534939   6.046   5.371   5.764  0.6822 -0.5222 -0.2133
   73MOL   H23634940   6.083   5.082   6.083  1.7119  0.2970  0.6797
   73MOL   H23734941   6.324   5.042   6.018 -1.6083 -1.7254  0.2905
   73MOL   H23834942   5.892   5.192   6.247  1.4005 -0.1654  0.7201
   73MOL   H23934943   5.889   5.340   6.448 -2.6163 -0.7573 -0.1082
   73MOL   H24034944   5.875   5.697   6.204 -0.0077 -0.2564  0.6881
   73MOL   H24134945   5.871   5.528   5.996  1.6989 -1.0193  0.0323
   73MOL   C24234946   6.095   5.703   6.517 -0.0360 -0.0103  0.3201
   73MOL   C24334947   6.174   5.822   6.510 -0.0001  0.4752 -0.1279
   73MOL   C24434948   6.122   5.951   6.479 -0.8892 -0.9496 -0.0552
   73MOL   C24534949   5.983   5.959   6.451  0.8342  0.9710 -0.0829
   73MOL   C24634950   5.910   5.836   6.441 -0.1798  0.1910  0.6942
   73MOL   C24734951   5.963   5.708   6.466 -0.0579  0.4796  0.1256
   73MOL   S24834952   6.234   6.091   6.469  0.3652  0.2729 -0.2677
   73MOL   O24934953   6.151   6.205   6.432  0.2463  0.3124  0.2092
   73MOL   O25034954   6.346   6.044   6.386 -0.0811 -0.0152 -0.5592
   73MOL   C25134955   6.300   6.119   6.635  0.4360  0.1462  0.4240
   73MOL   C25234956   6.213   6.112   6.749  0.3867 -0.4371  0.6482
   73MOL   C25334957   6.259   6.147   6.874  0.1172 -0.5351 -0.0614
   73MOL   C25434958   6.396   6.182   6.891 -0.0559 -0.2383  0.4555
   73MOL   C25534959   6.485   6.183   6.778  0.7732  0.1877 -0.4812
   73MOL   C25634960   6.428   6.157   6.650 -0.3883  0.0276  0.0689
   73MOL   O25734961   6.447   6.223   7.010  0.3256  0.2492  0.2020
   73MOL   H25834962   6.148   5.610   6.528 -0.4822 -0.3818 -0.6375
   73MOL   H25934963   6.279   5.824   6.535  0.1692  1.6595 -0.8791
   73MOL   H26034964   5.933   6.054   6.448  1.7264  1.4550  0.2429
   73MOL   H26134965   5.806   5.848   6.413 -0.1615  1.3822  1.1292
   73MOL   H26234966   6.109   6.094   6.729 -0.0391  1.9119  0.6147
   73MOL   H26334967   6.187   6.151   6.954 -1.8929  0.5501 -1.8889
   73MOL   H26434968   6.590   6.206   6.783  1.0334 -1.0724 -0.0324
   73MOL   H26534969   6.489   6.169   6.562 -2.3158 -3.0081 -1.7975
   73MOL   C26634970   6.317   6.423   7.060  0.2037  0.4480  0.8343
   73MOL   C26734971   6.232   6.501   7.146  0.3240  0.2450  1.6952
   73MOL   C26834972   6.188   6.439   7.268 -0.3902  0.4565  0.8951
   73MOL   C26934973   6.248   6.318   7.302 -0.8171  0.3577 -0.3942
   73MOL   C27034974   6.337   6.244   7.219  0.1278  0.5739  0.4237
   73MOL   C27134975   6.368   6.293   7.091  0.3320  0.1376 -0.5210
   73MOL   S27234976   6.059   6.513   7.371 -0.1571 -0.3483  0.1399
   73MOL   O27334977   6.066   6.658   7.353  0.7799 -0.3789  0.0779
   73MOL   O27434978   6.056   6.456   7.505  0.9195  0.7192  0.0122
   73MOL   C27534979   5.901   6.464   7.288  0.2582  0.4736 -0.1492
   73MOL   C27634980   5.897   6.346   7.211 -0.1499 -0.4713  0.0354
   73MOL   C27734981   5.774   6.312   7.154  0.2443  0.7069  0.0170
   73MOL   C27834982   5.657   6.376   7.186  0.1781  0.2314  0.6218
   73MOL   C27934983   5.661   6.488   7.275  0.6368 -0.2946  0.1472
   73MOL   C28034984   5.785   6.534   7.317  0.2909 -0.0798 -0.0792
   73MOL   O28134985   5.537   6.322   7.139 -0.6743  0.1347 -0.3205
   73MOL   H28234986   6.347   6.475   6.970  1.3402  1.3761  1.7393
   73MOL   H28334987   6.201   6.600   7.115  2.4369 -0.2037 -2.2581
   73MOL   H28434988   6.214   6.281   7.397  0.6899 -0.0093  0.0096
   73MOL   H28534989   6.388   6.153   7.247  0.4543  0.2322 -1.2452
   73MOL   H28634990   5.980   6.285   7.179 -0.5342 -0.5878 -0.7689
   73MOL   H28734991   5.776   6.217   7.103 -0.0933  0.3461  0.6629
   73MOL   H28834992   5.566   6.524   7.314  0.7088 -0.7283  0.7290
   73MOL   H28934993   5.797   6.618   7.383 -0.7940 -0.2600  0.3762
   73MOL   C29034994   5.443   6.096   7.149 -0.6153 -0.8008 -0.3915
   73MOL   C29134995   5.381   5.997   7.228  0.1515  0.1688  0.0304
   73MOL   C29234996   5.374   6.008   7.369  0.5387 -0.4872 -0.0699
   73MOL   C29334997   5.426   6.123   7.429 -0.6445 -0.0413 -0.5797
   73MOL   C29434998   5.474   6.228   7.346 -0.5080  0.1269 -0.0233
   73MOL   C29534999   5.490   6.214   7.207  0.2615  0.2099 -0.1328
   73MOL   S29635000   5.306   5.879   7.469 -0.3075  0.0938 -0.1087
   73MOL   O29735001   5.279   5.930   7.607  0.1927  0.0236  0.1565
   73MOL   O29835002   5.384   5.754   7.451 -0.3257 -0.7209  0.1010
   73MOL   C29935003   5.143   5.840   7.390 -0.0131  0.6683 -0.0858
   73MOL   C30035004   5.144   5.766   7.270  0.3238  0.7039 -0.0076
   73MOL   C30135005   5.023   5.745   7.213 -0.7729  0.2764  0.4099
   73MOL   C30235006   4.903   5.782   7.276  0.3574  0.2240  0.4785
   73MOL   C30335007   4.904   5.851   7.394  0.0821  0.4556  0.0669
   73MOL   C30435008   5.027   5.888   7.445 -0.1004  0.4895 -0.4091
   73MOL   O30535009   4.784   5.769   7.212 -0.8574 -0.0180 -0.0650
   73MOL   H30635010   5.454   6.086   7.042  0.6933 -1.4732 -0.2038
   73MOL   H30735011   5.340   5.914   7.172 -1.0921  0.4428  0.5189
   73MOL   H30835012   5.430   6.131   7.537  4.2662  0.7445 -0.7001
   73MOL   H30935013   5.491   6.324   7.393 -0.3543  0.5621 -0.9645
   73MOL   H31035014   5.238   5.738   7.225  0.3161 -1.3444  1.1420
   73MOL   H31135015   5.022   5.709   7.112 -0.3752  1.5878 -0.0693
   73MOL   H31235016   4.810   5.876   7.440 -0.9392 -0.4725 -1.4818
   73MOL   H31335017   5.028   5.947   7.536 -1.5887 -0.2299  0.0914
   73MOL   C31435018   4.570   5.652   7.204 -0.1182 -0.0174  0.1082
   73MOL   C31535019   4.492   5.534   7.188 -0.2018  0.7107 -0.0284
   73MOL   C31635020   4.561   5.418   7.174  0.0736  0.3150  0.0701
   73MOL   C31735021   4.698   5.409   7.179  0.1826 -1.0776  0.3513
   73MOL   C31835022   4.775   5.524   7.198 -0.5592 -0.0051 -0.4941
   73MOL   C31935023   4.715   5.650   7.207  0.0616  0.9808 -0.1145
   73MOL   S32035024   4.460   5.267   7.160  0.0727 -0.0584 -0.2880
   73MOL   O32135025   4.525   5.173   7.065 -0.2611 -0.1485  0.3272
   73MOL   O32235026   4.321   5.301   7.130 -0.2693 -0.3616 -0.1800
   73MOL   C32335027   4.454   5.210   7.337 -0.0359 -0.4743  0.5318
   73MOL   C32435028   4.403   5.296   7.436 -0.0403  0.1843  0.2636
   73MOL   C32535029   4.409   5.257   7.571 -0.0302 -0.0215  0.5304
   73MOL   C32635030   4.451   5.122   7.606  0.1731  0.4406  0.1019
   73MOL   C32735031   4.494   5.034   7.506  0.7534 -0.6451 -0.4140
   73MOL   C32835032   4.501   5.079   7.372 -0.0984  0.5205  0.1856
   73MOL   O32935033   4.442   5.069   7.727 -0.0334  0.2835  0.3802
   73MOL   H33035034   4.523   5.749   7.208  1.3093  0.7700 -1.3536
   73MOL   H33135035   4.384   5.522   7.189 -0.0967 -0.2594  0.0549
   73MOL   H33235036   4.762   5.325   7.156  0.8429 -0.3844 -0.3688
   73MOL   H33335037   4.881   5.507   7.210 -1.0918 -1.9863  1.5915
   73MOL   H33435038   4.358   5.390   7.408 -3.0205 -1.3363 -0.2877
   73MOL   H33535039   4.367   5.323   7.645  1.4227 -0.6333  1.9239
   73MOL   H33635040   4.519   4.934   7.540 -0.2516  0.1782  2.8966
   73MOL   H33735041   4.528   5.011   7.292  1.5412  1.0121  0.2925
   73MOL   C33835042   4.259   4.924   7.746 -0.0695 -0.0013  0.1265
   73MOL   C33935043   4.129   4.895   7.797 -0.9592  1.0893 -0.7127
   73MOL   C34035044   4.067   4.993   7.881  0.6171 -0.4227  0.2612
   73MOL   C34135045   4.120   5.122   7.904 -0.1269  0.0503  0.1319
   73MOL   C34235046   4.248   5.148   7.851 -0.2472 -0.8982 -0.6645
   73MOL   C34335047   4.316   5.046   7.775 -0.0530  0.4241 -0.1292
   73MOL   S34435048   3.910   4.962   7.952  0.4416  0.0592  0.2501
   73MOL   O34535049   3.844   4.862   7.869  0.5418  0.8134  0.4352
   73MOL   O34635050   3.846   5.093   7.981 -0.3684 -0.2314  0.5837
   73MOL   C34735051   3.945   4.891   8.115  0.1894  0.4706  0.0654
   73MOL   C34835052   3.915   4.951   8.235  0.0287  0.0027 -0.1461
   73MOL   C34935053   3.949   4.882   8.351 -0.0160 -0.1551 -0.2968
   73MOL   C35035054   4.002   4.752   8.346 -0.1267  0.1816 -0.8474
   73MOL   C35135055   4.043   4.694   8.229 -0.3451  0.2798 -0.5259
   73MOL   C35235056   4.009   4.759   8.111  0.4324 -0.9027 -0.0205
   73MOL   O35335057   4.018   4.696   0.046  0.0731  0.0755  0.6528
   73MOL   H35435058   4.301   4.851   7.678 -2.9003  0.1768 -1.8931
   73MOL   H35535059   4.085   4.802   7.765  1.6015  0.7020 -3.3776
   73MOL   H35635060   4.067   5.187   7.972 -0.9506  0.2814 -0.7020
   73MOL   H35735061   4.297   5.241   7.876  0.3209 -1.0562 -1.1613
   73MOL   H35835062   3.870   5.049   8.238  0.0728 -0.0193  1.3984
   73MOL   H35935063   3.933   4.923   0.025  1.2512 -1.6445  0.5520
   73MOL   H36035064   4.083   4.594   8.232  0.6550  0.7011  0.4134
   73MOL   H36135065   4.036   4.714   8.017  0.9564 -0.8994  0.1303
   73MOL   C36235066   3.917   4.480   0.018 -0.8586 -0.3441 -1.2312
   73MOL   C36335067   3.812   4.393   0.030  0.6835 -0.2963 -1.1842
   73MOL   C36435068   3.703   4.434   0.113  1.0329  0.3928 -0.4318
   73MOL   C36535069   3.704   4.560   0.177 -0.5415  0.1545  0.4387
   73MOL   C36635070   3.806   4.653   0.159  0.3265  0.8245  0.1044
   73MOL   C36735071   3.913   4.611   0.075  0.0394 -0.0105  0.1571
   73MOL   S36835072   3.562   4.323   0.135  0.1245  0.1549 -0.4229
   73MOL   O36935073   3.573   4.216   0.032 -0.4525  0.2962 -0.3443
   73MOL   O37035074   3.448   4.414   0.123  0.0918  0.2766 -0.1572
   73MOL   C37135075   3.559   4.264   0.312  0.0511  0.7435 -0.3540
   73MOL   C37235076   3.492   4.140   0.331 -0.0523 -0.1305 -0.7833
   73MOL   C37335077   3.490   4.079   0.455 -0.2406 -0.3509  0.4374
   73MOL   C37435078   3.559   4.137   0.562  0.1131  0.4443  0.3298
   73MOL   C37535079   3.624   4.265   0.544  0.4622 -0.5502 -0.1957
   73MOL   C37635080   3.623   4.332   0.419  0.2460 -0.3111  0.3433
   73MOL   O37735081   3.553   4.073   0.681  0.1792 -0.5765  0.1048
   73MOL   H37835082   3.995   4.461   8.371  0.1751 -0.9222  0.0106
   73MOL   H37935083   3.810   4.298   8.403 -0.0724  1.1778 -3.9085
   73MOL   H38035084   3.621   4.587   0.241 -0.6387 -3.0459  1.7500
   73MOL   H38135085   3.805   4.751   0.203 -1.5216  0.7289  0.2873
   73MOL   H38235086   3.450   4.080   0.252  0.3550  0.5364 -1.5118
   73MOL   H38335087   3.435   3.986   0.466 -0.8524 -0.0882 -0.3346
   73MOL   H38435088   3.667   4.324   0.624  0.7715  0.4281 -1.0639
   73MOL   H38535089   3.656   4.434   0.407 -1.3075 -0.0546 -2.1898
   73MOL   C38635090   3.753   4.052   0.801 -0.1016  0.0488 -0.3368
   73MOL   C38735091   3.865   3.967   0.839 -0.0943 -0.3754 -0.4242
   73MOL   C38835092   3.868   3.833   0.801 -0.3721  0.0039  0.1105
   73MOL   C38935093   3.769   3.786   0.715 -0.0157  0.1601 -0.1974
   73MOL   C39035094   3.665   3.869   0.672  0.6921  1.2201  0.4788
   73MOL   C39135095   3.659   3.998   0.715 -0.1807 -0.1909 -0.5645
   73MOL   S39235096   3.997   3.727   0.860  0.0527 -0.2609 -0.3964
   73MOL   O39335097   4.016   3.617   0.762 -0.0422 -0.2067  0.1857
   73MOL   O39435098   3.951   3.680   0.993 -0.7745  0.3459  0.2177
   73MOL   C39535099   4.156   3.806   0.885  0.4315 -0.6010 -0.1221
   73MOL   C39635100   4.222   3.860   0.778  0.1152 -0.3759  0.4473
   73MOL   C39735101   4.342   3.929   0.794  0.5086 -0.1409  0.7548
   73MOL   C39835102   4.395   3.953   0.919  0.2771  0.0725  0.0774
   73MOL   C39935103   4.325   3.900   1.029 -0.3982 -0.2817 -0.7945
   73MOL   C40035104   4.202   3.828   1.019 -0.9314  0.9546  0.2994
   73MOL   O40135105   4.518   4.008   0.945 -0.9108 -0.1904 -0.2182
   73MOL   H40235106   3.756   4.157   0.825  2.5373 -0.1491  0.4247
   73MOL   H40335107   3.943   4.000   0.906 -1.1075  3.0803 -0.8903
   73MOL   H40435108   3.768   3.683   0.681 -0.7583  0.3355 -0.7255
   73MOL   H40535109   3.589   3.836   0.603  0.3528 -0.2867  1.5612
   73MOL   H40635110   4.176   3.851   0.681 -0.3609  0.1371  0.6234
   73MOL   H40735111   4.400   3.963   0.709  2.0651 -1.7421  1.1320
   73MOL   H40835112   4.368   3.918   1.127  0.8924 -1.4226 -1.1314
   73MOL   H40935113   4.158   3.780   1.105 -0.2024  1.4395  0.9524
   73MOL   C41035114   4.675   4.129   0.800 -0.1283 -0.1189 -0.1070
   73MOL   C41135115   4.699   4.228   0.709  0.1647  0.3663 -0.5529
   73MOL   C41235116   4.603   4.322   0.679  0.2322  0.2322  0.7984
   73MOL   C41335117   4.484   4.326   0.751  0.3644  0.2427  0.1756
   73MOL   C41435118   4.461   4.231   0.847 -0.0183 -0.4160 -0.1582
   73MOL   C41535119   4.549   4.121   0.870  0.9521  0.4572  0.1664
   73MOL   S41635120   4.640   4.455   0.566 -0.3656  0.2428 -0.2935
   73MOL   O41735121   4.546   4.424   0.456 -0.0337  0.3115  0.7075
   73MOL   O41835122   4.782   4.460   0.540 -0.3027 -0.1948  0.1277
   73MOL   C41935123   4.594   4.608   0.645 -0.0779  0.1831 -0.5844
   73MOL   C42035124   4.523   4.703   0.572 -0.9867 -0.0468  0.1955
   73MOL   C42135125   4.473   4.810   0.641  0.1062  0.0658 -0.1673
   73MOL   C42235126   4.522   4.843   0.767 -0.2090  0.3887  0.3826
   73MOL   C42335127   4.605   4.752   0.836 -0.1981  0.0357  0.2089
   73MOL   C42435128   4.638   4.632   0.777  0.3960  0.1857 -0.6022
   73MOL   O42535129   4.487   4.964   0.826 -0.1331  0.3179  0.0180
   73MOL   H42635130   4.752   4.055   0.815  0.4774 -0.2465 -3.4739
   73MOL   H42735131   4.788   4.233   0.649 -1.4183 -3.2631 -3.3920
   73MOL   H42835132   4.412   4.403   0.729 -0.5022 -0.6512 -0.1016
   73MOL   H42935133   4.364   4.238   0.894  0.7058  0.2694  1.2620
   73MOL   H43035134   4.492   4.675   0.472 -0.5440 -0.2667  0.1199
   73MOL   H43135135   4.401   4.873   0.591 -0.7229 -1.2816 -0.7091
   73MOL   H43235136   4.636   4.772   0.937  2.8275  0.1123 -0.6936
   73MOL   H43335137   4.700   4.564   0.834  0.1255 -0.1470 -0.6994
   73MOL   C43435138   4.329   4.888   0.997 -0.9143 -0.4961  0.1492
   73MOL   C43535139   4.201   4.894   1.047  0.4376  0.1635 -0.0992
   73MOL   C43635140   4.108   4.987   0.996  0.1559  0.3692  0.0396
   73MOL   C43735141   4.149   5.082   0.892 -0.5180  0.2202  0.0113
   73MOL   C43835142   4.281   5.073   0.844  0.6175  0.5386 -0.0251
   73MOL   C43935143   4.366   4.970   0.886 -0.1005  0.0977 -0.0297
   73MOL   S44035144   3.945   5.001   1.054 -0.0034 -0.1594  0.4600
   73MOL   O44135145   3.867   5.075   0.955  0.5842  0.2380 -0.2273
   73MOL   O44235146   3.938   5.044   1.196 -0.1361  0.5038  0.4355
   73MOL   C44335147   3.897   4.829   1.059 -0.2786  1.0645 -0.6241
   73MOL   C44435148   3.817   4.776   1.165  0.8034  0.1705 -0.6518
   73MOL   C44535149   3.779   4.640   1.166 -0.2978  0.4890  0.7189
   73MOL   C44635150   3.810   4.562   1.050 -0.2647  0.2695  0.2527
   73MOL   C44735151   3.888   4.613   0.943  0.5768  0.1009  0.7059
   73MOL   C44835152   3.924   4.750   0.950  0.3204  0.6406  0.1300
   73MOL   O44935153   3.763   4.435   1.040 -0.4123  1.4634 -0.0463
   73MOL   H45035154   4.399   4.820   1.042  0.3873 -0.5015 -1.8378
   73MOL   H45135155   4.185   4.836   1.137 -0.6637 -2.6324 -2.0242
   73MOL   H45235156   4.091   5.164   0.851  1.4240  2.0417  0.8287
   73MOL   H45335157   4.311   5.139   0.763 -1.6206 -0.4967 -1.7267
   73MOL   H45435158   3.781   4.845   1.240  0.2969  0.0423 -0.7749
   73MOL   H45535159   3.717   4.602   1.246 -1.6534  1.8493  0.3335
   73MOL   H45635160   3.898   4.562   0.848  0.0959  1.6131 -0.1786
   73MOL   H45735161   3.974   4.789   0.863  0.4851 -0.0328 -0.0820
   73MOL   C45835162   3.919   4.258   1.057 -0.2742  0.1658 -0.9866
   73MOL   C45935163   4.004   4.174   1.134  0.2419 -0.3636  0.6592
   73MOL   C46035164   3.982   4.160   1.266  0.0619 -0.1564 -0.3429
   73MOL   C46135165   3.886   4.237   1.335  0.5066  0.2350  1.1621
   73MOL   C46235166   3.808   4.334   1.267  0.1025 -0.8513  0.7579
   73MOL   C46335167   3.825   4.345   1.122  0.0700  0.3714 -0.0316
   73MOL   S46435168   4.061   4.036   1.373  0.4064 -0.1371  0.0839
   73MOL   O46535169   4.103   4.108   1.495  0.6655 -0.7221  0.3516
   73MOL   O46635170   4.167   3.969   1.295 -0.2453  0.6112 -0.3621
   73MOL   C46735171   3.931   3.916   1.392  0.2329 -0.3318  0.1459
   73MOL   C46835172   3.903   3.825   1.289 -0.0385  0.6223  0.5426
   73MOL   C46935173   3.813   3.723   1.308  0.0827 -0.0391 -0.3745
   73MOL   C47035174   3.741   3.722   1.425  0.4353 -0.2602  0.0364
   73MOL   C47135175   3.771   3.814   1.528  0.1048 -0.2308 -0.2843
   73MOL   C47235176   3.867   3.907   1.513 -0.0355 -0.3032 -0.3731
   73MOL   O47335177   3.644   3.628   1.446  0.4320  0.0633 -0.1880
   73MOL   H47435178   3.935   4.280   0.952 -0.4142 -1.8450 -1.4543
   73MOL   H47535179   4.082   4.116   1.088  1.1045  1.5835 -0.3830
   73MOL   H47635180   3.869   4.224   1.441 -0.3467  0.9789  1.1160
   73MOL   H47735181   3.729   4.390   1.316 -0.5816 -1.1529  0.0185
   73MOL   H47835182   3.952   3.833   1.193 -0.1361 -2.4756  0.1706
   73MOL   H47935183   3.787   3.651   1.232 -1.7786 -0.2061  0.3916
   73MOL   H48035184   3.706   3.815   1.614  0.2620  0.7589 -0.1707
   73MOL   H48135185   3.886   3.980   1.591 -2.0945  0.4893 -0.5835
   73MOL   H48235186   3.645   3.556   1.384 -0.0706 -0.2374  0.1455
   74MOL     C135187   6.355   4.378   4.555 -0.5627 -0.5865 -0.1352
   74MOL     C235188   6.332   4.319   4.428  0.3412  0.7148 -0.3408
   74MOL     C335189   6.201   4.310   4.384 -0.0436  0.1817  0.9358
   74MOL     C435190   6.090   4.357   4.457 -0.4793  0.3061  0.2128
   74MOL     C535191   6.115   4.429   4.578 -0.5546 -0.3526  0.1686
   74MOL     C635192   6.245   4.439   4.625 -0.5017  0.1250 -0.1833
   74MOL     S735193   6.167   4.230   4.229  0.4604  0.3464  0.5171
   74MOL     O835194   6.242   4.295   4.124  0.0804 -0.2487 -0.2141
   74MOL     O935195   6.021   4.216   4.204 -0.1436  0.4051 -0.3989
   74MOL    C1035196   6.226   4.057   4.236 -0.7563  0.9550  0.1689
   74MOL    C1135197   6.203   3.974   4.356  0.3760 -0.5193  0.7988
   74MOL    C1235198   6.247   3.842   4.355  0.4619 -0.6263  0.5420
   74MOL    C1335199   6.307   3.782   4.239  0.0192  0.3745 -0.9711
   74MOL    C1435200   6.334   3.861   4.128  0.7806 -0.2524  0.1719
   74MOL    C1535201   6.290   3.997   4.126  0.5744 -0.0233 -0.2150
   74MOL    O1635202   6.351   3.652   4.235 -0.4895  0.6175 -0.0509
   74MOL    H1735203   6.456   4.389   4.590 -0.0844  3.0539 -2.3047
   74MOL    H1835204   6.407   4.284   4.359 -0.2707  0.0388 -0.6685
   74MOL    H1935205   5.987   4.329   4.440 -0.0891 -0.0586 -1.7010
   74MOL    H2035206   6.035   4.469   4.638 -0.2850 -0.4842  0.6203
   74MOL    H2135207   6.160   4.018   4.445  0.3191  1.3928 -0.1491
   74MOL    H2235208   6.229   3.791   4.449 -0.4970  1.5702  1.6000
   74MOL    H2335209   6.372   3.821   4.035 -0.1550 -2.8315  0.8361
   74MOL    H2435210   6.312   4.066   4.045 -2.3114  1.0923 -0.1082
   74MOL    H2535211   6.260   4.483   4.722  0.0782 -0.9973  0.2450
   74MOL    C2635212   6.317   3.476   4.408 -0.9183 -0.3169  0.3386
   74MOL    C2735213   6.241   3.361   4.444 -0.4404  0.1363 -0.0883
   74MOL    C2835214   6.125   3.320   4.373 -0.4449 -0.0749 -0.1926
   74MOL    C2935215   6.081   3.408   4.269 -0.3194  0.1326 -0.8300
   74MOL    C3035216   6.164   3.510   4.221  0.4114 -0.3104 -0.2826
   74MOL    C3135217   6.276   3.550   4.294  0.3959  0.3452  0.1055
   74MOL    S3235218   6.037   3.173   4.427  0.6126  0.3773  0.2675
   74MOL    O3335219   5.896   3.189   4.437  0.2604  0.4008 -0.3162
   74MOL    O3435220   6.120   3.129   4.544  0.3355  0.3615 -0.0382
   74MOL    C3535221   6.079   3.072   4.278 -0.0722 -0.1982  0.2660
   74MOL    C3635222   6.198   2.999   4.271  0.0076 -1.3390 -0.0116
   74MOL    C3735223   6.231   2.923   4.160 -0.1431  0.6887 -0.3302
   74MOL    C3835224   6.135   2.900   4.059  0.1941  0.8066  0.0670
   74MOL    C3935225   6.019   2.984   4.059  0.1299 -0.4360 -0.1212
   74MOL    C4035226   5.982   3.054   4.176  0.3533 -0.1857  0.5630
   74MOL    O4135227   6.162   2.836   3.941  0.2524 -0.2729 -0.0596
   74MOL    H4235228   6.409   3.501   4.459 -0.1875 -1.2429 -0.5061
   74MOL    H4335229   6.266   3.304   4.532  0.9100 -0.1603 -0.6615
   74MOL    H4435230   5.995   3.374   4.213  0.6660 -1.8978 -1.1394
   74MOL    H4535231   6.133   3.570   4.137  1.3112 -1.4027 -1.4112
   74MOL    H4635232   6.265   3.008   4.355 -1.4218  2.1791  0.8260
   74MOL    H4735233   6.327   2.875   4.146 -0.0060  0.6572  0.7058
   74MOL    H4835234   5.950   2.983   3.976 -0.2893 -2.0591  0.2221
   74MOL    H4935235   5.887   3.103   4.174  0.7851  0.6570  0.6755
   74MOL    C5035236   5.999   2.682   3.855  0.1267 -0.3184 -0.6118
   74MOL    C5135237   5.969   2.552   3.824 -0.5482  0.3569  0.0758
   74MOL    C5235238   6.058   2.449   3.843 -0.5010  0.9125 -0.2094
   74MOL    C5335239   6.186   2.466   3.906 -1.0229  0.2579 -0.2195
   74MOL    C5435240   6.217   2.596   3.943 -0.4735  0.4598  0.2281
   74MOL    C5535241   6.127   2.703   3.920 -0.0955  0.0664  0.4643
   74MOL    S5635242   6.016   2.292   3.770  0.2327  0.4817  0.2593
   74MOL    O5735243   6.146   2.222   3.758  0.5751  0.2800 -0.0604
   74MOL    O5835244   5.929   2.312   3.649 -0.3814 -0.0898  0.3096
   74MOL    C5935245   5.911   2.215   3.896  0.6545 -0.2283 -0.3093
   74MOL    C6035246   5.779   2.259   3.901  0.3522 -0.0205  0.4994
   74MOL    C6135247   5.690   2.202   3.993  0.1796 -0.2980 -0.1774
   74MOL    C6235248   5.735   2.095   4.081 -0.2680 -0.4763  0.3414
   74MOL    C6335249   5.867   2.045   4.066 -0.2144 -0.3007  0.2549
   74MOL    C6435250   5.958   2.109   3.979  0.0250 -0.9029 -1.4353
   74MOL    O6535251   5.651   2.018   4.159 -0.4542 -0.4136 -0.4762
   74MOL    H6635252   5.934   2.766   3.838 -1.2284 -1.3285 -0.5094
   74MOL    H6735253   5.875   2.548   3.770  0.0795  2.0631 -1.1844
   74MOL    H6835254   6.266   2.394   3.907  0.7943  2.2091  1.1045
   74MOL    H6935255   6.318   2.613   3.977 -0.6626 -1.7884  2.0014
   74MOL    H7035256   5.745   2.339   3.838  0.0876 -0.8655 -0.4346
   74MOL    H7135257   5.591   2.241   4.012  0.8936  0.7944  1.4433
   74MOL    H7235258   5.898   1.965   4.131 -1.4291  0.0328  1.2643
   74MOL    H7335259   6.059   2.072   3.970  1.5083  2.4330  0.5464
   74MOL    C7435260   5.411   1.985   4.177 -0.3020 -0.0243  0.1280
   74MOL    C7535261   5.287   2.036   4.218 -0.1639 -0.2184 -0.0258
   74MOL    C7635262   5.276   2.164   4.281 -0.2331  0.2365 -0.9667
   74MOL    C7735263   5.393   2.242   4.304 -0.0584  1.0560 -0.0564
   74MOL    C7835264   5.515   2.194   4.264 -0.2130 -0.1541  0.2618
   74MOL    C7935265   5.527   2.068   4.198 -0.5270  0.0766  0.1654
   74MOL    S8035266   5.122   2.231   4.334 -0.1437 -0.2158 -0.1503
   74MOL    O8135267   5.105   2.223   4.481 -0.8139 -0.1166  0.3301
   74MOL    O8235268   5.023   2.177   4.240 -0.8064  0.4252  0.1149
   74MOL    C8335269   5.161   2.404   4.303 -0.6137 -0.1098 -0.1728
   74MOL    C8435270   5.156   2.449   4.173  0.4970  0.2066 -0.7919
   74MOL    C8535271   5.200   2.585   4.141 -0.0123 -0.2701  0.4532
   74MOL    C8635272   5.243   2.663   4.247  0.5253 -0.5462 -0.4554
   74MOL    C8735273   5.238   2.624   4.385 -0.0891 -0.2672 -0.3119
   74MOL    C8835274   5.200   2.493   4.409 -0.0217  0.2022 -0.0384
   74MOL    O8935275   5.289   2.792   4.214  0.3160  0.2169 -0.1765
   74MOL    H9035276   5.421   1.888   4.130 -0.6998 -0.5448  1.0920
   74MOL    H9135277   5.201   1.972   4.205 -0.3701 -0.5045  2.5062
   74MOL    H9235278   5.397   2.331   4.365 -2.2986  0.0031  1.7251
   74MOL    H9335279   5.604   2.248   4.290  1.0865 -2.9958  2.0287
   74MOL    H9435280   5.137   2.379   4.094  0.5796  0.5645 -1.1271
   74MOL    H9535281   5.221   2.616   4.040 -0.2535 -2.9842 -0.4845
   74MOL    H9635282   5.275   2.682   4.469 -0.5318  0.4214 -0.5868
   74MOL    H9735283   5.202   2.456   4.510 -0.9910  2.2539  0.7677
   74MOL    C9835284   5.202   2.943   4.380 -0.3738  0.0992  0.1461
   74MOL    C9935285   5.107   3.039   4.411 -0.1249 -0.3357 -0.2127
   74MOL   C10035286   5.023   3.094   4.313 -0.6935  0.6824  0.5682
   74MOL   C10135287   5.022   3.042   4.182  0.0334 -0.2303  0.2257
   74MOL   C10235288   5.126   2.946   4.147 -0.3626 -0.3847  0.0735
   74MOL   C10335289   5.208   2.893   4.248  0.9140  0.0913 -0.0061
   74MOL   S10435290   4.885   3.202   4.363 -0.2504  0.1291  0.0783
   74MOL   O10535291   4.826   3.141   4.487 -0.6395  0.7066 -0.8911
   74MOL   O10635292   4.797   3.237   4.248  0.0082 -0.3154 -0.2413
   74MOL   C10735293   4.961   3.354   4.417  0.5683 -0.4817  0.9868
   74MOL   C10835294   4.934   3.466   4.341 -0.6378 -0.3619  0.3078
   74MOL   C10935295   4.975   3.599   4.382 -0.5517  0.3517 -0.1076
   74MOL   C11035296   5.039   3.612   4.507 -0.8731  0.1355  0.4798
   74MOL   C11135297   5.057   3.502   4.581 -0.0194 -0.3964  0.0128
   74MOL   C11235298   5.035   3.372   4.537  0.5232  0.4131 -0.7285
   74MOL   O11335299   5.073   3.732   4.558  0.0152  0.3929 -0.0076
   74MOL   H11435300   5.266   2.893   4.451 -1.4620  0.0667  1.1229
   74MOL   H11535301   5.097   3.057   4.517 -0.8535 -1.1629 -0.1347
   74MOL   H11635302   4.959   3.071   4.099 -1.0077  0.2015  1.1439
   74MOL   H11735303   5.143   2.900   4.051 -0.1319 -3.7425  1.6340
   74MOL   H11835304   4.870   3.467   4.254  0.7069  1.8094 -0.6994
   74MOL   H11935305   4.959   3.693   4.332 -0.1246  1.0267  1.0027
   74MOL   H12035306   5.119   3.516   4.668 -0.0030 -1.4282  0.1767
   74MOL   H12135307   5.067   3.293   4.603 -0.4439 -0.6156 -1.4883
   74MOL   C12235308   5.114   3.956   4.487  0.0214 -0.3483 -0.0486
   74MOL   C12335309   5.186   4.043   4.402  0.3328 -0.3018  0.3609
   74MOL   C12435310   5.294   3.997   4.326 -0.2376  0.2992  0.6538
   74MOL   C12535311   5.324   3.860   4.330  0.3378 -0.0462  0.1868
   74MOL   C12635312   5.251   3.774   4.409  0.4073 -0.1041 -0.3216
   74MOL   C12735313   5.147   3.820   4.488  0.1496 -0.3945  0.2356
   74MOL   S12835314   5.418   4.105   4.256 -0.1932 -0.0656 -0.1133
   74MOL   O12935315   5.390   4.244   4.298 -0.5617  0.5910 -0.2271
   74MOL   O13035316   5.437   4.058   4.117 -0.5315  0.1119 -0.1052
   74MOL   C13135317   5.570   4.052   4.342  0.2934  0.5334  0.2508
   74MOL   C13235318   5.561   4.015   4.472  0.1372 -0.2367 -0.6927
   74MOL   C13335319   5.670   3.958   4.543 -0.1756  0.4959  0.0407
   74MOL   C13435320   5.795   3.951   4.478 -0.0035  0.0570  0.2312
   74MOL   C13535321   5.806   3.994   4.343 -0.1490 -0.6885 -0.0087
   74MOL   C13635322   5.692   4.046   4.277 -0.8637  0.2576 -0.6225
   74MOL   O13735323   5.906   3.890   4.532  0.0254  0.6037  0.5343
   74MOL   H13835324   5.029   3.978   4.551  0.1034 -0.6103  0.1523
   74MOL   H13935325   5.165   4.149   4.397 -2.3860 -0.7596  1.3853
   74MOL   H14035326   5.408   3.819   4.275 -0.2603 -0.8240 -0.1613
   74MOL   H14135327   5.268   3.667   4.405  0.9956 -0.0181 -0.1247
   74MOL   H14235328   5.467   4.019   4.526 -1.1267 -2.5865 -2.6057
   74MOL   H14335329   5.660   3.935   4.648  0.8169  1.0941  0.2778
   74MOL   H14435330   5.897   3.982   4.285  0.1584 -0.6806  0.4725
   74MOL   H14535331   5.699   4.079   4.174 -0.3827 -0.6108 -0.8718
   74MOL   C14635332   5.954   4.089   4.663  0.1739 -0.3337  0.2563
   74MOL   C14735333   5.992   4.146   4.790  0.1915 -0.1660 -0.0771
   74MOL   C14835334   6.058   4.067   4.886  0.2974 -0.0054 -0.1983
   74MOL   C14935335   6.090   3.936   4.856  0.8154  0.2387  0.1172
   74MOL   C15035336   6.044   3.875   4.735  0.0554  0.2426 -0.3193
   74MOL   C15135337   5.971   3.953   4.638 -0.0975  0.3819  0.1312
   74MOL   S15235338   6.119   4.147   5.038  0.0229 -0.4872 -0.1868
   74MOL   O15335339   6.003   4.175   5.127 -0.3024  0.6984  0.0355
   74MOL   O15435340   6.212   4.256   5.001  0.0523  0.0752 -0.0075
   74MOL   C15535341   6.222   4.020   5.117  0.1556 -0.1100 -0.3618
   74MOL   C15635342   6.358   4.016   5.087 -0.6569  0.6617  0.0709
   74MOL   C15735343   6.439   3.916   5.157  0.1636 -1.1264 -0.0345
   74MOL   C15835344   6.376   3.816   5.237 -0.7110  0.7098  1.0140
   74MOL   C15935345   6.235   3.824   5.257  0.2504  0.0165  0.0131
   74MOL   C16035346   6.162   3.922   5.202  0.3459  0.1700 -0.0865
   74MOL   O16135347   6.449   3.713   5.285 -0.1632 -0.0069  0.1422
   74MOL   H16235348   5.902   4.149   4.590 -0.3027  0.1818  1.0108
   74MOL   H16335349   5.977   4.253   4.801 -0.3042 -0.4015  1.7728
   74MOL   H16435350   6.135   3.868   4.926  4.5416  2.6390  0.1926
   74MOL   H16535351   6.056   3.768   4.721 -0.8661  0.1090 -0.1454
   74MOL   H16635352   6.393   4.085   5.012  0.1086  0.2274  0.0242
   74MOL   H16735353   6.547   3.919   5.146  0.2384  1.6887  1.2295
   74MOL   H16835354   6.188   3.747   5.316 -0.1330  0.3407  0.1295
   74MOL   H16935355   6.060   3.946   5.226  0.9676  2.2068  0.6648
   74MOL   C17035356   6.621   3.627   5.430 -0.3173  0.0956 -0.6194
   74MOL   C17135357   6.716   3.646   5.527  0.1317 -0.0783 -0.2882
   74MOL   C17235358   6.744   3.774   5.578  0.0273  0.2791 -0.9053
   74MOL   C17335359   6.664   3.884   5.544  0.6493  0.3849 -0.7355
   74MOL   C17435360   6.560   3.863   5.455  0.8821 -0.3756  0.1172
   74MOL   C17535361   6.541   3.736   5.389  0.6721  0.4093  0.0899
   74MOL   S17635362   6.894   3.810   5.666  0.2163 -0.1592 -0.0638
   74MOL   O17735363   6.891   3.947   5.724  0.6921  0.8245  0.6512
   74MOL   O17835364   7.005   3.771   5.576 -0.0231  0.8090  0.0651
   74MOL   C17935365   6.896   3.705   5.810 -0.2879  0.6118 -0.6802
   74MOL   C18035366   6.772   3.649   5.865  0.2804  0.1834  0.1372
   74MOL   C18135367   6.772   3.573   5.983 -0.1271  0.4295 -0.8195
   74MOL   C18235368   6.893   3.554   6.056 -0.0925 -0.4151 -0.0758
   74MOL   C18335369   7.012   3.600   6.004  0.3345 -0.7332 -0.4380
   74MOL   C18435370   7.013   3.676   5.888 -0.1086  0.3510  0.4519
   74MOL   O18535371   6.882   3.493   6.178  0.2658 -0.5720 -0.3578
   74MOL   H18635372   6.609   3.532   5.380 -0.3137 -0.0298 -0.3791
   74MOL   H18735373   6.781   3.569   5.567 -1.3179 -0.0604  2.1784
   74MOL   H18835374   6.689   3.985   5.574  1.1555  0.1583 -0.3839
   74MOL   H18935375   6.498   3.947   5.426  1.2743 -0.1784 -0.1509
   74MOL   H19035376   6.672   3.662   5.827  0.2981  3.3595  0.9923
   74MOL   H19135377   6.684   3.529   6.027 -0.7681  1.8459 -0.6553
   74MOL   H19235378   7.097   3.585   6.069 -0.4510 -1.1715  0.5025
   74MOL   H19335379   7.102   3.729   5.859 -0.8282  0.8600 -0.8784
   74MOL   C19435380   7.013   3.287   6.143  0.4897  0.4235  0.4188
   74MOL   C19535381   7.109   3.200   6.188  0.1503  0.2579 -0.3636
   74MOL   C19635382   7.187   3.230   6.303 -0.0730 -0.5452  0.0808
   74MOL   C19735383   7.162   3.351   6.375 -0.7485  0.0636  0.6117
   74MOL   C19835384   7.062   3.433   6.334  0.8408 -0.6356  0.5183
   74MOL   C19935385   6.984   3.406   6.217  0.2938 -0.7364 -0.3250
   74MOL   S20035386   7.308   3.113   6.364  0.3269  0.0700 -0.1851
   74MOL   O20135387   7.441   3.173   6.377  0.2352 -0.1674  0.2903
   74MOL   O20235388   7.298   2.985   6.292 -0.4021  0.2661  0.2730
   74MOL   C20335389   7.250   3.077   6.531 -0.6190 -0.0553  0.5270
   74MOL   C20435390   7.342   3.047   6.634  0.0295 -0.4294 -0.6213
   74MOL   C20535391   7.302   3.006   6.763  0.3376 -0.0274 -0.0357
   74MOL   C20635392   7.163   3.015   6.793  0.3017  0.0152 -0.6739
   74MOL   C20735393   7.075   3.063   6.697  0.9435  0.1156 -0.1182
   74MOL   C20835394   7.111   3.084   6.569  0.2155 -0.1177  0.2916
   74MOL   O20935395   7.123   2.995   6.925  0.0479  0.5045  0.3349
   74MOL   H21035396   6.945   3.256   6.065 -1.9073  0.3874  2.4604
   74MOL   H21135397   7.133   3.109   6.135  1.9581 -0.6468  1.8908
   74MOL   H21235398   7.218   3.372   6.465 -1.6295  0.6472  1.0290
   74MOL   H21335399   7.049   3.526   6.387  1.2753 -0.4661  0.3341
   74MOL   H21435400   7.448   3.044   6.614  0.2401  0.6103  0.2612
   74MOL   H21535401   7.364   2.972   6.845  0.3230 -0.3539 -0.1572
   74MOL   H21635402   6.970   3.068   6.721  0.6524 -1.7615 -0.9081
   74MOL   H21735403   7.031   3.108   6.500 -0.2564  1.9169  1.5293
   74MOL   C21835404   7.108   2.755   6.979 -0.2941  0.2361  0.4030
   74MOL   C21935405   7.033   2.644   6.986  0.0885  0.7597  0.1598
   74MOL   C22035406   6.896   2.643   6.981  0.1015  0.1783  0.2619
   74MOL   C22135407   6.826   2.765   6.961  0.5006 -0.0476  0.2815
   74MOL   C22235408   6.897   2.880   6.937 -0.1366 -0.0874  0.0279
   74MOL   C22335409   7.045   2.881   6.947  0.0031  0.4931  0.2668
   74MOL   S22435410   6.794   2.493   6.990 -0.2918  0.1876 -0.4309
   74MOL   O22535411   6.668   2.513   7.060 -0.2141  0.1389 -0.0554
   74MOL   O22635412   6.881   2.385   7.037 -0.5639  0.3007 -0.3801
   74MOL   C22735413   6.760   2.469   6.814 -0.0778  0.5975  0.9966
   74MOL   C22835414   6.631   2.483   6.763 -0.1643 -0.3819 -0.2158
   74MOL   C22935415   6.590   2.435   6.636  0.2152 -0.2271 -0.2066
   74MOL   C23035416   6.688   2.370   6.560  0.2932  0.7582 -0.3599
   74MOL   C23135417   6.822   2.369   6.607  0.0444  0.3075 -0.1960
   74MOL   C23235418   6.861   2.418   6.729  0.2257 -0.4215  0.1654
   74MOL   O23335419   6.660   2.312   6.442  0.3073  0.4335  0.2962
   74MOL   H23435420   7.216   2.749   6.977 -0.3185 -0.0848  0.0712
   74MOL   H23535421   7.087   2.552   7.004 -0.0658  1.0060  1.9001
   74MOL   H23635422   6.719   2.772   6.975  0.2058 -0.7874 -1.4768
   74MOL   H23735423   6.844   2.970   6.912 -1.2758 -0.7237  0.1093
   74MOL   H23835424   6.549   2.518   6.825  0.7519  0.7467  0.3749
   74MOL   H23935425   6.491   2.432   6.593  0.9132  0.8212 -1.9528
   74MOL   H24035426   6.896   2.324   6.543 -0.9707  1.3408 -2.1573
   74MOL   H24135427   6.962   2.402   6.763  0.3412 -0.6151 -0.2614
   74MOL   C24235428   6.477   2.190   6.341 -0.3367  0.1729 -0.6497
   74MOL   C24335429   6.380   2.089   6.348  0.5772  0.9258 -0.2752
   74MOL   C24435430   6.400   1.984   6.449  0.0173  0.0376  0.6766
   74MOL   C24535431   6.498   1.993   6.552 -0.1258  0.2748  0.2925
   74MOL   C24635432   6.582   2.106   6.546  0.2657  0.0356  0.5544
   74MOL   C24735433   6.570   2.205   6.442  1.1380 -0.2994 -0.1079
   74MOL   S24835434   6.294   1.845   6.446 -0.2746 -0.0422  0.1258
   74MOL   O24935435   6.379   1.726   6.467  0.1712  0.7753  0.3904
   74MOL   O25035436   6.214   1.855   6.326 -0.0099  0.0527  0.4235
   74MOL   C25135437   6.200   1.863   6.595 -0.5999  0.5410  0.6111
   74MOL   C25235438   6.240   1.799   6.717  0.2156  0.1517 -0.0813
   74MOL   C25335439   6.165   1.829   6.830 -0.1256  0.2044 -0.8946
   74MOL   C25435440   6.057   1.921   6.827  0.2902 -0.6428 -0.2726
   74MOL   C25535441   6.033   1.989   6.706 -0.0708 -0.0548 -0.7716
   74MOL   C25635442   6.096   1.959   6.589  0.2483 -0.0862 -0.5847
   74MOL   O25735443   5.972   1.938   6.934  0.6787  0.8083  0.3626
   74MOL   H25835444   6.468   2.260   6.259  0.2391  0.1116 -0.7630
   74MOL   H25935445   6.302   2.087   6.274  0.3593 -0.5579 -0.0308
   74MOL   H26035446   6.508   1.916   6.627  0.2327  0.3079  0.2758
   74MOL   H26135447   6.657   2.127   6.620 -0.2486  1.5296  0.6716
   74MOL   H26235448   6.314   1.721   6.723 -0.3602 -0.3628  0.3412
   74MOL   H26335449   6.194   1.781   6.922 -0.3268  1.5120 -0.1318
   74MOL   H26435450   5.954   2.063   6.705  0.1099  0.1676  0.5485
   74MOL   H26535451   6.063   2.013   6.501 -1.3548 -0.3456 -0.1473
   74MOL   C26635452   5.909   1.698   6.910 -0.0964  0.3088  0.6307
   74MOL   C26735453   5.848   1.579   6.962 -0.6761  0.3156  0.3265
   74MOL   C26835454   5.774   1.591   7.078  0.1270 -0.6408 -0.0368
   74MOL   C26935455   5.774   1.712   7.150 -0.2923  0.2263  0.5440
   74MOL   C27035456   5.845   1.829   7.104  0.3894  0.1495  0.2754
   74MOL   C27135457   5.915   1.823   6.979 -0.1163 -0.0393 -0.3046
   74MOL   S27235458   5.691   1.441   7.146  0.1060 -0.1317 -0.1828
   74MOL   O27335459   5.785   1.336   7.123  0.0612 -0.3313  0.2735
   74MOL   O27435460   5.554   1.437   7.094 -0.1092  0.1853 -0.2424
   74MOL   C27535461   5.672   1.456   7.324  0.2795  0.4747 -0.2889
   74MOL   C27635462   5.542   1.481   7.384 -0.3984  0.0587 -0.0875
   74MOL   C27735463   5.529   1.472   7.525  0.3551 -0.0679  0.5396
   74MOL   C27835464   5.645   1.445   7.599 -0.6744  0.1269 -0.3618
   74MOL   C27935465   5.769   1.428   7.544  0.2798 -0.1474 -0.5248
   74MOL   C28035466   5.786   1.439   7.404  0.1381  0.8743 -0.5017
   74MOL   O28135467   5.635   1.428   7.735  0.1815 -0.7244 -0.5262
   74MOL   H28235468   5.949   1.692   6.809 -2.5720  0.3344 -0.3751
   74MOL   H28335469   5.840   1.489   6.903 -0.5230  1.0800 -0.8914
   74MOL   H28435470   5.743   1.709   7.253  2.4031  3.2112  1.5659
   74MOL   H28535471   5.855   1.920   7.161  0.6357  0.0804  0.3442
   74MOL   H28635472   5.452   1.487   7.325  0.1887  2.3658 -0.7590
   74MOL   H28735473   5.432   1.476   7.573  0.8458 -0.3286  1.5787
   74MOL   H28835474   5.851   1.402   7.610  1.6263 -0.3592 -2.2519
   74MOL   H28935475   5.873   1.409   7.348  0.9441 -0.8379  1.5960
   74MOL   C29035476   5.701   1.653   7.787  0.5746  0.1674  0.3305
   74MOL   C29135477   5.700   1.762   7.871 -0.5966  0.1568 -0.6376
   74MOL   C29235478   5.618   1.765   7.986  0.6964  0.4307  0.1498
   74MOL   C29335479   5.529   1.654   8.011 -0.7106 -0.0377 -0.1895
   74MOL   C29435480   5.538   1.534   7.928 -0.7122 -0.3092  0.3828
   74MOL   C29535481   5.623   1.540   7.815  0.4025 -0.0159 -0.4436
   74MOL   S29635482   5.631   1.902   8.097 -0.0443 -0.1928 -0.3441
   74MOL   O29735483   5.775   1.948   8.101 -0.4685 -0.3899 -0.0560
   74MOL   O29835484   5.556   1.877   8.223 -0.4947 -0.0456 -0.3350
   74MOL   C29935485   5.537   2.025   8.003  0.0651 -0.3542 -0.8418
   74MOL   C30035486   5.603   2.114   7.922 -0.2466 -0.4891  0.2199
   74MOL   C30135487   5.532   2.215   7.853 -0.4097  0.4725 -0.3202
   74MOL   C30235488   5.397   2.236   7.876  0.2685  0.1869  0.5511
   74MOL   C30335489   5.327   2.151   7.960  0.4210 -0.5058 -0.5669
   74MOL   C30435490   5.395   2.046   8.027 -0.1150  0.2434  0.4325
   74MOL   O30535491   5.331   2.338   7.814  0.5282  0.3967 -0.6193
   74MOL   H30635492   5.772   1.649   7.705 -0.4690 -3.1030 -0.5038
   74MOL   H30735493   5.756   1.853   7.853 -2.8937  1.9288  0.8249
   74MOL   H30835494   5.478   1.645   8.105 -0.2189  1.8245  0.2823
   74MOL   H30935495   5.476   1.448   7.950 -0.9680 -0.1465  0.2906
   74MOL   H31035496   5.709   2.098   7.906 -0.1980 -0.8065  0.8681
   74MOL   H31135497   5.589   2.279   7.787  1.9963  0.3714  1.6123
   74MOL   H31235498   5.222   2.170   7.976 -0.1321 -0.4719 -3.9013
   74MOL   H31335499   5.339   1.983   8.094 -0.4581 -1.7301 -1.6760
   74MOL   C31435500   5.298   2.216   7.608 -0.4989 -0.4076  0.2192
   74MOL   C31535501   5.215   2.179   7.496 -0.1043  0.0017  0.2528
   74MOL   C31635502   5.078   2.223   7.501 -0.1661  0.3793 -0.6149
   74MOL   C31735503   5.032   2.299   7.618  0.3085  0.2624  0.2996
   74MOL   C31835504   5.119   2.344   7.717 -0.7025  0.1486  0.3942
   74MOL   C31935505   5.253   2.303   7.711  0.1225 -0.2522 -0.2456
   74MOL   S32035506   4.968   2.165   7.377 -0.1537 -0.3035 -0.3373
   74MOL   O32135507   4.833   2.207   7.418 -0.1374  0.1137  0.7778
   74MOL   O32235508   4.995   2.022   7.349 -0.2005  0.1599  0.8026
   74MOL   C32335509   5.019   2.263   7.230  0.0470  0.0564 -0.4292
   74MOL   C32435510   5.021   2.405   7.242  0.0335  0.3033 -0.1407
   74MOL   C32535511   5.074   2.485   7.135  0.0380  0.0415  0.0641
   74MOL   C32635512   5.127   2.417   7.023 -0.1367  0.0886  0.2009
   74MOL   C32735513   5.130   2.275   7.016 -0.0439  0.3131 -0.3850
   74MOL   C32835514   5.064   2.203   7.115  0.2705  0.0655  0.1489
   74MOL   O32935515   5.189   2.481   6.918  0.3377 -0.3205  0.4335
   74MOL   H33035516   5.401   2.184   7.610  0.2192  1.8919  3.7180
   74MOL   H33135517   5.241   2.111   7.416 -1.4580 -0.9661  0.6125
   74MOL   H33235518   4.928   2.330   7.616  0.5003  0.8897 -0.1828
   74MOL   H33335519   5.079   2.418   7.785 -2.5633  1.2389 -1.8439
   74MOL   H33435520   4.983   2.451   7.332  0.5768  0.7833 -0.1493
   74MOL   H33535521   5.072   2.593   7.133 -0.8646  0.0198 -1.3077
   74MOL   H33635522   5.183   2.217   6.942 -2.7978  0.4393 -2.5349
   74MOL   H33735523   5.060   2.095   7.122 -2.0115  0.2558  2.5787
   74MOL   C33835524   5.415   2.474   6.998  0.1266 -0.2876 -0.1301
   74MOL   C33935525   5.533   2.548   7.008 -0.5603  0.6158 -1.0020
   74MOL   C34035526   5.549   2.676   6.956  0.4260 -0.4202 -0.5425
   74MOL   C34135527   5.442   2.739   6.889  0.1355  0.1433  0.0395
   74MOL   C34235528   5.323   2.666   6.873  0.7047 -0.0334  0.1142
   74MOL   C34335529   5.308   2.540   6.937 -0.8323  0.0174  0.5925
   74MOL   S34435530   5.715   2.750   6.973 -0.3438  0.2029 -0.1554
   74MOL   O34535531   5.796   2.697   6.864 -0.2880 -0.6331 -0.7046
   74MOL   O34635532   5.756   2.725   7.109  0.1668 -0.1444 -0.2721
   74MOL   C34735533   5.696   2.930   6.941  0.8529 -0.0363 -0.5139
   74MOL   C34835534   5.686   2.974   6.806  0.3440  0.1366  0.2493
   74MOL   C34935535   5.651   3.111   6.782 -0.3753 -0.6471 -0.0264
   74MOL   C35035536   5.619   3.200   6.889 -0.3987 -0.2540  0.1201
   74MOL   C35135537   5.640   3.156   7.024  0.5310 -0.8537 -0.0051
   74MOL   C35235538   5.682   3.021   7.047  0.6184 -0.1760 -0.0159
   74MOL   O35335539   5.587   3.328   6.857 -0.2521 -0.1879  0.3924
   74MOL   H35435540   5.415   2.370   7.029  1.5998 -0.1312  0.4011
   74MOL   H35535541   5.615   2.497   7.057 -0.6731  1.4805  0.0907
   74MOL   H35635542   5.459   2.838   6.851 -3.0008  1.4201  1.8152
   74MOL   H35735543   5.240   2.716   6.825  2.1891  0.9548 -1.4835
   74MOL   H35835544   5.707   2.900   6.730  0.6878  0.1765  0.3048
   74MOL   H35935545   5.640   3.148   6.681 -3.2587 -1.5887 -0.0944
   74MOL   H36035546   5.621   3.225   7.105  1.3481  0.3837 -0.8564
   74MOL   H36135547   5.690   2.982   7.147  2.2403  0.4740  0.1225
   74MOL   C36235548   5.404   3.455   6.780  0.3176 -0.1859  0.1737
   74MOL   C36335549   5.275   3.503   6.792  0.2437  0.1734 -0.4341
   74MOL   C36435550   5.200   3.483   6.909  0.4703 -0.0794 -0.2408
   74MOL   C36535551   5.264   3.420   7.018 -0.1117 -0.5760 -0.7597
   74MOL   C36635552   5.390   3.362   7.005  0.3978  0.4134 -0.2652
   74MOL   C36735553   5.459   3.377   6.884 -0.0248 -0.4929  0.6470
   74MOL   S36835554   5.024   3.529   6.912 -0.0823  0.4305 -0.3305
   74MOL   O36935555   4.965   3.481   7.040  0.2394  0.0816  0.6540
   74MOL   O37035556   4.956   3.488   6.784 -0.4753  0.1607 -0.1776
   74MOL   C37135557   5.037   3.708   6.911  0.1830 -0.2334 -0.2924
   74MOL   C37235558   4.923   3.770   6.861 -0.9398 -1.0098 -0.5361
   74MOL   C37335559   4.928   3.910   6.839  0.6350 -0.0750 -0.4230
   74MOL   C37435560   5.048   3.976   6.865  0.1983 -0.0286  0.3308
   74MOL   C37535561   5.160   3.913   6.916 -0.0814 -0.9571  0.1386
   74MOL   C37635562   5.154   3.777   6.942  0.0921 -0.0436 -0.7210
   74MOL   O37735563   5.051   4.109   6.836 -0.0689 -0.6018 -0.2144
   74MOL   H37835564   5.466   3.461   6.692 -1.3237 -0.9835 -1.0471
   74MOL   H37935565   5.227   3.541   6.702  0.0208  0.9281  0.0008
   74MOL   H38035566   5.203   3.407   7.106  0.6424 -1.7530 -0.4072
   74MOL   H38135567   5.439   3.332   7.096  0.7864  1.3453 -0.1605
   74MOL   H38235568   4.837   3.718   6.821  0.3249 -1.2847 -2.9213
   74MOL   H38335569   4.856   3.965   6.780  0.3041 -1.8340 -1.6892
   74MOL   H38435570   5.234   3.987   6.944 -0.5501 -0.2902 -0.3476
   74MOL   H38535571   5.244   3.726   6.972  0.8222  1.3366 -0.5352
   74MOL   C38635572   5.220   4.197   6.694 -0.7021 -1.2974  0.1075
   74MOL   C38735573   5.267   4.260   6.576  0.1156  0.0754 -0.0447
   74MOL   C38835574   5.175   4.291   6.473 -0.6507 -1.1205 -0.0945
   74MOL   C38935575   5.040   4.263   6.493  0.3014  0.3774  0.0684
   74MOL   C39035576   4.996   4.193   6.606 -0.2000 -0.0667 -0.3355
   74MOL   C39135577   5.090   4.155   6.710  0.8420  0.0134  0.0179
   74MOL   S39235578   5.223   4.388   6.329  0.1224  0.5659  0.1437
   74MOL   O39335579   5.322   4.491   6.361  0.3441  0.0226 -0.0416
   74MOL   O39435580   5.099   4.429   6.264  0.3658 -0.6936 -0.6398
   74MOL   C39535581   5.298   4.270   6.221 -0.9110 -0.6342  0.0975
   74MOL   C39635582   5.425   4.220   6.257 -0.4078  0.0492 -0.7507
   74MOL   C39735583   5.491   4.123   6.173  0.3096 -0.0701 -0.2653
   74MOL   C39835584   5.423   4.075   6.063 -0.0627  0.5895  0.1617
   74MOL   C39935585   5.293   4.119   6.035  0.7315  0.0594  0.9517
   74MOL   C40035586   5.232   4.223   6.106 -0.4272 -0.2619  1.0870
   74MOL   O40135587   5.483   3.978   5.984  0.8948  0.3594 -0.0838
   74MOL   H40235588   5.294   4.201   6.772 -0.0543 -1.7221 -0.4765
   74MOL   H40335589   5.371   4.285   6.564  0.8293 -2.0682  1.1927
   74MOL   H40435590   4.971   4.281   6.412  0.1118  0.1977  0.1893
   74MOL   H40535591   4.894   4.166   6.628 -0.3559  0.1854 -0.7464
   74MOL   H40635592   5.480   4.262   6.340 -1.1361 -1.1461  0.3551
   74MOL   H40735593   5.593   4.105   6.203 -0.0744  1.3750  1.9870
   74MOL   H40835594   5.245   4.079   5.947  1.1037  0.1551  0.7045
   74MOL   H40935595   5.136   4.260   6.073 -0.3256  0.0013  1.0837
   74MOL   C41035596   5.436   3.759   5.899  0.1565  0.2247  0.1792
   74MOL   C41135597   5.410   3.616   5.912  0.2605  0.2843  0.3006
   74MOL   C41235598   5.390   3.561   6.038  0.2298 -0.4666 -0.5356
   74MOL   C41335599   5.410   3.645   6.155  0.8600  0.2526 -0.1739
   74MOL   C41435600   5.440   3.783   6.138 -0.0822  0.6628 -0.5873
   74MOL   C41535601   5.449   3.844   6.005 -0.2910  0.1206 -0.3737
   74MOL   S41635602   5.356   3.384   6.036  0.0445 -0.2191  0.3479
   74MOL   O41735603   5.460   3.318   5.958  0.7213 -0.3652  0.0983
   74MOL   O41835604   5.223   3.370   5.981  0.2250  0.5932 -0.1290
   74MOL   C41935605   5.359   3.318   6.197 -0.7043 -0.8646 -0.0801
   74MOL   C42035606   5.482   3.252   6.237  0.1566  0.3959 -0.5039
   74MOL   C42135607   5.482   3.198   6.368 -0.1362 -0.8714  0.4514
   74MOL   C42235608   5.369   3.205   6.452 -0.5947  0.1812  0.4213
   74MOL   C42335609   5.255   3.280   6.406  0.2640  0.2062  0.0732
   74MOL   C42435610   5.249   3.339   6.280  0.0539  0.1866  0.4250
   74MOL   O42535611   5.374   3.148   6.574 -0.1864 -0.6065  0.1074
   74MOL   H42635612   5.451   3.799   5.800 -1.7946 -2.7147 -1.3656
   74MOL   H42735613   5.395   3.544   5.833  1.1735  0.6516 -0.2033
   74MOL   H42835614   5.397   3.609   6.256 -1.3963  1.7950  0.1328
   74MOL   H42935615   5.450   3.841   6.229  0.5392 -1.0362  0.4485
   74MOL   H43035616   5.562   3.233   6.168 -0.4658  1.1655 -1.4624
   74MOL   H43135617   5.571   3.150   6.407  0.3506 -0.9937 -0.7783
   74MOL   H43235618   5.171   3.296   6.472  0.1455 -0.3004  0.0476
   74MOL   H43335619   5.168   3.399   6.242  1.1557  0.4917 -1.5303
   74MOL   C43435620   5.234   3.103   6.769  0.0112  0.5599  0.3349
   74MOL   C43535621   5.125   3.032   6.830  0.9505  0.6850 -0.1494
   74MOL   C43635622   5.035   2.964   6.746  0.3040  0.0211  0.7979
   74MOL   C43735623   5.062   2.944   6.610  0.5355  0.5755 -0.3537
   74MOL   C43835624   5.184   2.999   6.559  0.2862  0.3735  0.5607
   74MOL   C43935625   5.262   3.088   6.632 -0.3407  0.4247  0.3763
   74MOL   S44035626   4.892   2.890   6.823 -0.5048 -0.2640 -0.4890
   74MOL   O44135627   4.937   2.758   6.873  0.3410 -0.1588 -0.2028
   74MOL   O44235628   4.778   2.891   6.724 -0.0502 -0.2178  0.4485
   74MOL   C44335629   4.841   2.994   6.958  0.6477 -0.3698 -0.5585
   74MOL   C44435630   4.802   2.929   7.083 -0.5223  0.3839  0.5787
   74MOL   C44535631   4.755   3.004   7.194 -0.1994  0.2465 -0.1642
   74MOL   C44635632   4.748   3.143   7.185 -0.0807  0.5156 -0.1053
   74MOL   C44735633   4.776   3.214   7.064 -0.0121 -0.0135  0.4900
   74MOL   C44835634   4.825   3.135   6.950 -0.0988  0.4630  1.1380
   74MOL   O44935635   4.714   3.217   7.296 -0.2941 -0.2729 -0.1237
   74MOL   H45035636   5.292   3.173   6.827 -1.3255  2.0905 -0.1454
   74MOL   H45135637   5.113   3.038   6.937 -0.6521 -0.2815 -0.2533
   74MOL   H45235638   5.002   2.879   6.547 -0.0556  0.3955  0.3914
   74MOL   H45335639   5.213   2.978   6.457 -1.0156  0.1184  0.2303
   74MOL   H45435640   4.793   2.822   7.090 -1.3496  0.3565 -0.6827
   74MOL   H45535641   4.721   2.950   7.281 -0.9784 -2.4336 -2.0565
   74MOL   H45635642   4.775   3.322   7.060  0.7959  0.0311  1.2149
   74MOL   H45735643   4.852   3.186   6.859 -2.4027  0.3855  0.3887
   74MOL   C45835644   4.756   3.132   7.509  0.5425  1.1426 -0.3022
   74MOL   C45935645   4.837   3.133   7.625  0.3439  0.1624  0.0382
   74MOL   C46035646   4.951   3.211   7.640  0.0790  0.6691 -0.0200
   74MOL   C46135647   4.992   3.284   7.524 -0.2012 -0.5037  0.0361
   74MOL   C46235648   4.916   3.285   7.405 -0.0122  0.2954 -0.5997
   74MOL   C46335649   4.795   3.213   7.402  0.1456  0.1419  0.0672
   74MOL   S46435650   5.048   3.213   7.790 -0.2138  0.0932  0.1866
   74MOL   O46535651   5.164   3.301   7.754 -0.6236 -0.0989 -0.3940
   74MOL   O46635652   5.073   3.075   7.829  0.4624  0.0499  0.0300
   74MOL   C46735653   4.940   3.295   7.910 -1.0290  0.0406  0.3195
   74MOL   C46835654   4.890   3.220   8.017  0.1763 -0.1228 -0.4919
   74MOL   C46935655   4.791   3.271   8.098 -0.3091 -0.7041 -0.3246
   74MOL   C47035656   4.736   3.398   8.076 -0.4217 -0.9463 -0.0699
   74MOL   C47135657   4.789   3.477   7.970  0.1243  0.5311  0.1474
   74MOL   C47235658   4.896   3.430   7.889 -0.1338  0.2303 -0.4767
   74MOL   O47335659   4.643   3.449   8.166 -0.9927  0.1915  0.3472
   74MOL   H47435660   4.664   3.077   7.494  0.0816  1.7832  0.1723
   74MOL   H47535661   4.794   3.080   7.708 -0.8143  0.6467 -0.2341
   74MOL   H47635662   5.085   3.337   7.526  0.2717 -1.3600  1.5233
   74MOL   H47735663   4.936   3.343   7.317 -0.2213  3.1062  1.1675
   74MOL   H47835664   4.927   3.122   8.046  1.6106  0.7380  0.6349
   74MOL   H47935665   4.769   3.221   8.191  2.1543 -1.3971 -0.1062
   74MOL   H48035666   4.752   3.577   7.955 -1.3476 -0.0398 -0.1478
   74MOL   H48135667   4.941   3.499   7.819  0.7843 -1.7026 -1.8399
   74MOL   H48235668   4.594   3.525   8.138 -0.0453  0.9391  0.6734
   75MOL     C135669   2.508   2.519   3.815  0.3345 -0.5290 -0.1930
   75MOL     C235670   2.599   2.427   3.768  0.2894  0.5866  0.0445
   75MOL     C335671   2.686   2.363   3.864 -0.2937  0.6521 -0.6714
   75MOL     C435672   2.684   2.394   4.000 -0.6314  0.5001  0.2709
   75MOL     C535673   2.593   2.492   4.035 -0.3551 -0.3104  0.1397
   75MOL     C635674   2.504   2.556   3.949  0.3673 -0.5142 -0.4707
   75MOL     S735675   2.807   2.236   3.810  0.4466  0.0247  0.2740
   75MOL     O835676   2.922   2.242   3.904 -0.5378  0.1732  0.1828
   75MOL     O935677   2.835   2.263   3.668  0.4305  0.4009  0.0781
   75MOL    C1035678   2.726   2.075   3.829  0.0940  0.3338  0.1664
   75MOL    C1135679   2.793   1.976   3.902  0.2193  0.1848 -0.2737
   75MOL    C1235680   2.737   1.847   3.908 -0.3280  0.0626 -0.0594
   75MOL    C1335681   2.616   1.823   3.838  0.0318 -0.2001 -0.1662
   75MOL    C1435682   2.558   1.919   3.752 -0.3058 -0.1614  0.3026
   75MOL    C1535683   2.620   2.043   3.750  0.3212 -0.2065  0.7278
   75MOL    O1635684   2.576   1.696   3.827  0.2636  0.2949  0.1661
   75MOL    H1735685   2.438   2.564   3.745  0.6317 -2.6351 -1.9088
   75MOL    H1835686   2.615   2.399   3.665  1.8059 -0.1174  0.4627
   75MOL    H1935687   2.743   2.348   4.078 -1.4239  1.4152  1.4375
   75MOL    H2035688   2.600   2.536   4.134  1.9141 -0.7664  0.2036
   75MOL    H2135689   2.885   2.007   3.949 -0.0178  0.8869 -0.2547
   75MOL    H2235690   2.781   1.761   3.957  1.5292  1.0547  0.0732
   75MOL    H2335691   2.473   1.902   3.688  0.7082  3.0947 -2.0387
   75MOL    H2435692   2.591   2.109   3.670  2.3584  0.8818  0.8633
   75MOL    H2535693   2.434   2.635   3.972  0.1465 -1.2208  1.3345
   75MOL    C2635694   2.379   1.718   3.964  0.4576  0.1515 -0.2769
   75MOL    C2735695   2.284   1.651   4.047 -0.0666 -0.0415  0.2171
   75MOL    C2835696   2.281   1.511   4.047  0.5621 -0.3538  0.6816
   75MOL    C2935697   2.359   1.429   3.956 -0.3178 -0.2620  0.3351
   75MOL    C3035698   2.458   1.494   3.881  0.6955  0.0639 -0.0475
   75MOL    C3135699   2.474   1.637   3.900  0.1309 -0.6873  0.7555
   75MOL    S3235700   2.163   1.425   4.162 -0.0521 -0.7460  0.4397
   75MOL    O3335701   2.060   1.520   4.214 -0.0169 -0.3580  0.0928
   75MOL    O3435702   2.248   1.350   4.253 -0.1742  0.8702  0.3150
   75MOL    C3535703   2.073   1.311   4.063 -0.7696  0.4487 -0.2993
   75MOL    C3635704   1.942   1.344   4.006 -0.2665 -0.4986  0.6412
   75MOL    C3735705   1.884   1.259   3.909 -0.6440  0.1652 -0.2565
   75MOL    C3835706   1.940   1.134   3.871 -1.0138  0.0464 -0.4842
   75MOL    C3935707   2.072   1.105   3.924  0.3128  0.3938  0.8885
   75MOL    C4035708   2.138   1.189   4.016  0.1762 -0.3933  0.5937
   75MOL    O4135709   1.892   1.046   3.781  0.2640 -0.0606  0.0130
   75MOL    H4235710   2.387   1.825   3.973  0.6599 -0.0037  1.7958
   75MOL    H4335711   2.229   1.710   4.119 -1.0031 -2.3352  1.4323
   75MOL    H4435712   2.354   1.321   3.962  0.5821 -0.3770 -0.6949
   75MOL    H4535713   2.529   1.437   3.824  1.7264  0.4643  0.8239
   75MOL    H4635714   1.896   1.439   4.032 -0.2271 -0.7252  1.5653
   75MOL    H4735715   1.791   1.282   3.860 -0.7070 -0.9492 -0.6799
   75MOL    H4835716   2.123   1.016   3.891 -1.7156 -0.1857 -0.8060
   75MOL    H4935717   2.235   1.172   4.061 -0.6302 -0.9331  2.1830
   75MOL    C5035718   1.666   0.974   3.820 -0.0159  0.5961  0.6214
   75MOL    C5135719   1.530   0.985   3.787 -0.0400 -0.0316  0.1034
   75MOL    C5235720   1.489   1.064   3.684  0.3182  0.5411  0.2365
   75MOL    C5335721   1.584   1.131   3.608 -0.6103 -0.0347 -0.0636
   75MOL    C5435722   1.720   1.128   3.637  0.5282 -0.0750 -0.6016
   75MOL    C5535723   1.758   1.050   3.744  0.2067  0.4045 -0.0518
   75MOL    S5635724   1.321   1.076   3.638 -0.0951 -0.0074  0.0926
   75MOL    O5735725   1.274   1.211   3.660 -0.0868  0.3556  0.1709
   75MOL    O5835726   1.253   0.963   3.704 -0.4550 -0.0444 -0.3397
   75MOL    C5935727   1.316   1.042   3.458 -0.6180 -0.0493 -0.0310
   75MOL    C6035728   1.219   1.112   3.389 -0.0803 -0.5067 -0.2085
   75MOL    C6135729   1.205   1.083   3.253 -0.0066  0.0892 -0.1746
   75MOL    C6235730   1.283   0.990   3.187 -0.2707 -0.3919 -0.3739
   75MOL    C6335731   1.381   0.921   3.262  0.1516 -0.0212  0.0245
   75MOL    C6435732   1.396   0.946   3.397 -0.5278  0.3576 -0.2560
   75MOL    O6535733   1.259   0.956   3.057 -0.0218 -0.3678 -0.0766
   75MOL    H6635734   1.690   0.916   3.908  0.4050  0.7251  0.5930
   75MOL    H6735735   1.455   0.937   3.846 -0.9287  1.6542  0.3653
   75MOL    H6835736   1.560   1.200   3.529  0.4762  2.1117  1.4281
   75MOL    H6935737   1.800   1.175   3.581 -0.2198  0.2009 -1.4538
   75MOL    H7035738   1.157   1.188   3.436 -2.6322 -2.9830  0.5680
   75MOL    H7135739   1.132   1.140   3.197 -1.0780  0.7372  1.8255
   75MOL    H7235740   1.432   0.840   3.212  0.5452 -0.2093  0.7340
   75MOL    H7335741   1.472   0.897   3.456 -0.0616  2.3602  0.8580
   75MOL    C7435742   1.214   0.748   2.930  0.8144  1.1746  0.0859
   75MOL    C7535743   1.127   0.636   2.912  0.0366  0.1868  0.2018
   75MOL    C7635744   1.015   0.616   3.001 -0.2731  0.3610  0.4276
   75MOL    C7735745   1.003   0.695   3.116 -0.3230  0.1258  0.6419
   75MOL    C7835746   1.084   0.813   3.127 -0.1566  0.4483  0.3334
   75MOL    C7935747   1.187   0.838   3.038 -1.0301 -0.3220  1.2675
   75MOL    S8035748   0.904   0.483   2.986 -0.4339  0.1414 -0.1453
   75MOL    O8135749   0.843   0.460   3.118  0.5201 -0.0147 -0.2794
   75MOL    O8235750   0.984   0.378   2.932  0.2765  1.2656  0.0364
   75MOL    C8335751   0.778   0.523   2.870 -0.1477 -0.1499 -0.1978
   75MOL    C8435752   0.794   0.481   2.739  0.5546  0.7451 -0.0013
   75MOL    C8535753   0.702   0.522   2.641 -0.3441  0.2786 -1.3242
   75MOL    C8635754   0.590   0.604   2.669 -0.1697  0.3159 -0.5337
   75MOL    C8735755   0.569   0.641   2.809 -0.0108 -0.3871 -0.0035
   75MOL    C8835756   0.667   0.601   2.909  0.6627 -0.0585  0.1848
   75MOL    O8935757   0.484   0.613   2.584  0.4332  0.1349  0.0141
   75MOL    H9035758   1.296   0.766   2.863  0.2355 -0.3056 -1.0387
   75MOL    H9135759   1.140   0.567   2.830  0.7279  1.1363 -0.5112
   75MOL    H9235760   0.926   0.673   3.188 -0.0641  1.2455  1.2803
   75MOL    H9335761   1.065   0.874   3.213  0.6248  3.2577 -1.4154
   75MOL    H9435762   0.876   0.414   2.719  0.5353  0.8354 -0.3785
   75MOL    H9535763   0.718   0.481   2.542 -0.3270 -0.5036 -0.9986
   75MOL    H9635764   0.489   0.701   2.849 -0.2852  1.1568 -2.7841
   75MOL    H9735765   0.661   0.635   3.011  3.3402  1.4186 -0.1061
   75MOL    C9835766   0.545   0.685   2.360  0.2406  0.3591 -1.0517
   75MOL    C9935767   0.532   0.775   2.256  0.1251  0.1930 -0.3099
   75MOL   C10035768   0.460   0.898   2.281  0.7855 -0.3802  0.5442
   75MOL   C10135769   0.411   0.924   2.414  0.1238  0.0730  0.1491
   75MOL   C10235770   0.442   0.839   2.513 -0.1017 -0.0257 -0.5516
   75MOL   C10335771   0.494   0.712   2.487  0.1645 -0.3278 -0.0712
   75MOL   S10435772   0.425   1.013   2.142  0.4432 -0.2458 -0.1643
   75MOL   O10535773   0.296   1.081   2.171  0.0053  0.3330 -0.0878
   75MOL   O10635774   0.441   0.945   2.014 -0.1000  0.3171  0.1169
   75MOL   C10735775   0.556   1.127   2.155  0.3383  0.0781 -0.4526
   75MOL   C10835776   0.617   1.167   2.035  0.7135 -0.4277  0.1943
   75MOL   C10935777   0.729   1.255   2.046 -0.0670 -0.2471  0.5915
   75MOL   C11035778   0.769   1.310   2.169  0.6002 -0.5286  0.5029
   75MOL   C11135779   0.705   1.262   2.286  0.3510  0.0911 -0.0761
   75MOL   C11235780   0.594   1.180   2.283 -0.6049  0.1709 -0.2190
   75MOL   O11335781   0.864   1.406   2.178  0.3652 -0.2961 -0.3473
   75MOL   H11435782   0.589   0.588   2.342 -0.1191 -0.2559  1.2278
   75MOL   H11535783   0.568   0.747   2.158  2.0329  2.1872 -0.2293
   75MOL   H11635784   0.360   1.019   2.422  0.4214  0.2810 -0.3962
   75MOL   H11735785   0.392   0.856   2.608 -0.0220 -0.4169 -0.4403
   75MOL   H11835786   0.587   1.126   1.940  0.3429  1.0250 -0.3337
   75MOL   H11935787   0.772   1.283   1.951 -0.8295 -1.4897 -0.1232
   75MOL   H12035788   0.736   1.303   2.381 -1.8253 -1.7766  1.4884
   75MOL   H12135789   0.536   1.171   2.373 -0.2629  0.9922  0.0838
   75MOL   C12235790   1.067   1.308   2.267 -0.2251 -0.4117  0.0528
   75MOL   C12335791   1.202   1.272   2.253  0.3695  0.2303 -0.4882
   75MOL   C12435792   1.268   1.328   2.143 -0.0868  0.2973  0.0117
   75MOL   C12535793   1.201   1.392   2.039 -0.3446 -0.7035 -0.1519
   75MOL   C12635794   1.067   1.431   2.054  0.0491  0.2668 -0.1396
   75MOL   C12735795   0.995   1.382   2.167 -0.1219  0.2740 -0.5070
   75MOL   S12835796   1.441   1.329   2.137 -0.3170 -0.0524  0.4090
   75MOL   O12935797   1.478   1.378   2.005  0.1767  0.1319  0.5766
   75MOL   O13035798   1.488   1.200   2.191 -0.5424  0.1081  0.7915
   75MOL   C13135799   1.486   1.461   2.246 -0.0839 -0.3455 -0.0743
   75MOL   C13235800   1.495   1.595   2.196 -0.2101  0.2611  0.0108
   75MOL   C13335801   1.521   1.709   2.278  0.3219 -0.4209 -0.2647
   75MOL   C13435802   1.536   1.685   2.416 -0.0566  0.1957 -0.0170
   75MOL   C13535803   1.529   1.551   2.470  0.1518 -0.1311  1.0864
   75MOL   C13635804   1.505   1.441   2.384  0.7280 -0.6663 -0.2593
   75MOL   O13735805   1.577   1.789   2.497  0.6556 -0.0421 -0.2339
   75MOL   H13835806   1.007   1.278   2.352  0.2324 -2.1060 -0.2122
   75MOL   H13935807   1.262   1.222   2.327  1.1468  1.1529 -0.4798
   75MOL   H14035808   1.263   1.430   1.959 -0.5190 -0.7950 -0.3292
   75MOL   H14135809   1.017   1.491   1.980 -0.2437  2.8820  2.0645
   75MOL   H14235810   1.490   1.620   2.091  1.3893 -0.8094 -0.3452
   75MOL   H14335811   1.530   1.810   2.243 -0.7687 -0.6585 -1.2764
   75MOL   H14435812   1.554   1.533   2.574 -1.9934  0.1661  1.6694
   75MOL   H14535813   1.488   1.348   2.436 -1.0089  0.7999  1.9336
   75MOL   C14635814   1.714   1.765   2.684  0.0096 -0.3568  0.4006
   75MOL   C14735815   1.835   1.740   2.740  0.3172 -0.0228 -0.1618
   75MOL   C14835816   1.949   1.722   2.661 -0.4748  0.7308  0.6098
   75MOL   C14935817   1.935   1.722   2.524  0.4032  0.3150  0.0990
   75MOL   C15035818   1.813   1.756   2.461 -0.4709  1.2610 -0.0172
   75MOL   C15135819   1.701   1.773   2.546  0.3269 -0.1893  0.2163
   75MOL   S15235820   2.108   1.691   2.733 -0.3964 -0.3776 -0.0208
   75MOL   O15335821   2.114   1.745   2.872 -0.2123  0.5606  0.0563
   75MOL   O15435822   2.202   1.741   2.632  0.5514 -0.0930  0.2843
   75MOL   C15535823   2.142   1.510   2.757  0.0705 -0.5329  0.2086
   75MOL   C15635824   2.153   1.455   2.888  0.7871  0.3635  0.2119
   75MOL   C15735825   2.192   1.323   2.898  0.4899 -0.5398 -0.7959
   75MOL   C15835826   2.219   1.242   2.787 -1.2767  0.4040 -1.0837
   75MOL   C15935827   2.213   1.299   2.662  0.0383  0.3256 -0.3419
   75MOL   C16035828   2.166   1.433   2.641 -0.7815 -0.3642  0.1502
   75MOL   O16135829   2.259   1.112   2.795  0.3931 -0.4357 -0.2756
   75MOL   H16235830   1.629   1.753   2.750 -0.5694 -1.1872 -0.4873
   75MOL   H16335831   1.838   1.732   2.848  1.1524 -2.2691 -0.3268
   75MOL   H16435832   2.023   1.691   2.469 -0.4014 -0.4329 -0.7675
   75MOL   H16535833   1.799   1.752   2.354  1.7955 -0.7106 -0.2640
   75MOL   H16635834   2.128   1.508   2.978  2.5672  0.1258  0.8829
   75MOL   H16735835   2.180   1.269   2.990  0.3751 -0.5442 -0.8142
   75MOL   H16835836   2.241   1.246   2.572 -2.6175  0.7329 -1.4424
   75MOL   H16935837   2.150   1.480   2.545  2.9341  0.1612 -0.2825
   75MOL   C17035838   2.188   0.890   2.861 -0.0538 -0.5950  0.6654
   75MOL   C17135839   2.097   0.789   2.869 -1.1246 -0.3908  0.4326
   75MOL   C17235840   1.973   0.807   2.805 -0.1907  0.3943 -0.2337
   75MOL   C17335841   1.936   0.926   2.745  0.0356  1.1047  0.4009
   75MOL   C17435842   2.029   1.028   2.740 -0.8005 -0.8656 -0.0484
   75MOL   C17535843   2.159   1.012   2.795  0.1469  0.1115  0.1132
   75MOL   S17635844   1.858   0.674   2.813  0.1602  0.0600 -0.3005
   75MOL   O17735845   1.732   0.718   2.879 -0.8276  0.6257 -0.0963
   75MOL   O17835846   1.935   0.559   2.861  0.6198  0.4120 -0.1631
   75MOL   C17935847   1.815   0.647   2.640  0.4647 -0.0257 -0.0300
   75MOL   C18035848   1.920   0.623   2.553 -0.5200  0.3012  0.2306
   75MOL   C18135849   1.905   0.588   2.424  0.3494 -0.0630 -0.4497
   75MOL   C18235850   1.780   0.615   2.367  0.3332  0.5803  0.5597
   75MOL   C18335851   1.671   0.651   2.451 -0.5384  0.4904 -0.0288
   75MOL   C18435852   1.688   0.658   2.589 -0.1371  0.3504  0.2507
   75MOL   O18535853   1.769   0.612   2.230 -0.1300 -0.0123  0.8806
   75MOL   H18635854   2.284   0.865   2.903  0.2887  0.8472  0.7686
   75MOL   H18735855   2.123   0.705   2.932  3.0386  0.1953 -0.3918
   75MOL   H18835856   1.839   0.934   2.698  0.4623 -0.7213 -0.8136
   75MOL   H18935857   2.005   1.126   2.700  0.8226  0.3240  1.8317
   75MOL   H19035858   2.022   0.615   2.586 -0.0242  1.7281 -0.8846
   75MOL   H19135859   1.988   0.560   2.361  0.4767 -0.2464 -0.1981
   75MOL   H19235860   1.570   0.651   2.413 -0.6407 -0.1709  0.2298
   75MOL   H19335861   1.612   0.692   2.658  1.5750  2.0465  1.3278
   75MOL   C19435862   1.612   0.753   2.118  0.7408 -0.1084 -0.7819
   75MOL   C19535863   1.485   0.776   2.073  0.3265 -0.0249 -0.4364
   75MOL   C19635864   1.393   0.671   2.066  0.0778  0.3835 -0.5808
   75MOL   C19735865   1.420   0.543   2.122  0.1700 -0.2871 -0.5612
   75MOL   C19835866   1.548   0.519   2.183  0.0772  0.0971  0.3961
   75MOL   C19935867   1.644   0.623   2.175 -0.4197  0.2330 -0.4447
   75MOL   S20035868   1.232   0.701   2.010 -0.4530  0.4731  0.3450
   75MOL   O20135869   1.219   0.844   1.997 -0.0945 -0.1624 -0.2026
   75MOL   O20235870   1.144   0.618   2.094  0.8434  0.3801 -0.1661
   75MOL   C20335871   1.217   0.636   1.848  0.4292  0.5260  0.4117
   75MOL   C20435872   1.152   0.518   1.819  0.5513  0.6511  0.3547
   75MOL   C20535873   1.131   0.469   1.685 -0.6723  0.4048 -0.5668
   75MOL   C20635874   1.190   0.543   1.577  0.3296 -0.2512 -0.6499
   75MOL   C20735875   1.255   0.666   1.608 -0.3970  0.7747  0.3527
   75MOL   C20835876   1.270   0.709   1.741 -0.1204 -0.4722 -0.0151
   75MOL   O20935877   1.179   0.489   1.448 -0.4535 -0.1688 -0.2804
   75MOL   H21035878   1.690   0.827   2.118 -0.1913  0.8796 -0.9571
   75MOL   H21135879   1.463   0.878   2.044 -1.1297  0.4944  2.2867
   75MOL   H21235880   1.337   0.475   2.121  0.8771 -1.2326  1.7972
   75MOL   H21335881   1.573   0.428   2.236 -1.6169  0.2461  1.4873
   75MOL   H21435882   1.109   0.461   1.901 -0.7145 -0.5620 -1.1130
   75MOL   H21535883   1.083   0.376   1.658 -0.2446 -0.2607  0.8836
   75MOL   H21635884   1.288   0.726   1.524 -2.5602  0.4163 -0.7939
   75MOL   H21735885   1.315   0.807   1.752 -1.6517  0.1288  1.1872
   75MOL   C21835886   1.402   0.461   1.371 -0.1831  0.5779  0.1941
   75MOL   C21935887   1.517   0.381   1.344 -0.1136  0.1723  0.8615
   75MOL   C22035888   1.510   0.240   1.348  0.1634  0.3355  0.5590
   75MOL   C22135889   1.385   0.182   1.374 -0.3047  0.8816 -0.0459
   75MOL   C22235890   1.280   0.261   1.422  0.4767 -0.3750 -0.1296
   75MOL   C22335891   1.281   0.401   1.419 -0.5198  0.2481  0.6043
   75MOL   S22435892   1.642   0.131   1.302  0.2964  0.1721 -0.3486
   75MOL   O22535893   1.619   0.001   1.375 -0.0256 -0.1252  0.4556
   75MOL   O22635894   1.772   0.206   1.304  0.6333 -0.2206  0.6580
   75MOL   C22735895   1.611   0.098   1.129 -0.6334 -0.0334  0.0697
   75MOL   C22835896   1.641   8.400   1.071  0.0305 -0.1266 -0.0073
   75MOL   C22935897   1.625   8.384   0.930 -0.2568  0.0551  0.1026
   75MOL   C23035898   1.589   0.068   0.848 -0.3355 -0.3292  0.5560
   75MOL   C23135899   1.562   0.188   0.904  0.2486 -0.8017 -1.1162
   75MOL   C23235900   1.578   0.206   1.043 -0.0672  0.0641 -0.3043
   75MOL   O23335901   1.575   0.051   0.708  0.0082  0.2692  0.0519
   75MOL   H23435902   1.408   0.569   1.369  0.5632  0.5507  0.5728
   75MOL   H23535903   1.613   0.428   1.329 -0.5705  1.3501  1.5832
   75MOL   H23635904   1.369   0.076   1.378 -1.4206  1.0789  1.2578
   75MOL   H23735905   1.193   0.202   1.448 -0.2434 -0.4706 -2.6137
   75MOL   H23835906   1.671   8.315   1.129 -1.8752 -1.3798 -0.8200
   75MOL   H23935907   1.633   8.285   0.885 -1.8067 -0.5899  1.2349
   75MOL   H24035908   1.525   0.268   0.842  1.2528  0.5121 -0.0852
   75MOL   H24135909   1.566   0.303   1.089 -1.2166 -0.5485  0.7358
   75MOL   C24235910   1.748   0.195   0.630  0.2086  0.3818 -0.0705
   75MOL   C24335911   1.793   0.302   0.554  0.9461 -0.0537 -0.1284
   75MOL   C24435912   1.707   0.376   0.474  0.1831  0.0675 -0.4884
   75MOL   C24535913   1.573   0.335   0.472  0.1036  0.0227  0.0990
   75MOL   C24635914   1.525   0.226   0.544  0.1913 -0.3064  0.5081
   75MOL   C24735915   1.616   0.155   0.628  0.3354  0.3188  0.0978
   75MOL   S24835916   1.757   0.532   0.396 -0.4257 -0.1458 -0.0861
   75MOL   O24935917   1.903   0.533   0.374  0.1594  0.6416  0.3173
   75MOL   O25035918   1.697   0.637   0.486  0.4700  0.0455 -0.2604
   75MOL   C25135919   1.688   0.548   0.237  0.6633 -0.4884  0.3748
   75MOL   C25235920   1.767   0.526   0.119 -0.4783  0.3210 -0.2043
   75MOL   C25335921   1.705   0.543   8.418 -0.2901 -1.0618  0.2304
   75MOL   C25435922   1.579   0.599   8.406  0.5303  0.3786 -0.1006
   75MOL   C25535923   1.500   0.618   0.097  0.4716  0.4287 -0.0609
   75MOL   C25635924   1.555   0.598   0.224  0.3616 -0.1941  0.2193
   75MOL   O25735925   1.532   0.643   8.284  0.0571  0.3434  0.1028
   75MOL   H25835926   1.820   0.147   0.695  1.0074  2.2874  0.4766
   75MOL   H25935927   1.897   0.329   0.567  1.4885 -2.2742  0.4296
   75MOL   H26035928   1.495   0.385   0.416 -0.1737 -2.5772 -1.9350
   75MOL   H26135929   1.425   0.192   0.524 -0.4181  1.9909 -0.4273
   75MOL   H26235930   1.867   0.488   0.137 -0.1415  0.9791 -0.7014
   75MOL   H26335931   1.776   0.520   8.340 -0.7005 -1.5736  0.0077
   75MOL   H26435932   1.400   0.660   0.095 -0.1384 -0.9959 -0.3099
   75MOL   H26535933   1.494   0.627   0.309 -0.9171  0.2290 -0.8306
   75MOL   C26635934   1.585   0.526   8.097 -0.1272  0.3313 -0.3248
   75MOL   C26735935   1.552   0.421   8.009 -0.2109  0.5182  0.0909
   75MOL   C26835936   1.439   0.341   8.018  0.3640 -0.8658 -0.4343
   75MOL   C26935937   1.352   0.358   8.129  0.1653 -0.6911  0.4909
   75MOL   C27035938   1.378   0.467   8.217 -0.7248 -0.9157 -0.0958
   75MOL   C27135939   1.498   0.543   8.201 -0.6282 -0.1316  0.0298
   75MOL   S27235940   1.408   0.229   7.889  0.1057  0.1455  0.3952
   75MOL   O27335941   1.266   0.185   7.894  0.1451  0.0239  0.0137
   75MOL   O27435942   1.520   0.133   7.897 -0.2069 -0.2900  0.5368
   75MOL   C27535943   1.429   0.321   7.740  0.0255  0.1337 -0.5218
   75MOL   C27635944   1.470   0.260   7.623 -0.5856  0.0129 -0.1923
   75MOL   C27735945   1.500   0.336   7.509  1.1619 -0.0145 -0.6659
   75MOL   C27835946   1.487   0.477   7.506  0.0773 -0.5494 -0.6157
   75MOL   C27935947   1.445   0.537   7.624  0.1749  0.5077  0.4676
   75MOL   C28035948   1.419   0.462   7.743 -0.1350  0.0490 -0.4238
   75MOL   O28135949   1.507   0.549   7.390 -0.1038 -0.4042 -0.3675
   75MOL   H28235950   1.673   0.585   8.079  0.3965  0.2350  1.8207
   75MOL   H28335951   1.616   0.404   7.924 -1.3991  1.5478 -1.0463
   75MOL   H28435952   1.266   0.297   8.152 -0.4267 -0.3605 -0.7795
   75MOL   H28535953   1.306   0.499   8.291 -0.9385 -0.6059 -0.4364
   75MOL   H28635954   1.486   0.153   7.625 -1.1428 -0.0602  0.7884
   75MOL   H28735955   1.541   0.280   7.425 -1.8053 -1.4333 -1.2364
   75MOL   H28835956   1.423   0.642   7.620 -0.5428  0.3232 -0.5464
   75MOL   H28935957   1.384   0.515   7.830  1.1636  2.5228 -1.3580
   75MOL   C29035958   1.635   0.748   7.449 -0.4826 -0.0897  1.2968
   75MOL   C29135959   1.763   0.820   7.442 -0.1401 -0.8207 -0.1734
   75MOL   C29235960   1.876   0.773   7.371 -0.1317  0.1233  0.2296
   75MOL   C29335961   1.863   0.645   7.313  0.4765 -0.6706 -0.2461
   75MOL   C29435962   1.738   0.575   7.310  0.1896  0.0571 -0.1620
   75MOL   C29535963   1.622   0.624   7.382 -0.1562  0.3742  0.4742
   75MOL   S29635964   2.023   0.870   7.340 -0.3768 -0.0714 -0.2879
   75MOL   O29735965   2.038   0.960   7.458  0.2216  0.0445 -0.3078
   75MOL   O29835966   2.022   0.923   7.202  0.6723  0.0264 -0.0493
   75MOL   C29935967   2.151   0.744   7.338 -0.2942 -0.4405 -0.2737
   75MOL   C30035968   2.213   0.710   7.217  0.1260 -0.1523 -0.8149
   75MOL   C30135969   2.326   0.625   7.210  0.2642 -0.5270  0.4978
   75MOL   C30235970   2.376   0.573   7.334  0.6841 -0.1940 -0.1898
   75MOL   C30335971   2.310   0.591   7.456 -0.4940 -0.2877  0.1144
   75MOL   C30435972   2.206   0.682   7.458  0.2659 -0.5517  0.1128
   75MOL   O30535973   2.465   0.477   7.327  0.1051  0.1824  0.3386
   75MOL   H30635974   1.552   0.800   7.495 -0.2600  1.2659  0.2079
   75MOL   H30735975   1.764   0.919   7.484 -2.4047 -1.3522  1.1978
   75MOL   H30835976   1.936   0.612   7.242 -0.1402  1.0463 -1.7299
   75MOL   H30935977   1.726   0.481   7.258 -3.4523  0.4336 -0.1659
   75MOL   H31035978   2.165   0.745   7.127  0.1280 -1.4630 -1.3428
   75MOL   H31135979   2.375   0.617   7.114  1.3452  2.2959  0.7608
   75MOL   H31235980   2.340   0.537   7.544 -0.8286 -1.9542 -0.7762
   75MOL   H31335981   2.154   0.717   7.546 -1.5332 -3.6845  0.3597
   75MOL   C31435982   2.659   0.605   7.348  0.0146 -0.8195  0.2960
   75MOL   C31535983   2.784   0.625   7.404 -0.0924  0.2501 -0.1449
   75MOL   C31635984   2.834   0.534   7.504 -0.1040  0.1205 -0.0671
   75MOL   C31735985   2.747   0.438   7.553 -0.5417  0.6312 -0.2832
   75MOL   C31835986   2.620   0.418   7.503 -0.3350  0.6355  0.1681
   75MOL   C31935987   2.578   0.505   7.395  0.4045  0.4515 -0.1605
   75MOL   S32035988   2.999   0.563   7.574 -0.0199  0.0213  0.1347
   75MOL   O32135989   3.096   0.512   7.474 -0.5336  0.7833  0.1765
   75MOL   O32235990   3.008   0.518   7.712 -0.1912 -0.1856  0.2604
   75MOL   C32335991   3.014   0.739   7.578 -1.0552  0.1509 -0.1071
   75MOL   C32435992   2.966   0.811   7.688 -0.2996  0.3907  0.4813
   75MOL   C32535993   2.971   0.949   7.685  0.8984 -0.5710  0.1969
   75MOL   C32635994   3.037   1.022   7.581  0.8103 -0.5276  0.3548
   75MOL   C32735995   3.079   0.951   7.470 -0.4924  0.8964 -0.4866
   75MOL   C32835996   3.071   0.810   7.470  0.0023  0.2385  0.2118
   75MOL   O32935997   3.051   1.162   7.578 -0.7304 -0.0772  0.0630
   75MOL   H33035998   2.635   0.673   7.267  1.0390 -1.4035 -0.5074
   75MOL   H33135999   2.837   0.712   7.368 -0.7381  1.0851  0.8791
   75MOL   H33236000   2.785   0.383   7.637  0.3458  1.8326  0.1024
   75MOL   H33336001   2.556   0.343   7.548  0.2993  0.9691  1.6461
   75MOL   H33436002   2.931   0.765   7.779  1.2878  0.9615  1.3929
   75MOL   H33536003   2.924   1.005   7.764  1.5391 -1.5955  1.3332
   75MOL   H33636004   3.119   1.003   7.385  1.0221 -0.9453 -0.9521
   75MOL   H33736005   3.105   0.749   7.388 -0.1374  0.0503  0.2944
   75MOL   C33836006   3.025   1.271   7.789  0.7072  0.6915  0.2652
   75MOL   C33936007   2.942   1.327   7.883  0.1283 -0.0882  0.7424
   75MOL   C34036008   2.810   1.360   7.843 -0.1764 -0.1827 -0.1922
   75MOL   C34136009   2.764   1.347   7.710 -0.8226  1.7468 -0.7884
   75MOL   C34236010   2.847   1.281   7.615  0.1698  0.2494 -0.3998
   75MOL   C34336011   2.972   1.239   7.665  0.3383 -0.4707 -0.1743
   75MOL   S34436012   2.684   1.423   7.965  0.3422 -0.0922 -0.3330
   75MOL   O34536013   2.577   1.497   7.897 -0.0022  0.6496  0.4184
   75MOL   O34636014   2.765   1.483   8.072 -0.2165  0.2842 -0.1760
   75MOL   C34736015   2.599   1.280   8.041 -0.7357  0.0575  0.4802
   75MOL   C34836016   2.477   1.305   8.096  0.2020  0.2563  0.0358
   75MOL   C34936017   2.409   1.200   8.158  0.0239  0.5520  0.6612
   75MOL   C35036018   2.466   1.070   8.165 -0.1083 -0.8248 -0.3865
   75MOL   C35136019   2.589   1.050   8.100  0.3143  0.8570  0.5325
   75MOL   C35236020   2.659   1.150   8.041 -0.0901  0.4379 -0.4955
   75MOL   O35336021   2.406   0.963   8.226 -0.0795  0.0407 -0.0173
   75MOL   H35436022   3.118   1.220   7.805  0.0656 -0.3680  0.7083
   75MOL   H35536023   2.967   1.342   7.987 -4.2394 -0.9369  2.0152
   75MOL   H35636024   2.663   1.372   7.680 -1.3007 -1.8046 -2.3855
   75MOL   H35736025   2.808   1.246   7.520 -1.1314  1.3588 -0.3006
   75MOL   H35836026   2.433   1.402   8.075 -0.0911  0.0260 -0.4107
   75MOL   H35936027   2.317   1.224   8.209  0.1080  0.8103  0.6940
   75MOL   H36036028   2.620   0.946   8.091  1.6249  1.2481  0.3458
   75MOL   H36136029   2.755   1.115   8.005  1.3748  1.2146  2.4909
   75MOL   C36236030   2.181   0.882   8.199  0.1302 -0.6575  0.1402
   75MOL   C36336031   2.081   0.825   8.118 -0.3491 -0.0801 -1.0016
   75MOL   C36436032   2.113   0.779   7.987 -0.3643 -0.2393 -0.3447
   75MOL   C36536033   2.244   0.794   7.935 -0.7090  0.5386 -0.2131
   75MOL   C36636034   2.345   0.850   8.013 -1.0250 -0.1792  1.1617
   75MOL   C36736035   2.313   0.894   8.147  1.2536 -0.2188  0.0544
   75MOL   S36836036   1.976   0.722   7.888 -0.1225 -0.3526  0.2669
   75MOL   O36936037   1.891   0.644   7.980  0.7198 -0.3514 -0.4316
   75MOL   O37036038   2.023   0.665   7.762  0.4189  0.9127 -0.6570
   75MOL   C37136039   1.892   0.880   7.863  0.2772  0.4315 -0.3858
   75MOL   C37236040   1.963   1.001   7.852 -0.5446 -0.1627 -0.2289
   75MOL   C37336041   1.896   1.121   7.813  0.2541 -0.7031  0.2652
   75MOL   C37436042   1.761   1.113   7.775  0.0505 -0.6921 -0.6078
   75MOL   C37536043   1.688   0.989   7.780 -0.5003  0.1549 -0.0051
   75MOL   C37636044   1.757   0.873   7.831  0.6690 -0.2372  0.0417
   75MOL   O37736045   1.697   1.215   7.719 -0.5480 -0.2802 -0.4909
   75MOL   H37836046   2.152   0.916   8.297  0.4585 -2.2218  0.7968
   75MOL   H37936047   1.983   0.819   8.163  0.6796  3.4055  1.9487
   75MOL   H38036048   2.272   0.760   7.837 -3.8223  2.3295 -1.7709
   75MOL   H38136049   2.448   0.858   7.979 -1.0188  0.0272  1.2275
   75MOL   H38236050   2.068   1.000   7.874 -0.9457 -0.0939  1.7712
   75MOL   H38336051   1.951   1.215   7.814  1.9906 -1.7070  0.7698
   75MOL   H38436052   1.583   0.978   7.757 -0.7064 -1.3221  1.5352
   75MOL   H38536053   1.698   0.784   7.852  0.4372 -0.3043 -0.8651
   75MOL   C38636054   1.744   1.449   7.729  0.4193  0.5314 -0.4134
   75MOL   C38736055   1.811   1.561   7.677  0.1351  0.2817 -0.0036
   75MOL   C38836056   1.905   1.542   7.572  0.3653 -0.3593 -0.6505
   75MOL   C38936057   1.933   1.416   7.518  0.5699  0.0308  0.0011
   75MOL   C39036058   1.856   1.309   7.561  0.9230  0.5407  0.1243
   75MOL   C39136059   1.762   1.322   7.665 -0.0460  0.2695 -0.5346
   75MOL   S39236060   2.007   1.679   7.509 -0.3229 -0.0997 -0.5765
   75MOL   O39336061   2.146   1.630   7.488  0.5715 -0.0323 -0.2084
   75MOL   O39436062   1.998   1.792   7.604  0.5324  0.0235 -0.1068
   75MOL   C39536063   1.937   1.732   7.345 -0.9254  0.5037 -0.2513
   75MOL   C39636064   1.827   1.660   7.288  0.0913  0.0314  0.3539
   75MOL   C39736065   1.775   1.701   7.160  0.4573 -0.0150 -0.1101
   75MOL   C39836066   1.831   1.817   7.089 -1.2298  0.1694  0.1174
   75MOL   C39936067   1.934   1.884   7.148 -0.0433 -0.5268 -0.3466
   75MOL   C40036068   1.995   1.840   7.267 -0.3053  0.4039 -0.1653
   75MOL   O40136069   1.786   1.854   6.966 -0.3233  0.2342 -0.0277
   75MOL   H40236070   1.680   1.452   7.815 -0.8880  0.1036 -1.3627
   75MOL   H40336071   1.805   1.661   7.717 -0.1355  0.6867 -1.0238
   75MOL   H40436072   2.021   1.407   7.456  1.8920  1.4439  1.6059
   75MOL   H40536073   1.885   1.215   7.516 -3.2956 -1.6145  1.6770
   75MOL   H40636074   1.778   1.583   7.344 -0.9320 -1.1028 -2.0428
   75MOL   H40736075   1.689   1.648   7.122 -1.5372 -0.1556  4.3718
   75MOL   H40836076   1.973   1.967   7.089 -0.1669 -0.9907 -1.0867
   75MOL   H40936077   2.076   1.902   7.303 -0.8385  1.0353 -0.0374
   75MOL   C41036078   1.919   1.759   6.787  0.1006  0.0211  0.0711
   75MOL   C41136079   1.938   1.673   6.681 -0.5262  0.6199 -0.3677
   75MOL   C41236080   1.834   1.582   6.651  0.0096 -0.1102 -0.1920
   75MOL   C41336081   1.714   1.582   6.725 -0.1591  0.6818 -0.2131
   75MOL   C41436082   1.692   1.680   6.828 -0.1097 -0.4534 -0.5596
   75MOL   C41536083   1.799   1.762   6.863 -0.2522 -0.3925  0.2065
   75MOL   S41636084   1.861   1.467   6.507 -0.0044  0.1702 -0.2307
   75MOL   O41736085   1.826   1.333   6.554 -0.1485 -0.4852 -0.0090
   75MOL   O41836086   1.996   1.493   6.455 -0.2452 -0.3318  0.3701
   75MOL   C41936087   1.757   1.523   6.376 -0.6615  0.0899 -0.2607
   75MOL   C42036088   1.687   1.436   6.297  0.0937 -0.1480  0.3604
   75MOL   C42136089   1.613   1.487   6.188  0.3270  0.7480  0.7394
   75MOL   C42236090   1.593   1.619   6.170 -0.3880  0.6615 -0.2738
   75MOL   C42336091   1.673   1.704   6.245 -0.0856 -0.3860  0.2329
   75MOL   C42436092   1.751   1.656   6.346 -0.4449 -0.4813  0.0939
   75MOL   O42536093   1.510   1.676   6.080  0.3308  0.4754 -0.2553
   75MOL   H42636094   2.008   1.809   6.823  0.4476 -0.7841  0.3344
   75MOL   H42736095   2.027   1.660   6.622 -1.2512 -0.5114 -1.2327
   75MOL   H42836096   1.629   1.518   6.707 -0.0428  0.1010  1.2131
   75MOL   H42936097   1.594   1.692   6.872  0.3261 -0.4221  0.4080
   75MOL   H43036098   1.704   1.331   6.317  2.9153 -0.1733 -1.8697
   75MOL   H43136099   1.558   1.420   6.124 -1.6283  2.9724  0.0650
   75MOL   H43236100   1.670   1.812   6.233  0.5068 -0.6207 -2.4253
   75MOL   H43336101   1.809   1.732   6.398  2.8125 -1.1844 -2.3423
   75MOL   C43436102   1.491   1.554   5.866  0.4686 -0.0334  0.0030
   75MOL   C43536103   1.544   1.521   5.741 -0.0732 -0.6000 -0.2813
   75MOL   C43636104   1.637   1.602   5.681 -0.2938 -0.1105 -0.0423
   75MOL   C43736105   1.675   1.721   5.741  0.5341 -0.0142 -0.3113
   75MOL   C43836106   1.631   1.741   5.876 -0.3371  0.3339  0.5534
   75MOL   C43936107   1.544   1.654   5.951  0.7262 -0.9836 -0.8401
   75MOL   S44036108   1.693   1.566   5.519  0.3898 -0.0337 -0.0193
   75MOL   O44136109   1.757   1.684   5.456  0.2811  0.2249  0.2210
   75MOL   O44236110   1.573   1.511   5.453  0.1966  0.2924 -0.6540
   75MOL   C44336111   1.815   1.434   5.528 -0.3572 -0.1016 -0.1899
   75MOL   C44436112   1.920   1.435   5.436  0.2612  0.9754  0.3638
   75MOL   C44536113   2.031   1.349   5.442  0.4520  0.1476 -0.2735
   75MOL   C44636114   2.029   1.252   5.547 -0.1794  0.5020  0.0797
   75MOL   C44736115   1.915   1.248   5.634  0.0695  0.1216 -0.4185
   75MOL   C44836116   1.804   1.333   5.624  0.2749  0.0408  0.6062
   75MOL   O44936117   2.133   1.171   5.579  0.4175  0.2572  0.2439
   75MOL   H45036118   1.415   1.494   5.914 -1.3278 -0.0126 -2.7096
   75MOL   H45136119   1.510   1.433   5.689 -1.4586  1.0820 -2.2598
   75MOL   H45236120   1.746   1.787   5.695 -0.1230 -0.4911 -2.0347
   75MOL   H45336121   1.666   1.827   5.932  0.2838  1.7721 -1.9553
   75MOL   H45436122   1.920   1.512   5.360 -2.2301 -0.7950 -1.5431
   75MOL   H45536123   2.110   1.370   5.371  1.1316  2.2830  1.0791
   75MOL   H45636124   1.914   1.170   5.709 -1.7188 -0.6909 -1.2399
   75MOL   H45736125   1.726   1.333   5.698 -2.2282 -0.9237 -1.9354
   75MOL   C45836126   2.255   1.018   5.454  0.2439 -0.3336 -0.6482
   75MOL   C45936127   2.371   0.984   5.380  0.3281  0.2925 -0.8450
   75MOL   C46036128   2.452   1.086   5.327  0.0431 -0.5277  0.4368
   75MOL   C46136129   2.426   1.221   5.352  1.1765  0.1384 -0.6487
   75MOL   C46236130   2.315   1.242   5.433  0.1435 -0.2485 -0.4563
   75MOL   C46336131   2.228   1.147   5.483  0.6283  0.2329 -0.0940
   75MOL   S46436132   2.599   1.035   5.245  0.4799  0.1789  0.6524
   75MOL   O46536133   2.567   1.059   5.098  0.0141 -0.1766  0.3664
   75MOL   O46636134   2.627   0.894   5.290  0.4344 -0.5214  0.8027
   75MOL   C46736135   2.723   1.137   5.311 -0.9234 -0.6975 -0.1907
   75MOL   C46836136   2.818   1.206   5.235 -0.3812  0.4267 -0.3451
   75MOL   C46936137   2.918   1.291   5.288 -0.4013 -0.3062 -0.1985
   75MOL   C47036138   2.921   1.314   5.431  0.1300  0.4907  0.1488
   75MOL   C47136139   2.829   1.247   5.513  0.5041 -0.0934  0.3118
   75MOL   C47236140   2.739   1.152   5.453  0.8311  0.5137  0.5453
   75MOL   O47336141   3.010   1.401   5.486  0.4451  0.2210 -0.7741
   75MOL   H47436142   2.200   0.931   5.489 -2.6882  1.1702 -1.3363
   75MOL   H47536143   2.397   0.882   5.359  3.1312  1.0262 -1.1791
   75MOL   H47636144   2.477   1.308   5.312  1.6171  0.6567  1.0225
   75MOL   H47736145   2.294   1.343   5.467  1.2730 -0.9562  2.4210
   75MOL   H47836146   2.816   1.197   5.128 -2.3146  0.0169 -0.2908
   75MOL   H47936147   2.994   1.335   5.225 -0.1265  1.5633  1.3842
   75MOL   H48036148   2.844   1.269   5.618  0.0305 -0.5751  0.4843
   75MOL   H48136149   2.664   1.101   5.512 -0.5155  0.4060 -1.2425
   75MOL   H48236150   3.002   1.431   5.576  1.2296 -0.2608 -0.5458
   76MOL     C136151   8.242   7.777   7.166 -0.6040  0.0451  0.0677
   76MOL     C236152   8.242   7.756   7.027 -0.1449  0.4905 -0.1474
   76MOL     C336153   8.297   7.845   6.934 -0.2449 -0.4527 -0.2684
   76MOL     C436154   8.360   7.963   6.988 -0.6261  0.4541  0.3716
   76MOL     C536155   8.361   7.986   7.127 -0.5224  0.4162 -0.1259
   76MOL     C636156   8.307   7.894   7.214  0.3119 -0.7080  0.4807
   76MOL     S736157   8.277   7.796   6.760 -0.3060  0.0169  0.1254
   76MOL     O836158   8.346   7.665   6.752  0.2703 -0.2804  0.0619
   76MOL     O936159   8.323   7.909   6.682  0.6298  0.0961 -0.2797
   76MOL    C1036160   8.103   7.759   6.723 -0.3906  0.5949 -0.1482
   76MOL    C1136161   8.013   7.852   6.678  0.5465  0.4743 -0.0054
   76MOL    C1236162   7.880   7.817   6.637  0.9118 -0.4301 -0.4339
   76MOL    C1336163   7.839   7.681   6.644  0.2496 -0.6011  0.0590
   76MOL    C1436164   7.931   7.586   6.703  0.5574  0.2786  1.2732
   76MOL    C1536165   8.066   7.625   6.734  0.7370  0.4471 -0.5589
   76MOL    O1636166   7.706   7.651   6.617 -0.0564  0.3104  0.5380
   76MOL    H1736167   8.205   7.697   7.229 -0.5464 -0.7447 -0.8968
   76MOL    H1836168   8.207   7.658   6.995 -0.0180  0.0312  1.1033
   76MOL    H1936169   8.404   8.043   6.930 -2.2611  1.0243 -0.1142
   76MOL    H2036170   8.394   8.079   7.170 -1.1365  1.1165 -1.1412
   76MOL    H2136171   8.039   7.956   6.671 -1.7096  0.9560 -2.3545
   76MOL    H2236172   7.810   7.897   6.617  0.2431 -0.5298  1.4547
   76MOL    H2336173   7.901   7.484   6.725  2.2854 -0.1934  1.4933
   76MOL    H2436174   8.137   7.556   6.778  1.2933  1.8027  0.7405
   76MOL    H2536175   8.306   7.912   7.320 -0.2404 -0.5067  0.4452
   76MOL    C2636176   7.566   7.469   6.588 -0.3992  0.0263 -0.1011
   76MOL    C2736177   7.524   7.352   6.512 -0.1337 -0.1735  0.5707
   76MOL    C2836178   7.610   7.309   6.407  0.7922  0.7634 -0.0928
   76MOL    C2936179   7.723   7.379   6.370 -0.5664 -0.4250  0.0986
   76MOL    C3036180   7.762   7.498   6.441 -0.3416  0.0425  0.4464
   76MOL    C3136181   7.676   7.537   6.543 -0.1666 -0.1857  0.3640
   76MOL    S3236182   7.559   7.149   6.322  0.0702  0.0605  0.0856
   76MOL    O3336183   7.409   7.156   6.329  0.3021 -0.4405  0.0078
   76MOL    O3436184   7.630   7.037   6.388 -0.2301 -0.1101  0.4547
   76MOL    C3536185   7.600   7.142   6.152 -0.2436 -0.7640 -0.5189
   76MOL    C3636186   7.638   7.255   6.077 -0.4311 -0.4881 -0.3816
   76MOL    C3736187   7.670   7.249   5.942  0.3073 -0.0554  1.2456
   76MOL    C3836188   7.668   7.125   5.874  0.0949  0.4598  0.3075
   76MOL    C3936189   7.646   7.008   5.947 -0.2154 -0.1830 -0.0437
   76MOL    C4036190   7.605   7.017   6.086  0.7365 -0.1514  0.7303
   76MOL    O4136191   7.685   7.126   5.739 -0.2504  0.0039  0.6665
   76MOL    H4236192   7.509   7.513   6.668 -1.5534  0.8415 -1.3593
   76MOL    H4336193   7.435   7.295   6.533 -1.4455  1.4413 -0.4955
   76MOL    H4436194   7.789   7.334   6.297  0.1720 -1.0902  1.1779
   76MOL    H4536195   7.855   7.547   6.415 -0.2793  0.5003  1.5180
   76MOL    H4636196   7.637   7.355   6.118 -1.3666 -0.8982  0.6096
   76MOL    H4736197   7.689   7.344   5.896 -0.4627 -0.5057 -0.0417
   76MOL    H4836198   7.657   6.913   5.896  0.5584  0.0287 -0.2823
   76MOL    H4936199   7.585   6.931   6.148 -1.5988 -0.3305 -0.1989
   76MOL    C5036200   7.763   7.288   5.598 -0.7127  0.5621 -0.1562
   76MOL    C5136201   7.871   7.360   5.538 -0.1188  0.5018  1.0099
   76MOL    C5236202   8.003   7.350   5.589 -0.6144  0.0896 -0.4273
   76MOL    C5336203   8.029   7.261   5.700  0.3543 -0.3721  0.1751
   76MOL    C5436204   7.925   7.180   5.745 -0.6751  0.4368 -0.5004
   76MOL    C5536205   7.793   7.192   5.694  0.0008  0.0344 -0.1865
   76MOL    S5636206   8.131   7.445   5.512  0.0296  0.2697 -0.6737
   76MOL    O5736207   8.222   7.483   5.620 -0.2209  0.0005 -0.7371
   76MOL    O5836208   8.073   7.552   5.427  0.5877 -0.1143  0.2100
   76MOL    C5936209   8.209   7.322   5.412  0.2665 -0.3014  0.0358
   76MOL    C6036210   8.207   7.343   5.272  0.7849 -0.7797  0.0448
   76MOL    C6136211   8.270   7.252   5.188  0.1362 -0.3739  0.5091
   76MOL    C6236212   8.317   7.129   5.242 -0.7698  0.2140 -0.1813
   76MOL    C6336213   8.314   7.103   5.383 -0.0122  0.0037  0.1889
   76MOL    C6436214   8.255   7.199   5.468 -0.0996 -0.0719 -0.0559
   76MOL    O6536215   8.373   7.041   5.152 -0.0770  0.6371  0.1916
   76MOL    H6636216   7.669   7.308   5.548 -1.5511  0.7512  1.4584
   76MOL    H6736217   7.848   7.428   5.457  0.9429 -0.9338 -0.5272
   76MOL    H6836218   8.129   7.247   5.740  1.2005  1.4271 -1.2497
   76MOL    H6936219   7.938   7.102   5.819 -1.7068  0.5211 -0.2166
   76MOL    H7036220   8.139   7.417   5.232  2.0880 -0.2621 -1.2654
   76MOL    H7136221   8.262   7.266   5.081 -0.1078  1.2196  0.7289
   76MOL    H7236222   8.340   7.006   5.424 -0.2605  0.1353  0.6600
   76MOL    H7336223   8.259   7.190   5.575 -0.2657  0.5062  0.0046
   76MOL    C7436224   8.157   6.967   5.062  0.1004  0.2836  0.4919
   76MOL    C7536225   8.077   6.947   4.942  0.5139  0.8378 -0.4656
   76MOL    C7636226   8.139   6.957   4.815 -0.8903  0.1754 -0.0323
   76MOL    C7736227   8.274   6.988   4.804 -0.5910 -0.2518 -0.6072
   76MOL    C7836228   8.343   7.021   4.920 -0.0635  0.1852  0.0249
   76MOL    C7936229   8.290   7.010   5.047 -0.0463 -0.2260 -0.0809
   76MOL    S8036230   8.059   6.935   4.657 -0.0588  0.3955 -0.5169
   76MOL    O8136231   8.148   6.955   4.546 -0.1298  0.3698  0.0544
   76MOL    O8236232   7.937   7.023   4.657 -0.2921  0.2649  1.1217
   76MOL    C8336233   8.010   6.768   4.667 -0.0218 -0.3802  0.0090
   76MOL    C8436234   8.112   6.668   4.649  0.1001 -0.2864 -0.0870
   76MOL    C8536235   8.085   6.529   4.665  0.6857  0.2197  0.0995
   76MOL    C8636236   7.949   6.492   4.698  0.0185  0.2652 -0.4415
   76MOL    C8736237   7.848   6.590   4.712  0.3959  0.5691 -0.3329
   76MOL    C8836238   7.881   6.724   4.690 -0.6819  0.0715  0.0777
   76MOL    O8936239   7.923   6.357   4.711 -0.4921  0.4162 -0.5134
   76MOL    H9036240   8.108   6.971   5.158 -0.4910  1.9268  0.1470
   76MOL    H9136241   7.975   6.913   4.938  0.6448  0.5351 -1.3170
   76MOL    H9236242   8.317   6.997   4.705  1.5116  4.0927  0.5820
   76MOL    H9336243   0.022   7.047   4.906  0.6201 -0.4849  3.3563
   76MOL    H9436244   8.209   6.705   4.619  0.0513  0.5511  0.7641
   76MOL    H9536245   8.161   6.458   4.636  0.2578 -0.5119  0.7475
   76MOL    H9636246   7.746   6.557   4.705  0.0876  0.7716  2.6435
   76MOL    H9736247   7.800   6.795   4.682 -1.7091 -1.1612 -0.4579
   76MOL    C9836248   8.008   6.178   4.591 -0.3565 -0.3793  0.5868
   76MOL    C9936249   8.015   6.105   4.471 -0.2813 -0.2555 -0.0573
   76MOL   C10036250   7.928   6.132   4.363  0.5668  1.0104 -0.0335
   76MOL   C10136251   7.838   6.235   4.378 -0.0236  0.2793  0.5251
   76MOL   C10236252   7.842   6.319   4.488  0.1290  0.3162  0.2811
   76MOL   C10336253   7.923   6.288   4.594 -0.0041  0.0817  0.5414
   76MOL   S10436254   7.924   6.029   4.218 -0.0096  0.2002 -0.0296
   76MOL   O10536255   7.997   6.099   4.110  0.0423  0.2080  0.0870
   76MOL   O10636256   7.786   5.980   4.196 -0.4389 -0.4225 -0.1920
   76MOL   C10736257   8.025   5.888   4.247  0.1853 -0.1144  0.1649
   76MOL   C10836258   8.165   5.899   4.239  0.0212 -0.2934 -0.5759
   76MOL   C10936259   8.241   5.786   4.254 -0.8267  0.2165  0.5233
   76MOL   C11036260   8.182   5.657   4.282  0.8378 -0.5373  0.2688
   76MOL   C11136261   8.040   5.649   4.291 -0.1011 -0.6486  0.6645
   76MOL   C11236262   7.962   5.766   4.277  0.4595 -0.2061  0.3986
   76MOL   O11336263   8.258   5.544   4.296 -0.6216 -0.1111  0.0464
   76MOL   H11436264   8.084   6.157   4.664  0.9100 -1.4983 -1.0163
   76MOL   H11536265   8.085   6.022   4.464 -0.3437 -0.4465  1.4275
   76MOL   H11636266   7.776   6.258   4.293 -0.2182  0.9858  0.8627
   76MOL   H11736267   7.770   6.398   4.504  1.0442  1.2089  0.0213
   76MOL   H11836268   8.218   5.991   4.220  0.4814 -0.5692 -0.6260
   76MOL   H11936269   8.349   5.781   4.248 -0.7232  1.9545  0.7441
   76MOL   H12036270   7.991   5.555   4.312 -2.8709  0.9728  1.7450
   76MOL   H12136271   7.854   5.768   4.277  0.4742  0.6272  0.4854
   76MOL   C12236272   0.025   5.456   4.181  0.3516 -0.4837  0.1121
   76MOL   C12336273   0.081   5.402   4.067 -0.0441  0.3187 -0.6753
   76MOL   C12436274   8.422   5.389   3.951 -0.5128 -0.1799  0.3685
   76MOL   C12536275   8.285   5.411   3.947  0.2829  1.0630 -0.6863
   76MOL   C12636276   8.225   5.466   4.062  0.0890 -0.2259 -0.1995
   76MOL   C12736277   8.311   5.491   4.178  0.1342 -0.3184  0.1360
   76MOL   S12836278   0.077   5.363   3.796 -0.2259  0.2882  0.1009
   76MOL   O12936279   8.405   5.315   3.698 -0.2096 -0.3400 -0.2576
   76MOL   O13036280   0.194   5.277   3.815 -0.2706 -0.0585  0.7391
   76MOL   C13136281   0.151   5.506   3.726 -0.1787 -0.0552 -0.0090
   76MOL   C13236282   0.170   5.622   3.811 -0.2985 -0.2367  0.6263
   76MOL   C13336283   0.233   5.732   3.747  0.1610 -0.1379 -0.2939
   76MOL   C13436284   0.278   5.726   3.614  0.2049 -0.0870 -0.0153
   76MOL   C13536285   0.252   5.614   3.532 -0.2443 -0.4022 -0.9220
   76MOL   C13636286   0.191   5.500   3.591 -0.4490  0.7585 -1.1267
   76MOL   O13736287   0.350   5.831   3.562 -0.2325 -0.5132 -0.0202
   76MOL   H13836288   0.088   5.489   4.262  2.2579 -0.8772 -1.1829
   76MOL   H13936289   0.186   5.377   4.067  0.3620  1.9623  0.0952
   76MOL   H14036290   8.227   5.390   3.859  0.3494 -1.4797 -0.1608
   76MOL   H14136291   8.121   5.492   4.065  0.4879  1.4553 -0.2605
   76MOL   H14236292   0.136   5.613   3.913  0.6805 -1.0198  0.8892
   76MOL   H14336293   0.261   5.815   3.811 -1.2476  0.9053 -0.9986
   76MOL   H14436294   0.276   5.606   3.427  0.8282 -0.5092 -0.6687
   76MOL   H14536295   0.166   5.413   3.532 -1.1833  0.7698 -0.8318
   76MOL   C14636296   0.482   5.797   3.368 -0.0597  0.7253  0.0959
   76MOL   C14736297   0.593   5.735   3.300  0.0791 -0.0170 -0.0603
   76MOL   C14836298   0.692   5.682   3.379  0.8257  0.3297  0.0397
   76MOL   C14936299   0.687   5.691   3.513 -0.3382 -0.3094  0.3638
   76MOL   C15036300   0.571   5.743   3.582 -0.1193 -0.6870  0.1348
   76MOL   C15136301   0.464   5.796   3.505  0.0310  0.2950 -0.3763
   76MOL   S15236302   0.832   5.605   3.301 -0.1009  0.0033 -0.2043
   76MOL   O15336303   0.937   5.710   3.298  0.0267  1.0153  0.0152
   76MOL   O15436304   0.788   5.554   3.169  0.4997 -0.3300 -0.7760
   76MOL   C15536305   0.904   5.478   3.403  0.5277 -0.7240 -0.0515
   76MOL   C15636306   0.828   5.395   3.479 -0.0257  0.9576  0.2499
   76MOL   C15736307   0.890   5.309   3.570  0.2680 -0.0691  0.0722
   76MOL   C15836308   1.029   5.297   3.587 -0.3781 -0.0559 -0.0897
   76MOL   C15936309   1.106   5.388   3.515  0.8029 -0.3024 -0.2532
   76MOL   C16036310   1.044   5.481   3.429 -0.2506  0.0893  0.1011
   76MOL   O16136311   1.088   5.206   3.664  0.0197  0.6161 -0.4307
   76MOL   H16236312   0.402   5.838   3.308 -0.6296 -0.8081 -0.2216
   76MOL   H16336313   0.594   5.748   3.193  0.2880 -1.2441 -0.2121
   76MOL   H16436314   0.768   5.651   3.572  1.0043 -0.0031 -1.2301
   76MOL   H16536315   0.560   5.741   3.689 -1.3358  0.2869  0.0379
   76MOL   H16636316   0.721   5.385   3.476  0.0816 -0.5626  0.9063
   76MOL   H16736317   0.831   5.243   3.632  0.0373  1.0810  1.0982
   76MOL   H16836318   1.213   5.382   3.524  0.6441  1.0733  3.5941
   76MOL   H16936319   1.109   5.543   3.369 -0.5184 -2.2748 -2.7389
   76MOL   C17036320   1.250   5.308   3.812  0.5477  0.0547 -0.7534
   76MOL   C17136321   1.382   5.317   3.854  0.6477  0.3031  0.2023
   76MOL   C17236322   1.480   5.242   3.784 -0.4835 -0.7738  0.4233
   76MOL   C17336323   1.449   5.154   3.682  1.0580  0.3148 -1.4637
   76MOL   C17436324   1.313   5.139   3.651  0.0385  0.2017 -0.2411
   76MOL   C17536325   1.215   5.222   3.706 -0.3718 -0.1581  0.2800
   76MOL   S17636326   1.647   5.268   3.824 -0.2978 -0.4860  0.4017
   76MOL   O17736327   1.720   5.142   3.809  0.5511 -0.7651  0.0851
   76MOL   O17836328   1.661   5.348   3.948 -0.5728  0.2380 -0.1921
   76MOL   C17936329   1.703   5.384   3.698  0.1187  0.1267 -0.5593
   76MOL   C18036330   1.647   5.514   3.681 -0.2118  0.2030  0.5135
   76MOL   C18136331   1.661   5.585   3.565  0.0086 -0.3414 -0.2098
   76MOL   C18236332   1.757   5.539   3.468  0.3562  0.1700 -0.8355
   76MOL   C18336333   1.820   5.414   3.484 -0.0540  0.3379 -0.7761
   76MOL   C18436334   1.784   5.329   3.598 -0.0129  0.5648 -0.5275
   76MOL   O18536335   1.792   5.610   3.354 -0.0172 -0.1735  0.5241
   76MOL   H18636336   1.171   5.365   3.859 -0.3349 -1.1489 -0.7799
   76MOL   H18736337   1.401   5.385   3.936 -2.8370 -1.0234  2.1865
   76MOL   H18836338   1.520   5.087   3.637  0.3056 -2.4895  1.3349
   76MOL   H18936339   1.291   5.060   3.580 -0.9360 -0.2968  0.6023
   76MOL   H19036340   1.582   5.557   3.756 -1.1187 -2.9913  1.6449
   76MOL   H19136341   1.616   5.683   3.564 -0.8948 -0.7514  0.4912
   76MOL   H19236342   1.884   5.380   3.404 -0.5697 -1.8446 -0.2935
   76MOL   H19336343   1.824   5.230   3.608 -0.4755 -0.0132 -3.9370
   76MOL   C19436344   1.820   5.609   3.120 -0.0361 -0.5336  0.3084
   76MOL   C19536345   1.780   5.568   2.990 -0.3676 -0.3275 -0.2711
   76MOL   C19636346   1.679   5.478   2.970 -0.5672 -0.5700 -0.0268
   76MOL   C19736347   1.604   5.443   3.084 -0.0489  0.5806 -0.2768
   76MOL   C19836348   1.636   5.489   3.211 -0.2473 -0.2776 -0.6135
   76MOL   C19936349   1.746   5.570   3.229  0.0020  0.1029  0.2322
   76MOL   S20036350   1.619   5.432   2.806  0.0830 -0.3496  0.4581
   76MOL   O20136351   1.611   5.557   2.727 -0.3569 -0.5116  0.4850
   76MOL   O20236352   1.489   5.363   2.809  0.1874 -0.0518  0.1598
   76MOL   C20336353   1.743   5.330   2.735  0.0814 -0.0869  0.1508
   76MOL   C20436354   1.881   5.357   2.741 -0.9726 -0.0267  0.0038
   76MOL   C20536355   1.975   5.266   2.681  0.0897  0.1418 -0.3771
   76MOL   C20636356   1.928   5.154   2.621  0.7848  0.3150  0.5157
   76MOL   C20736357   1.798   5.123   2.621  1.0305  0.4641  0.6210
   76MOL   C20836358   1.703   5.213   2.675 -0.0271  0.2285  0.6131
   76MOL   O20936359   2.017   5.076   2.548 -0.1673 -0.4551 -0.5018
   76MOL   H21036360   1.902   5.675   3.146  1.4158 -1.2391 -2.3088
   76MOL   H21136361   1.837   5.597   2.903 -1.8423  2.2343 -0.4265
   76MOL   H21236362   1.513   5.387   3.071  0.5319 -1.2517  2.8145
   76MOL   H21336363   1.568   5.466   3.293  1.1828  0.3741  0.7797
   76MOL   H21436364   1.904   5.457   2.777 -0.4232  0.5835 -2.0003
   76MOL   H21536365   2.080   5.288   2.671  0.3063 -1.0741 -0.8117
   76MOL   H21636366   1.758   5.048   2.555 -0.3307  1.0099  0.8114
   76MOL   H21736367   1.598   5.188   2.671 -0.0081 -0.0245  1.5627
   76MOL   C21836368   2.065   4.865   2.663  1.2165 -0.2435 -0.0862
   76MOL   C21936369   2.066   4.730   2.664  0.2266 -0.0821  0.4120
   76MOL   C22036370   2.021   4.658   2.551 -0.8808  0.3789  0.3160
   76MOL   C22136371   1.983   4.726   2.432 -0.0765  0.2470  0.3549
   76MOL   C22236372   1.977   4.869   2.437  0.4476  0.0108  0.0886
   76MOL   C22336373   2.017   4.940   2.553  0.3182 -0.2501  0.1921
   76MOL   S22436374   2.004   4.479   2.566 -0.1489  0.3870 -0.0538
   76MOL   O22536375   1.980   4.442   2.703  0.0895 -0.2644 -0.0193
   76MOL   O22636376   2.122   4.415   2.498  0.5111 -0.5758 -0.3582
   76MOL   C22736377   1.855   4.438   2.485  0.3403 -0.5697  0.3828
   76MOL   C22836378   1.840   4.322   2.406 -0.3862 -0.5774 -0.3864
   76MOL   C22936379   1.719   4.295   2.338  0.6632  0.0472  0.0308
   76MOL   C23036380   1.607   4.370   2.363 -0.4311  0.8068 -0.4274
   76MOL   C23136381   1.621   4.484   2.454  0.7171  1.4604 -0.6129
   76MOL   C23236382   1.743   4.526   2.509 -0.2686 -0.3979  0.2528
   76MOL   O23336383   1.492   4.334   2.302 -0.4340 -0.0132  0.7459
   76MOL   H23436384   2.104   4.923   2.745  1.3995  0.2571 -0.5241
   76MOL   H23536385   2.106   4.671   2.745  1.3641  0.7782  0.4949
   76MOL   H23636386   1.928   4.679   2.352 -1.1180  2.5970 -0.3472
   76MOL   H23736387   1.939   4.930   2.357  1.7871  2.0939  0.9998
   76MOL   H23836388   1.928   4.259   2.401 -0.1011 -0.5133  2.8883
   76MOL   H23936389   1.717   4.219   2.262  1.5149  1.7046 -1.6778
   76MOL   H24036390   1.534   4.544   2.477  0.7096  1.2284 -0.0360
   76MOL   H24136391   1.751   4.606   2.582  0.2370 -0.3520  0.1517
   76MOL   C24236392   1.262   4.400   2.288  0.1045 -0.0238 -0.1721
   76MOL   C24336393   1.154   4.485   2.262 -0.5564 -0.4216 -0.0493
   76MOL   C24436394   1.182   4.613   2.217 -0.0739 -0.5504 -0.1882
   76MOL   C24536395   1.320   4.652   2.195  0.1562  0.0849  0.1997
   76MOL   C24636396   1.425   4.563   2.217 -0.3634  0.1554 -0.0260
   76MOL   C24736397   1.395   4.435   2.271  0.4863  0.3390 -0.0445
   76MOL   S24836398   1.048   4.739   2.172 -0.0850  0.2431  0.0166
   76MOL   O24936399   0.937   4.655   2.129 -0.0267 -0.0900 -0.2018
   76MOL   O25036400   1.103   4.841   2.085  0.6244 -0.2670  0.1177
   76MOL   C25136401   0.974   4.822   2.317 -0.0307  0.3220  0.1542
   76MOL   C25236402   0.989   4.770   2.452 -0.3162  0.3313  0.0433
   76MOL   C25336403   0.938   4.840   2.564 -0.7750  0.8283 -0.8311
   76MOL   C25436404   0.876   4.965   2.543  0.0349 -0.2298 -0.1830
   76MOL   C25536405   0.858   5.018   2.416 -0.4365  0.4295  0.2010
   76MOL   C25636406   0.906   4.943   2.305 -0.2600 -0.2438 -0.2970
   76MOL   O25736407   0.825   5.037   2.647  0.3202  0.2886 -0.5270
   76MOL   H25836408   1.237   4.302   2.327 -0.6084  0.1520 -0.1825
   76MOL   H25936409   1.056   4.441   2.274 -0.1744 -0.6595  2.5322
   76MOL   H26036410   1.333   4.754   2.160 -0.3248  0.1662  0.2607
   76MOL   H26136411   1.521   4.612   2.213 -0.3305  0.0514 -0.4909
   76MOL   H26236412   1.049   4.681   2.468  1.1970  1.4728  0.8020
   76MOL   H26336413   0.945   4.800   2.664  0.6525  3.0429 -0.0121
   76MOL   H26436414   0.796   5.106   2.401 -2.5792 -0.9617  0.5967
   76MOL   H26536415   0.884   4.969   2.203 -0.1828 -0.0166 -0.2539
   76MOL   C26636416   0.659   5.091   2.812  0.3708  1.0798  0.2178
   76MOL   C26736417   0.545   5.063   2.883 -0.2556  0.4888 -0.6743
   76MOL   C26836418   0.463   4.956   2.843  0.6337 -0.6770  0.1467
   76MOL   C26936419   0.507   4.869   2.745  0.3714  0.1625 -0.2358
   76MOL   C27036420   0.627   4.896   2.669  0.3933 -0.5180 -0.4685
   76MOL   C27136421   0.704   5.011   2.702  0.7569 -0.1218  0.4122
   76MOL   S27236422   0.297   4.952   2.912 -0.2552 -0.0594 -0.5434
   76MOL   O27336423   0.284   5.047   3.023 -0.0199 -0.4043 -0.5999
   76MOL   O27436424   0.265   4.813   2.931 -0.1361 -0.2988  0.5897
   76MOL   C27536425   0.177   5.015   2.785 -0.8879 -0.8929  0.0855
   76MOL   C27636426   0.179   4.958   2.656  0.3631 -0.2795  0.4270
   76MOL   C27736427   0.113   5.015   2.547  0.1894  0.5311  0.4290
   76MOL   C27836428   0.028   5.123   2.564 -0.7415  0.4967  0.4525
   76MOL   C27936429   0.028   5.188   2.694  0.0345  0.1050 -0.7249
   76MOL   C28036430   0.102   5.133   2.802 -0.2553 -0.0288 -0.2928
   76MOL   O28136431   8.386   5.185   2.459 -0.6266 -0.1137 -0.5697
   76MOL   H28236432   0.718   5.173   2.853  0.4539  1.4214 -0.5717
   76MOL   H28336433   0.511   5.133   2.958  2.6587  2.0959 -0.7745
   76MOL   H28436434   0.444   4.784   2.726  0.3078  0.0977  0.2428
   76MOL   H28536435   0.662   4.817   2.604 -0.7602 -0.3180 -1.3384
   76MOL   H28636436   0.240   4.870   2.646 -1.3348 -1.3445 -0.8780
   76MOL   H28736437   0.126   4.969   2.450 -2.1037  1.4881 -0.3609
   76MOL   H28836438   8.403   5.283   2.708 -3.4297 -1.5556 -1.2721
   76MOL   H28936439   0.107   5.188   2.895  0.2320  1.8544 -1.4079
   76MOL   C29036440   8.284   5.014   2.321  1.2552  0.3268  0.2019
   76MOL   C29136441   8.162   4.950   2.272 -0.6515  0.1337 -0.3053
   76MOL   C29236442   8.040   5.019   2.288 -0.2224 -1.0444 -0.4292
   76MOL   C29336443   8.034   5.129   2.378 -0.8145 -0.2820  0.7407
   76MOL   C29436444   8.151   5.176   2.440  0.4162 -0.2700 -0.1857
   76MOL   C29536445   8.273   5.123   2.408  0.4853  0.1895 -0.5609
   76MOL   S29636446   7.892   4.967   2.207 -0.1914  0.2510  0.3987
   76MOL   O29736447   7.789   4.955   2.308  0.2508 -0.1203  0.1209
   76MOL   O29836448   7.922   4.852   2.124  0.1309  1.5084 -0.3078
   76MOL   C29936449   7.848   5.115   2.101  1.1753  0.4793  0.2488
   76MOL   C30036450   7.948   5.203   2.051  0.4848  0.1375 -0.4777
   76MOL   C30136451   7.911   5.321   1.971  0.3661  0.1482 -0.2972
   76MOL   C30236452   7.774   5.341   1.941  0.3879  0.7072  0.0187
   76MOL   C30336453   7.676   5.251   1.992 -0.3423 -0.1774  0.0955
   76MOL   C30436454   7.713   5.141   2.069  0.1304  0.1882 -0.3321
   76MOL   O30536455   7.726   5.450   1.883  0.0444  0.6342  0.4098
   76MOL   H30636456   8.374   4.962   2.290  1.3333  0.1957  0.6491
   76MOL   H30736457   8.165   4.861   2.210 -0.0462  0.4885 -0.7923
   76MOL   H30836458   7.942   5.179   2.404 -1.2995 -0.4952 -0.5303
   76MOL   H30936459   8.145   5.256   2.513  0.9477  1.3210 -1.8426
   76MOL   H31036460   8.052   5.189   2.074  1.3710  4.8212 -1.0777
   76MOL   H31136461   7.985   5.392   1.938 -0.4525  1.4675  0.6313
   76MOL   H31236462   7.572   5.267   1.970 -0.3549 -0.5310 -0.1023
   76MOL   H31336463   7.649   5.070   2.119  2.7132 -1.3800  0.9057
   76MOL   C31436464   7.859   5.468   1.686 -0.1551  0.7616 -0.3004
   76MOL   C31536465   7.859   5.484   1.549 -0.2428 -0.0589  0.0787
   76MOL   C31636466   7.741   5.482   1.471 -0.5332  0.6559  0.0306
   76MOL   C31736467   7.616   5.471   1.532  0.2636 -0.4566 -0.5921
   76MOL   C31836468   7.613   5.442   1.668  0.3410  0.2898 -0.5722
   76MOL   C31936469   7.732   5.444   1.748  0.6252  0.7357  0.1222
   76MOL   S32036470   7.755   5.506   1.294  0.1365  0.1781  0.4371
   76MOL   O32136471   7.898   5.494   1.265  0.6124 -0.3851 -0.0668
   76MOL   O32236472   7.687   5.629   1.258 -0.3048 -0.2036 -0.0001
   76MOL   C32336473   7.672   5.364   1.218  0.2876 -0.9279  0.0520
   76MOL   C32436474   7.747   5.246   1.216 -0.2586 -0.2656  0.1275
   76MOL   C32536475   7.702   5.135   1.135 -0.4240  0.0567 -0.7043
   76MOL   C32636476   7.583   5.152   1.064  0.2296  0.3545  0.1293
   76MOL   C32736477   7.506   5.271   1.073 -0.0367  1.1566  0.8771
   76MOL   C32836478   7.552   5.381   1.148 -0.0460  0.1759  0.0294
   76MOL   O32936479   7.534   5.048   1.000 -0.7773 -0.2047  0.0114
   76MOL   H33036480   7.954   5.483   1.736  0.5417  1.0099 -1.6554
   76MOL   H33136481   7.952   5.491   1.494 -0.7778  2.6012 -0.5581
   76MOL   H33236482   7.524   5.485   1.478  0.5751  2.9768 -0.3286
   76MOL   H33336483   7.519   5.423   1.717 -1.4112 -1.2351 -4.3109
   76MOL   H33436484   7.846   5.241   1.259  0.5838 -2.9796 -1.9756
   76MOL   H33536485   7.767   5.050   1.126 -0.9575 -0.4626  0.2925
   76MOL   H33636486   7.417   5.279   1.013 -0.0070 -1.6388  0.3796
   76MOL   H33736487   7.513   5.481   1.142  0.1732  0.5022  3.0724
   76MOL   C33836488   7.676   4.897   0.886 -0.2608  0.7091 -0.0789
   76MOL   C33936489   7.753   4.859   0.780 -0.0155  0.1384  0.0226
   76MOL   C34036490   7.759   4.942   0.665 -1.3956  0.0291  0.1444
   76MOL   C34136491   7.684   5.061   0.658  0.3062 -0.2482  0.0621
   76MOL   C34236492   7.607   5.099   0.767  0.4378 -0.7575 -0.6618
   76MOL   C34336493   7.606   5.016   0.887  0.1049 -0.7090  0.3664
   76MOL   S34436494   7.860   4.909   0.522  0.2381 -0.2146  0.2031
   76MOL   O34536495   8.002   4.910   0.567  0.4461 -0.0382 -0.0760
   76MOL   O34636496   7.815   5.003   0.411  0.5288 -0.1000  0.3191
   76MOL   C34736497   7.831   4.739   0.468  0.1633 -0.5645 -0.1539
   76MOL   C34836498   7.701   4.695   0.445  0.9064  1.3077  0.2300
   76MOL   C34936499   7.674   4.558   0.416  0.3676  0.5626 -0.9004
   76MOL   C35036500   7.785   4.474   0.396  0.7745  0.2071  0.1698
   76MOL   C35136501   7.919   4.530   0.389 -0.1521  0.5980  0.0394
   76MOL   C35236502   7.944   4.656   0.448  0.0892  0.0988  0.9198
   76MOL   O35336503   7.781   4.334   0.365 -0.2245 -0.6675  0.0085
   76MOL   H35436504   7.676   4.831   0.972  1.3713  0.4175 -0.2670
   76MOL   H35536505   7.803   4.764   0.794  1.6428  1.5058  4.0624
   76MOL   H35636506   7.677   5.118   0.567 -2.5384 -2.3841 -1.1180
   76MOL   H35736507   7.545   5.187   0.761  3.9466  2.0914  2.3630
   76MOL   H35836508   7.610   4.751   0.462 -0.4916 -0.9084  0.3081
   76MOL   H35936509   7.569   4.535   0.405  0.1287  1.6596 -1.0129
   76MOL   H36036510   7.998   4.458   0.377  0.5252  1.2514  0.5448
   76MOL   H36136511   8.040   4.701   0.466 -0.2675  0.8010  1.0951
   76MOL   C36236512   7.755   4.163   0.542  0.7168 -0.3387 -0.4929
   76MOL   C36336513   7.671   4.072   0.604  0.6226  0.5567  0.0278
   76MOL   C36436514   7.534   4.068   0.570  0.4341 -0.5008 -0.1457
   76MOL   C36536515   7.484   4.151   0.471  0.6840  0.2483  0.7799
   76MOL   C36636516   7.564   4.244   0.409  0.3196 -0.4076  0.3267
   76MOL   C36736517   7.701   4.254   0.442 -0.1422  0.2676 -0.1015
   76MOL   S36836518   7.428   3.954   0.662  0.1026 -0.2001  0.0025
   76MOL   O36936519   7.303   4.022   0.705 -0.3988 -0.2691 -0.4525
   76MOL   O37036520   7.514   3.889   0.763 -0.8431 -0.5129  0.3524
   76MOL   C37136521   7.384   3.831   0.542 -0.2606  0.0887 -0.0583
   76MOL   C37236522   7.478   3.750   0.479 -0.1975  0.4585  0.0088
   76MOL   C37336523   7.444   3.659   0.368  0.1023 -0.1245 -0.8597
   76MOL   C37436524   7.307   3.654   0.331 -0.0341 -0.1530 -0.2228
   76MOL   C37536525   7.213   3.737   0.401  0.3309 -0.2720 -0.1266
   76MOL   C37636526   7.250   3.821   0.505  0.1242 -0.2334  0.7498
   76MOL   O37736527   7.268   3.583   0.224 -0.0215  0.2257 -0.4605
   76MOL   H37836528   7.863   4.169   0.551  0.6253 -1.5758  1.9372
   76MOL   H37936529   7.705   4.019   0.691  1.4323 -0.4750 -0.8940
   76MOL   H38036530   7.380   4.143   0.442  0.5315  0.8557  1.1620
   76MOL   H38136531   7.526   4.303   0.326 -0.5466 -1.1790  0.1683
   76MOL   H38236532   7.574   3.748   0.527 -1.4262 -1.0171  2.4713
   76MOL   H38336533   7.524   3.603   0.322  1.9191  1.5983  0.1213
   76MOL   H38436534   7.108   3.738   0.376 -0.1648 -0.4211  1.8990
   76MOL   H38536535   7.180   3.887   0.553 -0.8909 -1.6781  1.3001
   76MOL   C38636536   7.292   3.348   0.292 -0.1594 -0.0958  0.3412
   76MOL   C38736537   7.224   3.225   0.317 -0.0243 -0.2525  0.0587
   76MOL   C38836538   7.088   3.214   0.298 -0.8395  0.5495  0.6731
   76MOL   C38936539   7.016   3.326   0.245  0.7458 -0.2600  0.2827
   76MOL   C39036540   7.078   3.453   0.230 -0.3217 -0.0072  0.1173
   76MOL   C39136541   7.214   3.463   0.254 -0.1976  0.0193 -0.2158
   76MOL   S39236542   6.993   3.064   0.322 -0.0889 -0.2166 -0.1288
   76MOL   O39336543   7.093   2.957   0.302  0.6541 -0.1460  0.3404
   76MOL   O39436544   6.876   3.067   0.231 -0.1571  0.6070 -0.4469
   76MOL   C39536545   6.936   3.064   0.499  0.5042  0.1093  0.2324
   76MOL   C39636546   6.833   3.144   0.549  0.7445 -1.0121 -0.2605
   76MOL   C39736547   6.792   3.137   0.684  0.3435  0.1365 -0.4928
   76MOL   C39836548   6.853   3.052   0.773 -0.0802 -0.9536 -0.2429
   76MOL   C39936549   6.952   2.968   0.729 -0.7465  0.0863  0.2098
   76MOL   C40036550   6.988   2.967   0.588  0.4053 -0.6928 -0.1352
   76MOL   O40136551   6.813   3.036   0.904  0.0783 -0.1302  0.2920
   76MOL   H40236552   7.399   3.358   0.304  0.1962  0.4391 -2.8103
   76MOL   H40336553   7.281   3.138   0.347  3.4740  1.5156 -1.1331
   76MOL   H40436554   6.910   3.326   0.223  0.9555  2.3293 -0.9864
   76MOL   H40536555   7.018   3.539   0.203  1.2119  1.8504  2.3853
   76MOL   H40636556   6.786   3.201   0.470  1.1259 -0.0845  0.1810
   76MOL   H40736557   6.716   3.206   0.720  0.8351 -0.2945  1.4285
   76MOL   H40836558   6.995   2.895   0.797 -0.2157 -0.1653 -0.3788
   76MOL   H40936559   7.063   2.894   0.561 -0.3130 -0.4729 -2.8870
   76MOL   C41036560   6.837   3.255   0.994  0.2293 -0.4125  1.1554
   76MOL   C41136561   6.776   3.369   1.050 -0.8404 -0.2527 -0.3616
   76MOL   C41236562   6.636   3.373   1.067  0.4960  0.6916  0.2498
   76MOL   C41336563   6.553   3.266   1.022  0.3541 -0.1971 -0.0317
   76MOL   C41436564   6.613   3.146   0.978  0.5540  0.0618 -0.1540
   76MOL   C41536565   6.757   3.145   0.959 -0.3856 -0.6549  0.1564
   76MOL   S41636566   6.555   3.519   1.139 -0.3170 -0.1571 -0.3703
   76MOL   O41736567   6.659   3.609   1.195 -0.1711  0.3422  0.1437
   76MOL   O41836568   6.453   3.462   1.232  0.2762  0.0478 -0.2693
   76MOL   C41936569   6.477   3.605   1.003  0.4774 -0.6843 -0.0128
   76MOL   C42036570   6.338   3.590   0.978 -0.3184  0.6794  0.2143
   76MOL   C42136571   6.279   3.633   0.861  0.2981  0.4633  0.2845
   76MOL   C42236572   6.361   3.694   0.761 -0.3379  0.1555 -0.5965
   76MOL   C42336573   6.492   3.733   0.792  0.0794  0.2496 -0.0010
   76MOL   C42436574   6.548   3.687   0.915  0.4576  0.5090 -0.8392
   76MOL   O42536575   6.302   3.717   0.640  0.1912  0.2519 -0.3722
   76MOL   H42636576   6.945   3.260   0.994  0.3237 -2.0784  0.0393
   76MOL   H42736577   6.831   3.453   1.090 -3.4165  1.5759 -0.6116
   76MOL   H42836578   6.445   3.265   1.025  0.2628  2.4176 -0.8303
   76MOL   H42936579   6.548   3.061   0.964 -0.4607  0.6166  1.1459
   76MOL   H43036580   6.278   3.524   1.040  0.4966 -0.4510 -0.1893
   76MOL   H43136581   6.175   3.608   0.841  0.5276 -0.2158 -0.0817
   76MOL   H43236582   6.546   3.790   0.718 -0.0182  0.1870 -0.1190
   76MOL   H43336583   6.652   3.697   0.941  0.2946  0.4762 -0.1655
   76MOL   C43436584   6.366   3.771   0.415  0.4729  0.2578 -0.1332
   76MOL   C43536585   6.447   3.742   0.303  0.1310 -0.2771 -0.3829
   76MOL   C43636586   6.520   3.620   0.299  0.0108  0.4198  0.1348
   76MOL   C43736587   6.519   3.534   0.407 -0.7671  0.5730 -0.0477
   76MOL   C43836588   6.453   3.574   0.527 -0.4696  0.0714  0.2386
   76MOL   C43936589   6.377   3.693   0.528  0.0477  0.3068  0.5195
   76MOL   S44036590   6.624   3.590   0.161 -0.1997 -0.0419  0.2984
   76MOL   O44136591   6.756   3.574   0.224 -0.6470 -0.6179 -0.1926
   76MOL   O44236592   6.602   3.697   0.061 -0.4257 -0.5799  0.3132
   76MOL   C44336593   6.572   3.438   0.087 -0.3135 -0.0095  0.2914
   76MOL   C44436594   6.474   3.440   8.412 -0.2486 -0.3481  0.7040
   76MOL   C44536595   6.427   3.317   8.359 -0.2913 -0.8244 -0.0636
   76MOL   C44636596   6.476   3.198   8.410  0.6311 -1.2747  0.3175
   76MOL   C44736597   6.582   3.189   0.078 -0.1469 -0.3881  0.5401
   76MOL   C44836598   6.625   3.315   0.128  0.2026 -0.2137 -0.1793
   76MOL   O44936599   6.420   3.078   8.367  0.3838  0.3696  0.0264
   76MOL   H45036600   6.309   3.862   0.422  1.6055  1.1372 -2.1115
   76MOL   H45136601   6.457   3.816   0.224  2.9313  2.0524  2.0325
   76MOL   H45236602   6.572   3.441   0.391 -1.8162 -0.4600  2.1682
   76MOL   H45336603   6.464   3.505   0.609 -0.0461  0.1459  0.2461
   76MOL   H45436604   6.432   3.532   8.375 -1.2094 -0.9860  0.1840
   76MOL   H45536605   6.364   3.314   8.272  0.0104 -0.7811 -0.2846
   76MOL   H45636606   6.628   3.100   0.116  1.3424  0.3791  0.5782
   76MOL   H45736607   6.696   3.316   0.209 -0.1891 -0.6973  0.1770
   76MOL   C45836608   6.247   2.946   8.267  0.3087 -0.5825  0.1717
   76MOL   C45936609   6.117   2.911   8.235 -0.7753  0.1433 -0.1423
   76MOL   C46036610   6.016   3.005   8.268 -0.7840 -0.5358  0.5165
   76MOL   C46136611   6.050   3.119   8.349 -0.3138 -0.0175  1.1647
   76MOL   C46236612   6.178   3.144   8.394 -0.1903 -0.3404  0.5245
   76MOL   C46336613   6.283   3.065   8.339  0.2180  1.0887 -0.2491
   76MOL   S46436614   5.849   2.985   8.216  0.0986  0.2137 -0.1739
   76MOL   O46536615   5.829   2.841   8.199  0.1282 -0.8551 -0.2162
   76MOL   O46636616   5.828   3.077   8.106  0.0112  0.1494  0.7978
   76MOL   C46736617   5.748   3.044   8.353 -0.4008 -0.7609  0.8019
   76MOL   C46836618   5.733   3.180   8.382 -0.5367 -1.3446  0.0494
   76MOL   C46936619   5.656   3.219   0.063  0.0963 -0.2503  0.7486
   76MOL   C47036620   5.593   3.123   0.145 -0.2102 -0.0319  0.3996
   76MOL   C47136621   5.610   2.984   0.123  0.3392 -0.0512 -0.2443
   76MOL   C47236622   5.682   2.943   0.009 -0.2819 -0.0613 -0.3916
   76MOL   O47336623   5.499   3.164   0.234  0.0083  0.5076  0.4302
   76MOL   H47436624   6.329   2.893   8.220  0.7020  0.9293 -0.8844
   76MOL   H47536625   6.102   2.827   8.168  1.8901 -3.4121  3.5153
   76MOL   H47636626   5.979   3.200   8.361  0.7307  1.8453 -3.9230
   76MOL   H47736627   6.202   3.227   0.034  0.1430 -2.1355  2.7275
   76MOL   H47836628   5.775   3.267   8.333 -0.6185  0.8252  3.6230
   76MOL   H47936629   5.645   3.325   0.084 -0.0131 -0.3042  0.9613
   76MOL   H48036630   5.555   2.915   0.185 -0.5867  1.5898  0.7871
   76MOL   H48136631   5.701   2.837   8.425  0.2180 -0.1463  1.3413
   76MOL   H48236632   5.470   3.098   0.296 -0.3909  0.3269  0.0515
   77MOL     C136633   2.186   3.077   3.298  0.3289 -0.7449 -0.3129
   77MOL     C236634   2.138   2.956   3.353  0.0991 -0.0162 -1.0212
   77MOL     C336635   2.035   2.882   3.295 -0.2076 -0.7773  0.4411
   77MOL     C436636   1.965   2.938   3.179 -0.4662 -0.9448 -0.2968
   77MOL     C536637   2.011   3.059   3.128  0.4561  0.1485 -1.1205
   77MOL     C636638   2.117   3.131   3.189  0.1759  0.1227  0.1625
   77MOL     S736639   1.980   2.731   3.375  0.0742  0.2531  0.0556
   77MOL     O836640   1.834   2.748   3.389  0.0489 -0.1733  0.0539
   77MOL     O936641   2.058   2.711   3.498  0.3001 -0.1103  0.0650
   77MOL    C1036642   2.017   2.594   3.262  0.6539 -0.4159  0.8170
   77MOL    C1136643   1.925   2.547   3.167  0.2744  0.3921  0.0654
   77MOL    C1236644   1.956   2.432   3.086  0.1727  0.1345 -0.2485
   77MOL    C1336645   2.075   2.362   3.101  0.3153 -0.4926 -0.9855
   77MOL    C1436646   2.167   2.412   3.194  0.0841 -0.1318  0.6630
   77MOL    C1536647   2.141   2.526   3.272 -0.0813  0.4448 -0.2382
   77MOL    O1636648   2.105   2.247   3.041 -0.3822  0.0173  0.2222
   77MOL    H1736649   2.250   3.141   3.357  0.2383  0.1519 -1.1701
   77MOL    H1836650   2.183   2.917   3.443 -2.9024 -0.8060  0.1784
   77MOL    H1936651   1.882   2.881   3.140 -1.5917  1.2208 -1.1423
   77MOL    H2036652   1.952   3.104   3.050 -0.2299 -1.0340 -1.3089
   77MOL    H2136653   1.832   2.598   3.148  0.2999  0.9481  1.3648
   77MOL    H2236654   1.880   2.393   3.020  0.9758 -1.2958 -0.3519
   77MOL    H2336655   2.254   2.350   3.208  0.3431  0.3668  1.2565
   77MOL    H2436656   2.215   2.563   3.341  0.5586  1.9514 -1.7082
   77MOL    H2536657   2.136   3.234   3.162  0.2133  0.1982  0.4749
   77MOL    C2636658   2.106   2.350   2.821 -0.5214 -0.5120 -0.2281
   77MOL    C2736659   2.100   2.330   2.680  0.3105 -0.5476 -0.4641
   77MOL    C2836660   2.104   2.203   2.624 -0.4231  0.4794  0.3408
   77MOL    C2936661   2.117   2.091   2.708 -0.4875  0.1964 -0.2797
   77MOL    C3036662   2.095   2.112   2.845  0.8023 -0.1811  0.1422
   77MOL    C3136663   2.102   2.240   2.905 -0.9686  0.3395 -0.3421
   77MOL    S3236664   2.111   2.177   2.452  0.3229 -0.3591 -0.0482
   77MOL    O3336665   2.175   2.299   2.394  0.1055 -0.5930  0.1267
   77MOL    O3436666   1.970   2.142   2.411 -0.1972 -0.3947 -0.5276
   77MOL    C3536667   2.209   2.029   2.413  0.4866 -0.7198  0.1585
   77MOL    C3636668   2.348   2.030   2.424  0.1795 -0.1106 -0.5724
   77MOL    C3736669   2.422   1.921   2.384 -0.5134  0.4458 -0.5322
   77MOL    C3836670   2.367   1.807   2.318  0.8809 -0.1308 -0.8365
   77MOL    C3936671   2.225   1.811   2.297 -0.6544  0.9586 -0.5190
   77MOL    C4036672   2.152   1.921   2.345  0.4117  0.6525 -0.0380
   77MOL    O4136673   2.456   1.704   2.290  0.5550 -0.5725  0.1578
   77MOL    H4236674   2.108   2.451   2.860 -0.1292  0.1159 -1.8406
   77MOL    H4336675   2.097   2.415   2.614 -0.3693 -1.1428 -1.2098
   77MOL    H4436676   2.128   1.990   2.669 -1.4978 -1.5570  3.7747
   77MOL    H4536677   2.101   2.020   2.900  1.6369 -0.2711 -0.0816
   77MOL    H4636678   2.399   2.105   2.483 -1.4814  1.3576 -0.9362
   77MOL    H4736679   2.530   1.919   2.382 -0.4740 -0.9546  1.4901
   77MOL    H4836680   2.171   1.736   2.242 -0.1459 -0.5561  1.0046
   77MOL    H4936681   2.045   1.935   2.341  0.3678 -0.0805 -1.7223
   77MOL    C5036682   2.358   1.491   2.331  0.4572 -0.3205  0.0326
   77MOL    C5136683   2.327   1.360   2.285 -0.2736  0.0750  0.6816
   77MOL    C5236684   2.342   1.322   2.145  0.0957  0.0010  0.4311
   77MOL    C5336685   2.376   1.423   2.054  0.4470  0.0361 -0.6187
   77MOL    C5436686   2.404   1.557   2.103  0.0926  0.0225  0.1580
   77MOL    C5536687   2.401   1.586   2.241  0.4728 -0.1798 -0.4669
   77MOL    S5636688   2.303   1.157   2.083 -0.0907 -0.1412  0.1638
   77MOL    O5736689   2.417   1.115   1.999 -0.1582  0.2127  1.1805
   77MOL    O5836690   2.170   1.177   2.029 -0.7164 -0.0631 -0.3153
   77MOL    C5936691   2.289   1.047   2.222  0.5177  0.0313 -0.0101
   77MOL    C6036692   2.395   1.013   2.301 -0.0749  0.5049 -0.5217
   77MOL    C6136693   2.377   0.924   2.409 -0.0719  0.7069  0.4777
   77MOL    C6236694   2.252   0.865   2.439  0.0591 -0.3427  0.2978
   77MOL    C6336695   2.150   0.892   2.350  0.7760 -0.0699 -0.3064
   77MOL    C6436696   2.165   0.981   2.240  0.4094 -0.5401  0.6892
   77MOL    O6536697   2.225   0.770   2.530  0.5731  0.4257 -0.6052
   77MOL    H6636698   2.348   1.511   2.437 -0.0552 -0.4482  0.0079
   77MOL    H6736699   2.298   1.292   2.364 -0.6805 -2.5837 -1.6562
   77MOL    H6836700   2.377   1.406   1.948  0.1981  4.4272 -1.4268
   77MOL    H6936701   2.430   1.630   2.028  0.9060  0.7538  1.1439
   77MOL    H7036702   2.492   1.058   2.285  0.9825 -1.0936  1.2243
   77MOL    H7136703   2.465   0.894   2.465  1.0900 -2.9613 -3.0614
   77MOL    H7236704   2.053   0.852   2.375  1.3380  0.6286  3.2605
   77MOL    H7336705   2.078   1.003   2.179  1.1210  0.3513 -0.0082
   77MOL    C7436706   2.427   0.714   2.657  0.6888  0.1152  0.5366
   77MOL    C7536707   2.528   0.625   2.678  0.1104  0.4817 -0.3573
   77MOL    C7636708   2.535   0.505   2.608  1.4170  0.5526 -0.3379
   77MOL    C7736709   2.439   0.469   2.519 -0.3488  0.1261 -0.7568
   77MOL    C7836710   2.336   0.561   2.491 -0.3877 -0.6570  0.4421
   77MOL    C7936711   2.327   0.686   2.558 -1.0464  0.2131  0.4381
   77MOL    S8036712   2.688   0.403   2.629 -0.1852 -0.0311  0.2754
   77MOL    O8136713   2.672   0.276   2.556  0.3331 -0.4796  0.1097
   77MOL    O8236714   2.725   0.397   2.774  0.5048  0.3992 -0.0166
   77MOL    C8336715   2.816   0.492   2.552  0.5879  0.6846 -0.2716
   77MOL    C8436716   2.938   0.420   2.543 -0.1950  0.7891 -0.0945
   77MOL    C8536717   3.055   0.483   2.505 -0.0119  0.3361  0.3226
   77MOL    C8636718   3.052   0.619   2.477  0.1636  0.7979 -0.0903
   77MOL    C8736719   2.927   0.688   2.472 -0.2015  0.3276 -0.6335
   77MOL    C8836720   2.806   0.629   2.510  0.9874  0.4851 -0.2866
   77MOL    O8936721   3.165   0.683   2.447 -1.0036  0.4162 -0.3199
   77MOL    H9036722   2.421   0.811   2.704 -2.3739  0.3012 -0.1176
   77MOL    H9136723   2.606   0.647   2.750 -2.0964  0.2624  2.1945
   77MOL    H9236724   2.439   0.368   2.481  0.1590 -0.3936  0.6222
   77MOL    H9336725   2.262   0.535   2.416 -0.5230 -1.0616  0.7087
   77MOL    H9436726   2.939   0.314   2.565  1.8261  0.7053 -0.4704
   77MOL    H9536727   3.142   0.420   2.518 -0.7646 -0.7387  0.2087
   77MOL    H9636728   2.934   0.791   2.440  0.9472  0.4916  0.1092
   77MOL    H9736729   2.717   0.690   2.513  1.7352  1.5508  1.1489
   77MOL    C9836730   3.143   0.665   2.206  0.4782 -0.3581 -0.3502
   77MOL    C9936731   3.133   0.744   2.089  0.0098  0.4441 -0.6220
   77MOL   C10036732   3.173   0.881   2.093  0.5488  0.0704  0.0274
   77MOL   C10136733   3.214   0.944   2.213 -0.6194 -0.6417 -0.2694
   77MOL   C10236734   3.219   0.872   2.333 -0.1845  0.7443  0.4386
   77MOL   C10336735   3.178   0.734   2.325 -0.1741 -0.0292 -0.0140
   77MOL   S10436736   3.198   0.977   1.951  0.3764 -0.0855  0.1457
   77MOL   O10536737   3.161   1.115   1.985  0.4958 -0.0363  0.1311
   77MOL   O10636738   3.129   0.903   1.841  0.5893  0.6549  0.3671
   77MOL   C10736739   3.375   0.968   1.911 -0.7387  0.4737 -0.7821
   77MOL   C10836740   3.454   0.850   1.909 -0.5143  0.0290  0.4055
   77MOL   C10936741   3.592   0.856   1.866 -0.8003 -0.0988 -0.0231
   77MOL   C11036742   3.652   0.982   1.841 -0.0378 -0.7065  0.4182
   77MOL   C11136743   3.578   1.100   1.849  0.0705 -0.3305  0.0123
   77MOL   C11236744   3.436   1.090   1.878  0.1415 -0.7598 -0.6822
   77MOL   O11336745   3.780   0.995   1.810  0.0437  0.4469 -0.0873
   77MOL   H11436746   3.121   0.560   2.207 -2.3509  0.1646 -2.2339
   77MOL   H11536747   3.096   0.702   1.997  2.0214 -1.0557 -0.7847
   77MOL   H11636748   3.250   1.045   2.200  0.1275 -0.6267  1.7400
   77MOL   H11736749   3.241   0.912   2.431  4.5432 -2.2343  0.7610
   77MOL   H11836750   3.415   0.758   1.951  0.9567 -1.8290 -2.1349
   77MOL   H11936751   3.662   0.774   1.867  0.4293  0.8790 -2.5789
   77MOL   H12036752   3.614   1.200   1.827 -2.7094  0.5592 -0.6328
   77MOL   H12136753   3.375   1.179   1.874  0.2859 -0.5775  0.9803
   77MOL   C12236754   3.799   0.880   1.593  0.2044  0.6163  0.3425
   77MOL   C12336755   3.832   0.883   1.459  0.8588  0.7775  0.4090
   77MOL   C12436756   3.856   1.005   1.402 -0.0595  0.1630 -0.7430
   77MOL   C12536757   3.863   1.123   1.484  0.3375 -0.2361  0.3753
   77MOL   C12636758   3.839   1.119   1.620 -0.1645  0.1850 -0.3002
   77MOL   C12736759   3.802   0.997   1.674 -0.5403  0.2204  0.0617
   77MOL   S12836760   3.899   1.020   1.232  0.0777 -0.0616  0.0516
   77MOL   O12936761   3.934   0.891   1.177 -0.1008 -0.2153  0.5952
   77MOL   O13036762   3.997   1.132   1.215  0.3817 -0.1175  0.4072
   77MOL   C13136763   3.735   1.071   1.166 -0.4497  0.1510  0.5899
   77MOL   C13236764   3.651   0.970   1.110 -0.3985 -0.1196 -1.4086
   77MOL   C13336765   3.524   0.998   1.072 -0.1484  0.0762 -0.0037
   77MOL   C13436766   3.479   1.136   1.063  0.4847  0.6731  0.3528
   77MOL   C13536767   3.566   1.235   1.113  0.3455  0.3676  0.9019
   77MOL   C13636768   3.691   1.199   1.169  0.4726 -0.4052 -0.1754
   77MOL   O13736769   3.351   1.165   1.025  0.5802 -0.6197  0.1183
   77MOL   H13836770   3.772   0.784   1.635 -0.2212 -0.2077 -1.7882
   77MOL   H13936771   3.848   0.798   1.394 -1.2144  0.5852  0.1279
   77MOL   H14036772   3.891   1.212   1.430  1.2662 -1.0751 -0.5665
   77MOL   H14136773   3.850   1.202   1.688  0.8810  0.3387 -0.6454
   77MOL   H14236774   3.687   0.868   1.112  0.6642  0.2383 -2.1648
   77MOL   H14336775   3.464   0.919   1.029 -0.8917  1.3021 -1.2570
   77MOL   H14436776   3.537   1.338   1.125 -0.9090  0.1546 -0.2158
   77MOL   H14536777   3.757   1.278   1.203  0.2420 -0.5842  0.7058
   77MOL   C14636778   3.281   1.325   1.197  0.1932  0.0827 -0.1583
   77MOL   C14736779   3.215   1.440   1.231 -0.4174  0.2928 -0.8858
   77MOL   C14836780   3.141   1.507   1.139  0.3321  0.1767  0.3666
   77MOL   C14936781   3.126   1.458   1.008  0.6220 -0.5336 -0.8623
   77MOL   C15036782   3.190   1.338   0.970  0.4626 -0.0346  0.2633
   77MOL   C15136783   3.276   1.275   1.065  0.7866  0.4965 -0.1295
   77MOL   S15236784   3.051   1.654   1.191  0.3054 -0.2143 -0.3727
   77MOL   O15336785   2.919   1.622   1.245  0.2289  0.1129 -0.3145
   77MOL   O15436786   3.056   1.739   1.070 -0.3068  0.6663 -0.1824
   77MOL   C15536787   3.143   1.747   1.313  0.1858  0.0571 -0.4303
   77MOL   C15636788   3.092   1.764   1.447 -0.0771  0.5306  0.3836
   77MOL   C15736789   3.182   1.824   1.541  0.3925 -0.1955  0.6445
   77MOL   C15836790   3.303   1.876   1.508 -0.3330 -0.7598  0.1738
   77MOL   C15936791   3.346   1.861   1.377 -0.1138  0.2682 -0.0519
   77MOL   C16036792   3.272   1.791   1.280 -0.0701 -0.4178 -0.0786
   77MOL   O16136793   3.391   1.928   1.602 -0.3148  0.6070 -0.0265
   77MOL   H16236794   3.342   1.269   1.267  1.5453 -0.1896 -1.5276
   77MOL   H16336795   3.220   1.477   1.333  0.2275  1.1097 -1.2078
   77MOL   H16436796   3.054   1.503   0.942 -0.2238 -0.7588 -0.0991
   77MOL   H16536797   3.164   1.306   0.870 -0.1336  4.4948 -1.1061
   77MOL   H16636798   2.994   1.729   1.477 -0.4872  1.3541  0.0127
   77MOL   H16736799   3.158   1.838   1.646 -0.0088  1.9014  0.2921
   77MOL   H16836800   3.439   1.904   1.344 -0.1953  1.1883  0.9031
   77MOL   H16936801   3.311   1.788   1.179  0.6325  1.5597  0.1230
   77MOL   C17036802   3.539   1.736   1.593  0.1824 -0.0324  0.0273
   77MOL   C17136803   3.644   1.658   1.651  0.6311 -0.8225  0.1746
   77MOL   C17236804   3.683   1.687   1.780 -0.2137  0.7713  0.2721
   77MOL   C17336805   3.625   1.793   1.853 -0.8685 -0.3661 -0.5574
   77MOL   C17436806   3.528   1.878   1.798 -0.3119  0.5594  0.1466
   77MOL   C17536807   3.481   1.846   1.667  0.0527  0.1640  0.3268
   77MOL   S17636808   3.804   1.569   1.858 -0.3020  0.3723 -0.2799
   77MOL   O17736809   3.748   1.433   1.863  0.1870 -0.0932 -0.4137
   77MOL   O17836810   3.852   1.633   1.985  0.5532 -0.1229  0.4109
   77MOL   C17936811   3.946   1.573   1.747  0.2419 -0.0461  0.1407
   77MOL   C18036812   3.993   1.694   1.702 -0.5780 -0.1285 -0.5140
   77MOL   C18136813   4.100   1.702   1.612  0.0076  0.1699  0.0041
   77MOL   C18236814   4.159   1.586   1.562 -0.6844  0.4610  0.4487
   77MOL   C18336815   4.119   1.461   1.614  0.1139 -0.0880  0.0213
   77MOL   C18436816   4.010   1.456   1.709  0.2845 -0.0711 -0.3567
   77MOL   O18536817   4.242   1.585   1.454  0.4672  0.1502  0.2970
   77MOL   H18636818   3.511   1.704   1.494  0.4952 -0.0452 -0.0569
   77MOL   H18736819   3.686   1.573   1.600 -0.3746 -0.1373 -1.8250
   77MOL   H18836820   3.647   1.803   1.958  0.2237  0.4039 -0.8510
   77MOL   H18936821   3.492   1.967   1.846 -0.4316  1.2788 -1.2325
   77MOL   H19036822   3.941   1.780   1.740  0.1833 -0.0450  0.3465
   77MOL   H19136823   4.121   1.804   1.584 -2.2516  1.0358  1.3615
   77MOL   H19236824   4.163   1.367   1.585 -0.7484 -0.0540 -1.4772
   77MOL   H19336825   3.964   1.362   1.737  1.2994 -0.1234  1.1878
   77MOL   C19436826   4.451   1.546   1.344 -0.5923 -0.4580  0.6990
   77MOL   C19536827   4.589   1.524   1.340 -0.1264  0.0468 -0.0511
   77MOL   C19636828   4.661   1.506   1.457  0.7586  0.4205 -0.4548
   77MOL   C19736829   4.585   1.504   1.576  0.0979  0.8476  0.3059
   77MOL   C19836830   4.448   1.524   1.576 -0.2699  0.4871 -0.3583
   77MOL   C19936831   4.376   1.551   1.459  0.1898  0.2270  0.3325
   77MOL   S20036832   4.840   1.483   1.453 -0.0171  0.1407  0.7234
   77MOL   O20136833   4.879   1.507   1.595 -0.3323  0.0725  0.0479
   77MOL   O20236834   4.892   1.568   1.350  0.0556  0.2486 -0.2773
   77MOL   C20336835   4.857   1.308   1.419  0.2698 -0.1219  0.1066
   77MOL   C20436836   4.875   1.221   1.527  0.0784  0.6155 -0.0180
   77MOL   C20536837   4.886   1.089   1.493 -0.2660 -0.0576  0.2551
   77MOL   C20636838   4.888   1.040   1.359  0.0991 -0.3828 -0.0483
   77MOL   C20736839   4.863   1.133   1.252  0.7387 -0.2882 -0.4377
   77MOL   C20836840   4.860   1.274   1.282  0.4572  0.2020 -0.7553
   77MOL   O20936841   4.918   0.908   1.326 -0.3075 -0.5183  0.5212
   77MOL   H21036842   4.409   1.569   1.247  0.3968  2.1399  0.8432
   77MOL   H21136843   4.637   1.532   1.243  1.8398  0.0231  0.9002
   77MOL   H21236844   4.631   1.481   1.671  2.2526 -3.0991 -1.5607
   77MOL   H21336845   4.401   1.521   1.673  1.1665 -2.2450  0.3107
   77MOL   H21436846   4.875   1.254   1.629 -0.4677  1.0410 -0.1548
   77MOL   H21536847   4.894   1.013   1.569  0.0906 -1.0644 -0.7802
   77MOL   H21636848   4.855   1.095   1.151 -0.2015  1.2351 -0.9398
   77MOL   H21736849   4.856   1.352   1.208  1.5901  1.0966  0.1125
   77MOL   C21836850   4.692   0.813   1.358 -0.4486 -0.1055 -0.3122
   77MOL   C21936851   4.605   0.714   1.318  0.1551  0.4284 -0.2301
   77MOL   C22036852   4.615   0.654   1.197  0.1462  0.4808 -0.2367
   77MOL   C22136853   4.729   0.672   1.117  0.4830  1.0227 -0.0387
   77MOL   C22236854   4.828   0.763   1.158 -0.2534 -0.2685 -0.1589
   77MOL   C22336855   4.808   0.835   1.279 -0.0700 -0.2835 -0.5836
   77MOL   S22436856   4.494   0.528   1.156 -0.2178 -0.1824 -0.0038
   77MOL   O22536857   4.382   0.529   1.252  0.7438 -0.1442 -0.4566
   77MOL   O22636858   4.576   0.402   1.146 -0.2125 -0.3380  0.3322
   77MOL   C22736859   4.434   0.563   0.996 -0.0872  0.1932 -0.0397
   77MOL   C22836860   4.473   0.674   0.915 -0.3680 -0.3281  0.0878
   77MOL   C22936861   4.394   0.710   0.802  0.0162 -0.1512  0.0897
   77MOL   C23036862   4.298   0.613   0.752  0.1012  0.3297 -0.6829
   77MOL   C23136863   4.274   0.493   0.821 -0.2826 -0.3099  0.8097
   77MOL   C23236864   4.329   0.482   0.951 -0.1293  0.4588  0.2592
   77MOL   O23336865   4.225   0.648   0.644 -0.1489 -0.5146  0.1362
   77MOL   H23436866   4.683   0.849   1.460 -0.7620 -0.9624 -0.0311
   77MOL   H23536867   4.523   0.685   1.382  0.4642  0.0438 -0.0084
   77MOL   H23636868   4.751   0.617   1.027 -2.3447 -0.6427  0.2458
   77MOL   H23736869   4.919   0.773   1.101  0.2547 -1.0819  0.5003
   77MOL   H23836870   4.549   0.738   0.958 -0.5727 -0.2267  0.2972
   77MOL   H23936871   4.402   0.806   0.753 -0.3078 -0.8048 -1.2586
   77MOL   H24036872   4.215   0.411   0.785  2.2806 -1.1205 -1.7176
   77MOL   H24136873   4.300   0.394   1.006 -3.1271  1.5600  0.5236
   77MOL   C24236874   4.000   0.634   0.568 -0.5206  0.3524  0.4674
   77MOL   C24336875   3.858   0.649   0.577 -0.2707  0.3285 -0.4298
   77MOL   C24436876   3.818   0.724   0.690  0.0485 -0.3298  0.1222
   77MOL   C24536877   3.905   0.781   0.783 -0.1377  0.4715 -0.0885
   77MOL   C24636878   4.043   0.755   0.767  0.4426 -0.2134  0.6332
   77MOL   C24736879   4.091   0.676   0.664  0.8899 -0.1434 -0.2455
   77MOL   S24836880   3.641   0.746   0.713 -0.0566 -0.3219  0.4928
   77MOL   O24936881   3.578   0.759   0.577 -0.5422 -0.5030 -0.6833
   77MOL   O25036882   3.626   0.866   0.800  0.0744 -0.0708  0.6307
   77MOL   C25136883   3.580   0.609   0.811 -0.7992 -0.0536 -0.1075
   77MOL   C25236884   3.446   0.614   0.865 -0.6388  0.5452 -0.1918
   77MOL   C25336885   3.389   0.488   0.907  0.2233 -0.0357  0.5332
   77MOL   C25436886   3.465   0.372   0.926 -0.4393 -0.4459  0.1447
   77MOL   C25536887   3.596   0.372   0.868 -0.1346 -0.6183 -0.2639
   77MOL   C25636888   3.656   0.490   0.819 -0.5176  0.4403  1.3372
   77MOL   O25736889   3.418   0.251   0.985 -0.0429 -0.6177 -0.1718
   77MOL   H25836890   4.025   0.581   0.477 -1.9608 -1.3531  1.0525
   77MOL   H25936891   3.790   0.617   0.500  0.3503 -1.8378 -0.1128
   77MOL   H26036892   3.868   0.838   0.867  0.7260 -2.0449  2.0531
   77MOL   H26136893   4.116   0.782   0.843  2.5031 -0.2285 -1.2781
   77MOL   H26236894   3.375   0.694   0.851 -2.1061 -0.4977  1.0046
   77MOL   H26336895   3.284   0.492   0.935 -0.8918 -2.5309 -2.9469
   77MOL   H26436896   3.652   0.280   0.871  2.4563  0.9614  1.2293
   77MOL   H26536897   3.755   0.476   0.778 -1.6196 -2.1498 -0.6094
   77MOL   C26636898   3.361   0.355   1.198 -0.2012 -0.5892 -0.8101
   77MOL   C26736899   3.264   0.371   1.303 -0.3889 -0.2539 -0.1816
   77MOL   C26836900   3.179   0.262   1.331 -0.7130 -0.3628  0.3876
   77MOL   C26936901   3.154   0.162   1.234  0.0948  0.2690 -0.6259
   77MOL   C27036902   3.228   0.164   1.115 -0.8444 -0.1499  0.0419
   77MOL   C27136903   3.340   0.252   1.101  0.7423 -0.0734 -0.3089
   77MOL   S27236904   3.069   0.273   1.473  0.0374  0.1511  0.4566
   77MOL   O27336905   2.934   0.285   1.407 -0.8143 -0.0592 -0.1991
   77MOL   O27436906   3.106   0.383   1.563  0.5299 -0.1908  0.5210
   77MOL   C27536907   3.076   0.112   1.556 -1.0107 -0.0160  0.0592
   77MOL   C27636908   3.181   0.018   1.537 -0.0278  0.5829  0.3242
   77MOL   C27736909   3.181   8.309   1.591  0.2747 -0.2791  0.1768
   77MOL   C27836910   3.059   8.271   1.651  0.1869 -0.2471 -0.1728
   77MOL   C27936911   2.959   8.361   1.676  0.4591 -0.0411  0.1784
   77MOL   C28036912   2.969   0.062   1.622 -0.0707 -0.4802 -0.5675
   77MOL   O28136913   3.050   8.147   1.706 -0.1403  0.4994 -0.1895
   77MOL   H28236914   3.444   0.424   1.197 -0.8796  0.3255  2.1260
   77MOL   H28336915   3.279   0.453   1.372  1.5746  1.5299 -2.6458
   77MOL   H28436916   3.078   0.085   1.244 -1.7873  2.3622  1.9443
   77MOL   H28536917   3.217   0.089   1.038  0.1800  0.2604 -0.5149
   77MOL   H28636918   3.272   0.033   1.480  0.8402 -3.5101  0.4601
   77MOL   H28736919   3.266   8.245   1.576 -0.5009 -1.3398  0.3020
   77MOL   H28836920   2.879   8.331   1.743  0.0017  1.6483  0.4167
   77MOL   H28936921   2.889   0.134   1.634 -0.6266 -1.6647  3.4138
   77MOL   C29036922   2.928   7.955   1.682  0.4507  0.7446 -0.0445
   77MOL   C29136923   2.876   7.845   1.607 -0.1511  0.4125 -0.1097
   77MOL   C29236924   2.936   7.823   1.479  0.0278 -0.6155 -0.2890
   77MOL   C29336925   3.028   7.916   1.431  0.5469 -0.5284 -0.3349
   77MOL   C29436926   3.066   8.026   1.503 -0.2914 -0.6478 -0.0247
   77MOL   C29536927   3.018   8.042   1.630 -0.8147 -0.7651 -0.1516
   77MOL   S29636928   2.884   7.684   1.380  0.4120  0.2755 -0.0716
   77MOL   O29736929   3.010   7.633   1.328 -0.1815 -0.4695 -0.8465
   77MOL   O29836930   2.787   7.730   1.283 -0.2361  0.2386 -0.0553
   77MOL   C29936931   2.819   7.551   1.479 -0.2040  0.2792  0.1723
   77MOL   C30036932   2.716   7.480   1.421  0.1522  0.1999 -0.4009
   77MOL   C30136933   2.672   7.368   1.486 -0.3829  0.9896 -0.0237
   77MOL   C30236934   2.717   7.330   1.613  0.3244 -0.3481  0.0696
   77MOL   C30336935   2.816   7.412   1.670 -0.4281 -0.1033 -0.4159
   77MOL   C30436936   2.869   7.525   1.604  0.0330 -0.3895 -0.1799
   77MOL   O30536937   2.662   7.227   1.684  0.0538  0.6817  0.0127
   77MOL   H30636938   2.885   7.979   1.779  2.1922 -1.8042  1.4250
   77MOL   H30736939   2.798   7.779   1.642  0.8484 -1.3345 -1.0865
   77MOL   H30836940   3.064   7.917   1.329 -0.7468  1.0931 -0.7922
   77MOL   H30936941   3.138   8.097   1.464  0.1483  0.0872  2.0637
   77MOL   H31036942   2.683   7.500   1.320 -1.3715  2.0810  0.4248
   77MOL   H31136943   2.592   7.315   1.437  0.4268 -0.6927  0.4647
   77MOL   H31236944   2.853   7.384   1.767 -1.8725  0.8171  0.4145
   77MOL   H31336945   2.956   7.579   1.638 -1.1559  0.1900  2.0102
   77MOL   C31436946   2.541   7.159   1.877  0.2312  0.0290 -0.1228
   77MOL   C31536947   2.450   7.190   1.980  0.1435  0.9767  0.2829
   77MOL   C31636948   2.418   7.318   2.011 -0.6645  0.1537 -0.3394
   77MOL   C31736949   2.472   7.423   1.929  0.4323 -0.2171 -0.4739
   77MOL   C31836950   2.541   7.397   1.810 -0.7181 -0.0333 -0.0271
   77MOL   C31936951   2.584   7.263   1.790  0.1593  0.3215 -0.3613
   77MOL   S32036952   2.330   7.343   2.159 -0.2272 -0.3017  0.2201
   77MOL   O32136953   2.418   7.343   2.276 -0.2944 -0.2859  0.2665
   77MOL   O32236954   2.221   7.246   2.154  0.3238 -0.0628  0.3988
   77MOL   C32336955   2.263   7.506   2.158  0.2237 -0.6007  0.8284
   77MOL   C32436956   2.346   7.616   2.197 -0.2193  0.2270 -0.4357
   77MOL   C32536957   2.291   7.742   2.198 -0.2544  0.7274 -0.5118
   77MOL   C32636958   2.154   7.764   2.167 -0.8107  0.2134  0.2270
   77MOL   C32736959   2.074   7.656   2.123  0.2053  0.0432 -0.3718
   77MOL   C32836960   2.127   7.527   2.124  0.0885 -0.4989 -0.0808
   77MOL   O32936961   2.100   7.888   2.171 -0.0613 -0.8316 -0.3765
   77MOL   H33036962   2.581   7.059   1.869 -0.0583  0.0610 -2.5336
   77MOL   H33136963   2.426   7.115   2.054 -3.5522  0.4860 -1.3468
   77MOL   H33236964   2.443   7.525   1.953 -2.1370 -1.3554  1.5889
   77MOL   H33336965   2.568   7.482   1.750  1.0981 -0.6627 -0.1261
   77MOL   H33436966   2.449   7.601   2.226  0.5679  1.9023 -2.2667
   77MOL   H33536967   2.355   7.825   2.225  1.0912 -0.6079  0.4714
   77MOL   H33636968   1.974   7.682   2.088 -1.0186 -3.7792  0.1152
   77MOL   H33736969   2.068   7.440   2.097 -0.8374  0.1549 -0.1835
   77MOL   C33836970   2.189   8.034   1.999  0.5167  0.2400  0.2633
   77MOL   C33936971   2.261   8.148   1.964  0.3370 -0.4002  0.0613
   77MOL   C34036972   2.315   8.231   2.059  0.1136 -0.2743  0.5262
   77MOL   C34136973   2.302   8.199   2.194  0.0023  0.0117 -0.1688
   77MOL   C34236974   2.225   8.086   2.232 -0.5171 -0.0570 -0.2836
   77MOL   C34336975   2.171   7.999   2.135  0.5805 -0.2438  0.2597
   77MOL   S34436976   2.400   8.376   1.999 -0.0149 -0.2976  0.1929
   77MOL   O34536977   2.406   8.369   1.853 -0.1294 -1.0301  0.7545
   77MOL   O34636978   2.531   8.374   2.067 -0.7491  0.0466 -0.2154
   77MOL   C34736979   2.309   0.096   2.049  0.3800 -0.9558 -0.4563
   77MOL   C34836980   2.206   0.101   2.144 -0.1406 -0.7367 -0.5879
   77MOL   C34936981   2.158   0.231   2.181  0.2982  0.3452 -0.1348
   77MOL   C35036982   2.206   0.353   2.126 -0.0984 -0.4292  0.4251
   77MOL   C35136983   2.309   0.342   2.029 -0.3571  0.5005 -0.0612
   77MOL   C35236984   2.359   0.216   1.992 -0.4232  0.6742 -0.5220
   77MOL   O35336985   2.165   0.472   2.163 -0.6118  0.1051 -0.0386
   77MOL   H35436986   2.141   7.984   1.917  1.4713 -0.1445 -0.0625
   77MOL   H35536987   2.265   8.178   1.860  0.1595  2.1886  0.7624
   77MOL   H35636988   2.356   8.256   2.268  0.0573 -0.3780  0.0865
   77MOL   H35736989   2.210   8.066   2.337  0.7047  2.5855  0.4286
   77MOL   H35836990   2.165   0.006   2.174  1.2232 -0.4466  2.3423
   77MOL   H35936991   2.077   0.240   2.253  1.3836 -0.0441  1.1653
   77MOL   H36036992   2.339   0.432   1.978  0.5459 -1.0268 -2.3098
   77MOL   H36136993   2.435   0.197   1.917 -0.5688 -2.4461  0.0379
   77MOL   C36236994   1.987   0.549   2.011  0.4932 -0.1519 -0.3547
   77MOL   C36336995   1.932   0.659   1.935  0.4457  0.0819  0.8029
   77MOL   C36436996   2.011   0.777   1.915 -0.5950  0.1382 -0.0226
   77MOL   C36536997   2.146   0.780   1.958  0.8658  0.9429 -0.0053
   77MOL   C36636998   2.193   0.677   2.044 -0.4675 -0.2819  1.0390
   77MOL   C36736999   2.116   0.562   2.069  0.7225  0.3411 -0.0364
   77MOL   S36837000   1.918   0.921   1.842 -0.2544  0.0039  0.2248
   77MOL   O36937001   1.857   0.997   1.953  0.8155  0.4662 -0.6654
   77MOL   O37037002   1.831   0.869   1.736 -0.3777  0.2515  0.2830
   77MOL   C37137003   2.043   1.022   1.753 -0.5465 -0.1475 -0.7994
   77MOL   C37237004   2.137   0.957   1.674  0.5497 -0.4873 -0.1028
   77MOL   C37337005   2.227   1.042   1.605 -0.6362 -0.4883 -0.1565
   77MOL   C37437006   2.222   1.185   1.603  0.4339 -0.1910  0.7793
   77MOL   C37537007   2.133   1.249   1.691 -0.0524  0.3405  0.1922
   77MOL   C37637008   2.036   1.164   1.764 -0.8029  0.2708  0.1327
   77MOL   O37737009   2.310   1.251   1.522  0.1999 -0.7734 -0.4000
   77MOL   H37837010   1.926   0.466   2.042 -0.4360  0.6824  0.1037
   77MOL   H37937011   1.829   0.662   1.901  0.2649 -0.2882  1.3036
   77MOL   H38037012   2.201   0.870   1.934  0.7777  0.9019 -0.3654
   77MOL   H38137013   2.290   0.688   2.090  0.0952  3.4719 -0.8751
   77MOL   H38237014   2.127   0.850   1.665 -2.8891 -0.5084  2.6827
   77MOL   H38337015   2.302   1.003   1.537  0.3148  1.4404 -0.2755
   77MOL   H38437016   2.129   1.357   1.703  0.2627  1.0455 -5.0508
   77MOL   H38537017   1.953   1.207   1.819 -0.5560  0.2645  0.5115
   77MOL   C38637018   2.431   1.461   1.512 -0.1775 -0.0243 -0.6919
   77MOL   C38737019   2.523   1.547   1.574 -0.5083 -0.0556 -0.1774
   77MOL   C38837020   2.589   1.501   1.692  0.2578 -0.0990  0.1876
   77MOL   C38937021   2.570   1.381   1.753  0.1850 -0.3957  0.7774
   77MOL   C39037022   2.474   1.301   1.698 -0.7725 -0.3914  0.1278
   77MOL   C39137023   2.400   1.339   1.580  0.5659  0.3358  0.1922
   77MOL   S39237024   2.722   1.598   1.764 -0.0845 -0.1281 -0.1602
   77MOL   O39337025   2.703   1.622   1.905 -0.2958 -0.0642  0.0844
   77MOL   O39437026   2.739   1.707   1.668 -0.2548 -0.5882 -0.8059
   77MOL   C39537027   2.868   1.497   1.749 -0.4951  0.4124  0.6004
   77MOL   C39637028   2.956   1.474   1.854  0.2771  0.1501 -0.7309
   77MOL   C39737029   3.081   1.414   1.836  0.0962  0.3600 -0.2163
   77MOL   C39837030   3.127   1.381   1.706  0.0534  0.5189 -0.5213
   77MOL   C39937031   3.038   1.396   1.595  0.0521 -0.0166  0.4027
   77MOL   C40037032   2.912   1.461   1.618 -0.1980  0.7230  0.2617
   77MOL   O40137033   3.249   1.322   1.677 -0.0613 -0.1581 -0.6665
   77MOL   H40237034   2.371   1.482   1.424 -2.3620  0.2098  0.7939
   77MOL   H40337035   2.545   1.645   1.535  0.1610  0.4957  1.5194
   77MOL   H40437036   2.626   1.350   1.840 -1.2876 -1.7120  1.2752
   77MOL   H40537037   2.456   1.208   1.751 -1.5293  0.1304  0.7901
   77MOL   H40637038   2.925   1.506   1.952 -1.2121  0.9391 -1.4437
   77MOL   H40737039   3.161   1.400   1.907  0.6712 -1.7078 -1.2194
   77MOL   H40837040   3.068   1.356   1.499  0.8227 -0.9436  1.0211
   77MOL   H40937041   2.856   1.491   1.531  0.5942 -3.2537 -1.7509
   77MOL   C41037042   3.142   1.111   1.615 -0.7400  1.2628 -0.1095
   77MOL   C41137043   3.158   0.987   1.542  0.3381 -0.5018 -0.6491
   77MOL   C41237044   3.278   0.949   1.483 -0.0509  0.3976  0.2398
   77MOL   C41337045   3.389   1.037   1.493  1.0434  0.1645  0.5702
   77MOL   C41437046   3.377   1.157   1.566  0.8175 -0.2695 -0.0557
   77MOL   C41537047   3.254   1.198   1.619 -0.4872  0.2596 -0.7615
   77MOL   S41637048   3.300   0.802   1.387  0.6663 -0.2022 -0.1804
   77MOL   O41737049   3.400   0.830   1.288 -0.2259 -0.1499  0.2868
   77MOL   O41837050   3.165   0.760   1.344 -0.0124 -0.8910  0.1421
   77MOL   C41937051   3.367   0.691   1.515  0.2342  0.5596 -0.4172
   77MOL   C42037052   3.507   0.656   1.504 -0.2723 -0.2898  0.2090
   77MOL   C42137053   3.559   0.573   1.604  0.2287  0.0546 -0.0928
   77MOL   C42237054   3.476   0.544   1.713 -0.3053 -0.0897  0.1860
   77MOL   C42337055   3.340   0.580   1.723  0.2701  0.2918  0.4277
   77MOL   C42437056   3.281   0.648   1.616 -0.1074  1.9087 -0.0780
   77MOL   O42537057   3.519   0.450   1.793  0.3630 -0.1596  0.2218
   77MOL   H42637058   3.047   1.141   1.657 -1.0125 -1.4091  1.2877
   77MOL   H42737059   3.078   0.915   1.532  1.1663 -2.0185  2.9385
   77MOL   H42837060   3.484   1.007   1.450  0.8626 -0.5548  0.6708
   77MOL   H42937061   3.460   1.225   1.581  0.9759 -0.8505  1.7836
   77MOL   H43037062   3.567   0.664   1.414  1.6290  0.6516  1.5381
   77MOL   H43137063   3.660   0.533   1.605 -0.5283 -1.8807  1.1161
   77MOL   H43237064   3.270   0.535   1.792 -0.2179  0.6814  0.1876
   77MOL   H43337065   3.178   0.680   1.611 -0.9375 -0.4667  1.0559
   77MOL   C43437066   3.727   0.455   1.911  0.1337  0.5226 -0.1893
   77MOL   C43537067   3.797   0.473   2.029 -0.4247  0.5555  0.0623
   77MOL   C43637068   3.734   0.524   2.145  0.3292 -0.4189 -0.2638
   77MOL   C43737069   3.596   0.546   2.147  0.1136  0.0778  0.3287
   77MOL   C43837070   3.524   0.518   2.026 -0.2530  0.3138  0.0463
   77MOL   C43937071   3.588   0.482   1.906 -0.4835 -0.4459 -0.2721
   77MOL   S44037072   3.824   0.572   2.290  0.1549  0.0664 -0.0464
   77MOL   O44137073   3.961   0.518   2.283 -0.4194  0.1960 -0.1697
   77MOL   O44237074   3.746   0.547   2.415 -0.6300  0.6599 -0.4883
   77MOL   C44337075   3.833   0.754   2.270  0.3865  0.1826 -0.3165
   77MOL   C44437076   3.854   0.805   2.139 -0.1730  0.1252  0.6871
   77MOL   C44537077   3.860   0.943   2.119  0.4689  0.6184  0.4446
   77MOL   C44637078   3.848   1.035   2.223 -0.5020 -0.8348 -0.4676
   77MOL   C44737079   3.807   0.982   2.352  0.1641 -0.3076  0.1536
   77MOL   C44837080   3.803   0.845   2.375 -0.1942  0.7604  0.4382
   77MOL   O44937081   3.845   1.170   2.201 -0.2229  0.5654 -0.6703
   77MOL   H45037082   3.770   0.418   1.819 -0.0508 -1.6315  0.5631
   77MOL   H45137083   3.900   0.440   2.026 -0.5734 -0.0241  1.0137
   77MOL   H45237084   3.550   0.569   2.242 -1.0008 -0.1809 -0.1399
   77MOL   H45337085   3.416   0.520   2.026 -0.2324  1.6175  0.2909
   77MOL   H45437086   3.865   0.731   2.060  1.1143 -0.0910  1.0547
   77MOL   H45537087   3.879   0.971   2.017 -0.5447  1.9537  0.5963
   77MOL   H45637088   3.780   1.051   2.431 -2.8025 -2.2524  0.9171
   77MOL   H45737089   3.782   0.803   2.473  0.5165  1.5994  0.9491
   77MOL   C45837090   3.994   1.241   2.027 -1.0454 -0.2432  0.5353
   77MOL   C45937091   4.116   1.299   1.985  0.1119  0.2445  0.2010
   77MOL   C46037092   4.211   1.342   2.088 -0.5474  0.2933  1.0097
   77MOL   C46137093   4.180   1.324   2.225  0.0130 -0.1575 -0.1642
   77MOL   C46237094   4.060   1.262   2.262 -0.2201 -0.8359 -0.2260
   77MOL   C46337095   3.962   1.228   2.163 -0.1084  0.3911 -0.4902
   77MOL   S46437096   4.359   1.427   2.042 -0.0434  0.2259  0.2281
   77MOL   O46537097   4.387   1.524   2.145 -0.0396 -0.3032  0.4969
   77MOL   O46637098   4.337   1.469   1.903  0.8004 -0.0382 -0.2410
   77MOL   C46737099   4.489   1.300   2.029 -0.2133 -0.5631  0.4398
   77MOL   C46837100   4.501   1.203   2.131  0.5023 -0.1512 -0.2669
   77MOL   C46937101   4.606   1.110   2.126 -0.1468  0.0161  0.8787
   77MOL   C47037102   4.690   1.112   2.012  0.2149  0.1817  0.6113
   77MOL   C47137103   4.679   1.204   1.906 -0.5811  0.1443  0.0823
   77MOL   C47237104   4.580   1.307   1.916  0.7210  0.6049  0.3857
   77MOL   O47337105   4.790   1.025   2.026  0.0021  0.1971 -0.2777
   77MOL   H47437106   3.919   1.204   1.958 -1.7785  0.4115  0.9777
   77MOL   H47537107   4.141   1.326   1.884 -1.4825  0.2066 -0.2135
   77MOL   H47637108   4.250   1.362   2.298 -0.6503 -0.5998  0.7155
   77MOL   H47737109   4.042   1.256   2.369  1.2622  1.8528  0.2260
   77MOL   H47837110   4.422   1.211   2.205 -1.0523  1.5459 -2.0382
   77MOL   H47937111   4.613   1.030   2.198  0.9435 -1.4528 -0.7904
   77MOL   H48037112   4.749   1.204   1.824 -0.8552  0.7143 -0.1553
   77MOL   H48137113   4.545   1.370   1.835  2.6597 -1.2058 -1.9358
   77MOL   H48237114   4.809   0.974   2.103  0.6546  2.2834  0.9785
   78MOL     C137115   2.433   6.750   4.092 -0.1683  0.8797 -0.3243
   78MOL     C237116   2.509   6.778   4.212 -0.7458  0.0614  0.3711
   78MOL     C337117   2.476   6.707   4.330 -0.4133  0.1686  0.1419
   78MOL     C437118   2.372   6.618   4.338  0.1433 -0.6669  0.1699
   78MOL     C537119   2.292   6.597   4.222 -0.8268 -0.0098 -0.5792
   78MOL     C637120   2.322   6.660   4.100 -0.1156 -0.5148  0.1824
   78MOL     S737121   2.582   6.729   4.467 -0.2219  0.3783  0.1662
   78MOL     O837122   2.715   6.696   4.426 -0.4291 -0.1219  0.5125
   78MOL     O937123   2.529   6.658   4.583 -0.1702 -0.1878 -0.5319
   78MOL    C1037124   2.586   6.903   4.488 -0.0363 -0.6977 -0.1148
   78MOL    C1137125   2.662   6.983   4.406 -0.1204 -0.1482 -0.8543
   78MOL    C1237126   2.660   7.122   4.422 -0.2528 -0.2413  0.1829
   78MOL    C1337127   2.596   7.182   4.524  0.4323  0.2847 -0.1674
   78MOL    C1437128   2.523   7.098   4.615  0.5434 -0.6343 -0.3448
   78MOL    C1537129   2.512   6.960   4.593 -0.6805  0.2569  0.2776
   78MOL    O1637130   2.610   7.318   4.536 -0.3915 -0.1519 -0.2748
   78MOL    H1737131   2.449   6.812   4.005  1.0102  1.0714  0.0188
   78MOL    H1837132   2.600   6.835   4.202 -0.1904 -1.0469 -1.1411
   78MOL    H1937133   2.347   6.565   4.429  0.9862  0.2829  0.9697
   78MOL    H2037134   2.216   6.521   4.232  0.0197 -1.0980 -2.1321
   78MOL    H2137135   2.715   6.948   4.319  0.7131 -0.4142 -0.2406
   78MOL    H2237136   2.724   7.180   4.358 -1.2463 -0.2288 -0.8280
   78MOL    H2337137   2.483   7.129   4.710 -1.4280 -0.1761 -1.3064
   78MOL    H2437138   2.448   6.901   4.655 -1.4696  2.8316  1.9989
   78MOL    H2537139   2.267   6.642   4.009  0.3627 -0.4746 -0.1149
   78MOL    C2637140   2.539   7.441   4.730  0.0513  0.1162 -0.2952
   78MOL    C2737141   2.431   7.519   4.782 -0.1708 -0.3605 -0.3313
   78MOL    C2837142   2.308   7.543   4.712  0.1396  0.3824  0.4048
   78MOL    C2937143   2.293   7.489   4.584 -0.0604 -0.6994 -0.0549
   78MOL    C3037144   2.400   7.422   4.523  0.0003  0.1548 -0.3947
   78MOL    C3137145   2.512   7.392   4.597 -0.5815 -0.8841 -0.7829
   78MOL    S3237146   2.185   7.645   4.795 -0.3110 -0.1196  0.2386
   78MOL    O3337147   2.203   7.779   4.737  0.8853  0.5324 -0.3312
   78MOL    O3437148   2.206   7.633   4.938 -0.0447 -0.3055 -0.1399
   78MOL    C3537149   2.025   7.594   4.748  0.1681 -0.2894  0.1147
   78MOL    C3637150   1.950   7.516   4.834 -0.5719 -0.3344 -0.0519
   78MOL    C3737151   1.836   7.456   4.782  0.3047 -0.2329 -0.5884
   78MOL    C3837152   1.792   7.478   4.644 -0.1279  0.1123 -0.1052
   78MOL    C3937153   1.859   7.569   4.568 -0.4906 -0.3451 -0.2193
   78MOL    C4037154   1.978   7.625   4.622 -0.7476  0.8643  0.1929
   78MOL    O4137155   1.697   7.406   4.582 -0.4776 -0.0935  0.4379
   78MOL    H4237156   2.637   7.425   4.773 -0.0308  1.7226  0.5207
   78MOL    H4337157   2.430   7.550   4.886 -0.5864 -0.0111 -0.4346
   78MOL    H4437158   2.199   7.503   4.533 -0.4213 -0.2360  0.7437
   78MOL    H4537159   2.376   7.384   4.424 -1.3384 -0.4400  0.1424
   78MOL    H4637160   1.994   7.497   4.931  0.9494 -1.5911 -0.9809
   78MOL    H4737161   1.784   7.379   4.838 -0.9130 -0.7177 -2.3549
   78MOL    H4837162   1.843   7.597   4.465  0.1835 -0.2706 -0.3094
   78MOL    H4937163   2.042   7.676   4.552  1.2803 -0.5787  0.9262
   78MOL    C5037164   1.499   7.467   4.708 -0.0984 -0.2539  0.3148
   78MOL    C5137165   1.363   7.495   4.702  0.0841  0.5330  0.0247
   78MOL    C5237166   1.296   7.526   4.579  0.1600  0.0413  0.3640
   78MOL    C5337167   1.369   7.528   4.459  0.1798  0.3081  0.5946
   78MOL    C5437168   1.501   7.487   4.465 -0.1158  0.1728  0.5498
   78MOL    C5537169   1.570   7.454   4.586  0.2068  0.6716  0.2308
   78MOL    S5637170   1.114   7.556   4.561 -0.0962 -0.3976  0.1811
   78MOL    O5737171   1.078   7.625   4.682  0.5557  0.2778 -0.1668
   78MOL    O5837172   1.058   7.422   4.539 -0.6205 -0.2505  0.1331
   78MOL    C5937173   1.077   7.654   4.419  0.0627  0.0800  0.2209
   78MOL    C6037174   1.077   7.592   4.291  0.2254 -0.3088 -0.1428
   78MOL    C6137175   1.052   7.663   4.173  0.1695 -0.3879 -0.6895
   78MOL    C6237176   1.032   7.804   4.178 -0.5411  0.2960  0.4349
   78MOL    C6337177   1.044   7.863   4.307  0.0966  0.3142 -0.6855
   78MOL    C6437178   1.048   7.792   4.428 -0.1687 -0.8053  0.4236
   78MOL    O6537179   0.994   7.887   4.077  0.3991  0.2025  0.2297
   78MOL    H6637180   1.545   7.448   4.804  1.2856 -1.9792 -0.6443
   78MOL    H6737181   1.299   7.485   4.789 -1.7860  3.2556 -0.9801
   78MOL    H6837182   1.318   7.548   4.366  1.5475 -0.4187 -0.3113
   78MOL    H6937183   1.560   7.479   4.375 -0.8996 -0.0283  0.0481
   78MOL    H7037184   1.091   7.488   4.266 -0.9981  0.6648 -5.6205
   78MOL    H7137185   1.022   7.616   4.081  0.9365 -1.6288 -0.3224
   78MOL    H7237186   1.036   7.970   4.313  2.3944  0.4188  1.1723
   78MOL    H7337187   1.067   7.841   4.522  3.1715  0.1877 -0.7068
   78MOL    C7437188   1.134   7.928   3.883  0.0502 -0.0028  0.6766
   78MOL    C7537189   1.150   7.917   3.740 -0.8686  0.7060  0.6046
   78MOL    C7637190   1.069   7.833   3.666 -0.2555  0.2598  0.2446
   78MOL    C7737191   0.961   7.762   3.728 -0.5749  0.3950  0.2316
   78MOL    C7837192   0.941   7.781   3.865  0.4820 -0.1658  0.4074
   78MOL    C7937193   1.025   7.865   3.943  0.8405 -0.0579  0.3446
   78MOL    S8037194   1.100   7.843   3.485  0.1740 -0.2836 -0.2043
   78MOL    O8137195   1.226   7.766   3.464  0.3693 -0.2887  0.0339
   78MOL    O8237196   1.097   7.985   3.437  0.6381  0.0553  0.3982
   78MOL    C8337197   0.969   7.753   3.407  0.0370 -0.1030 -0.0729
   78MOL    C8437198   0.870   7.824   3.337 -0.2328  0.3172 -0.2182
   78MOL    C8537199   0.771   7.748   3.259  0.3442  0.1980  0.3386
   78MOL    C8637200   0.774   7.609   3.260  0.0473  0.0256  0.7579
   78MOL    C8737201   0.873   7.540   3.338  0.7362  0.5055  0.4088
   78MOL    C8837202   0.969   7.607   3.413  0.4833 -0.2940  0.1983
   78MOL    O8937203   0.681   7.536   3.184 -0.3736 -0.5200  0.3515
   78MOL    H9037204   1.188   7.993   3.951  0.0370  2.2366 -1.4294
   78MOL    H9137205   1.237   7.966   3.698  1.2493 -2.6904  0.9048
   78MOL    H9237206   0.890   7.699   3.677 -0.7856  1.2314 -0.5251
   78MOL    H9337207   0.851   7.738   3.908  0.7607  1.0232  2.2636
   78MOL    H9437208   0.878   7.931   3.352  1.1373  0.0405  1.2271
   78MOL    H9537209   0.699   7.801   3.199  2.2855  1.4681 -0.9132
   78MOL    H9637210   0.874   7.433   3.350 -1.4656  0.4309  0.0678
   78MOL    H9737211   1.049   7.565   3.473  1.1896  1.2959  0.3802
   78MOL    C9837212   0.722   7.297   3.166  0.2008  0.2355 -0.2941
   78MOL    C9937213   0.692   7.171   3.216 -0.9727  0.1369 -0.8241
   78MOL   C10037214   0.598   7.155   3.321  0.2550 -0.4215 -0.3968
   78MOL   C10137215   0.512   7.264   3.356  0.6096  0.8794 -0.1211
   78MOL   C10237216   0.539   7.390   3.309  0.2042  0.2753 -1.3651
   78MOL   C10337217   0.645   7.406   3.214  0.3787 -1.1422 -0.2387
   78MOL   S10437218   0.582   6.997   3.419 -0.2511 -0.2095  0.0949
   78MOL   O10537219   0.628   6.898   3.328  0.4011 -0.3952  0.2431
   78MOL   O10637220   0.443   6.983   3.467  0.7474 -0.2647 -0.0125
   78MOL   C10737221   0.689   6.992   3.562 -0.9279 -0.1667 -0.3304
   78MOL   C10837222   0.780   6.884   3.573  1.1566 -0.1012 -0.4392
   78MOL   C10937223   0.862   6.876   3.687  0.4926 -0.3560  0.0143
   78MOL   C11037224   0.859   6.980   3.784 -0.0373 -0.4522 -0.0882
   78MOL   C11137225   0.768   7.096   3.772  0.9010 -0.0206  0.0213
   78MOL   C11237226   0.683   7.098   3.654  0.1630 -0.4631 -0.4813
   78MOL   O11337227   0.943   6.973   3.898 -0.1973  0.3337 -0.6439
   78MOL   H11437228   0.802   7.310   3.094 -0.5101 -0.3480 -1.1916
   78MOL   H11537229   0.747   7.087   3.177 -2.1841 -0.5710 -1.0149
   78MOL   H11637230   0.439   7.236   3.431 -0.1088  0.7126 -0.8794
   78MOL   H11737231   0.490   7.478   3.347  0.5437 -1.0458  2.3026
   78MOL   H11837232   0.772   6.802   3.503  1.9305  0.2786 -0.9749
   78MOL   H11937233   0.914   6.786   3.715 -1.5918 -0.9945  2.0242
   78MOL   H12037234   0.748   7.171   3.847  1.3516 -0.8024  0.9122
   78MOL   H12137235   0.607   7.174   3.645  0.2069 -0.4719 -0.9407
   78MOL   C12237236   1.102   7.133   3.824  0.1420 -0.3970 -0.4549
   78MOL   C12337237   1.239   7.178   3.815  0.0748 -0.2365  0.8491
   78MOL   C12437238   1.343   7.097   3.872 -0.0426  0.3417  1.1119
   78MOL   C12537239   1.312   6.978   3.938 -0.0570 -0.2718 -0.3151
   78MOL   C12637240   1.178   6.941   3.952  0.0808  0.1945 -0.0482
   78MOL   C12737241   1.072   7.017   3.893 -0.3273  0.0014 -0.7414
   78MOL   S12837242   1.517   7.146   3.863 -0.0192 -0.0056  0.0662
   78MOL   O12937243   1.522   7.285   3.813  0.0416  0.3253 -0.0970
   78MOL   O13037244   1.594   7.038   3.800 -0.3219 -0.0054 -0.2417
   78MOL   C13137245   1.567   7.147   4.034 -0.4383  0.5122 -0.5431
   78MOL   C13237246   1.469   7.172   4.134 -0.0591  0.6817 -0.2193
   78MOL   C13337247   1.509   7.174   4.274 -0.0584  0.4813 -0.0026
   78MOL   C13437248   1.640   7.149   4.307  0.3779  0.2830  0.4779
   78MOL   C13537249   1.739   7.126   4.208  0.2739  0.5802 -0.1252
   78MOL   C13637250   1.702   7.127   4.072 -0.0139 -0.4776  0.2239
   78MOL   O13737251   1.676   7.145   4.446 -0.2129  0.5906  0.7081
   78MOL   H13837252   1.028   7.197   3.778  0.7745 -1.0713 -2.4985
   78MOL   H13937253   1.269   7.271   3.769  0.4354 -0.5844  0.3581
   78MOL   H14037254   1.384   6.909   3.979 -1.5115 -0.7711  1.4183
   78MOL   H14137255   1.159   6.851   4.007  0.2413  0.0039 -0.3012
   78MOL   H14237256   1.362   7.184   4.120  0.1252  0.0313 -2.3182
   78MOL   H14337257   1.436   7.190   4.351  0.0055  1.1110 -0.0697
   78MOL   H14437258   1.843   7.104   4.231  0.4451  2.2398  0.7248
   78MOL   H14537259   1.764   7.108   3.985  1.2105  1.0259  0.7690
   78MOL   C14637260   1.661   6.916   4.515 -0.3328  0.1463 -0.8926
   78MOL   C14737261   1.609   6.817   4.602  0.3371 -0.0316  0.5765
   78MOL   C14837262   1.521   6.855   4.705  0.3259 -0.4872 -0.3348
   78MOL   C14937263   1.476   6.988   4.716  0.0675 -1.1275  0.4193
   78MOL   C15037264   1.537   7.083   4.627 -0.8526  0.0860 -0.8250
   78MOL   C15137265   1.625   7.050   4.526 -0.2132 -0.5252 -0.6552
   78MOL   S15237266   1.478   6.740   4.828  0.3419 -0.4386 -0.2925
   78MOL   O15337267   1.449   6.609   4.774  0.1792  0.6459  0.4459
   78MOL   O15437268   1.378   6.808   4.910  0.0990 -0.6621  0.4587
   78MOL   C15537269   1.626   6.738   4.933  0.5283 -0.0462  1.2514
   78MOL   C15637270   1.674   6.614   4.971  0.3373 -0.1258  0.0826
   78MOL   C15737271   1.783   6.609   5.055  0.7655 -0.4120 -0.4752
   78MOL   C15837272   1.856   6.726   5.091 -0.6438 -0.0821 -0.2206
   78MOL   C15937273   1.803   6.850   5.052 -0.8568 -0.2058 -0.0249
   78MOL   C16037274   1.688   6.859   4.976 -0.8382  0.1621  0.2975
   78MOL   O16137275   1.966   6.731   5.173  0.1153  0.0006 -0.2690
   78MOL   H16237276   1.729   6.879   4.439 -0.3754 -0.3994 -0.6680
   78MOL   H16337277   1.645   6.716   4.588 -1.8146 -0.6482 -0.6612
   78MOL   H16437278   1.421   7.026   4.801 -1.4990 -1.9484 -0.2130
   78MOL   H16537279   1.515   7.189   4.636 -0.3107  0.1391 -0.1089
   78MOL   H16637280   1.635   6.523   4.927 -1.6057  0.5943  0.2762
   78MOL   H16737281   1.821   6.516   5.094  2.3336  0.0422 -0.9068
   78MOL   H16837282   1.847   6.937   5.099  2.1690 -1.0548 -1.1690
   78MOL   H16937283   1.643   6.955   4.954 -1.0540  0.2406  1.0660
   78MOL   C17037284   2.052   6.543   5.286 -0.4248  0.4764 -0.4535
   78MOL   C17137285   2.136   6.430   5.304  0.2575 -0.0071  0.0686
   78MOL   C17237286   2.218   6.393   5.192 -0.1256 -0.7162  0.1259
   78MOL   C17337287   2.228   6.474   5.074  0.5166  0.1350  0.3529
   78MOL   C17437288   2.149   6.591   5.068  0.6652  0.1478  0.4943
   78MOL   C17537289   2.058   6.624   5.173 -0.1345  0.4200 -0.1468
   78MOL   S17637290   2.325   6.249   5.206  0.1766  0.2789  0.1556
   78MOL   O17737291   2.268   6.148   5.116  0.4237  0.4960 -0.1844
   78MOL   O17837292   2.333   6.224   5.346  0.1299  0.2139  0.0078
   78MOL   C17937293   2.489   6.283   5.140 -0.0857  0.9057  0.2614
   78MOL   C18037294   2.538   6.409   5.159 -0.2926 -0.4518 -0.1582
   78MOL   C18137295   2.657   6.449   5.100 -0.2591 -0.4810 -1.1809
   78MOL   C18237296   2.744   6.350   5.033  0.5805  0.5075  0.5883
   78MOL   C18337297   2.701   6.216   5.033 -0.3927 -0.2380 -0.1816
   78MOL   C18437298   2.573   6.186   5.083  0.0858 -0.3774  0.2891
   78MOL   O18537299   2.866   6.376   4.981 -0.0554  0.0274 -0.1992
   78MOL   H18637300   1.972   6.564   5.355 -0.0304  1.1013 -0.1777
   78MOL   H18737301   2.120   6.380   5.399  0.7311 -1.3100 -0.5240
   78MOL   H18837302   2.292   6.444   4.993  0.4565 -3.0423  1.4382
   78MOL   H18937303   2.157   6.652   4.979 -2.7352 -4.1838 -3.0502
   78MOL   H19037304   2.471   6.482   5.202 -1.4277 -0.7439 -1.3942
   78MOL   H19137305   2.680   6.554   5.087  2.4803 -0.6091  1.9945
   78MOL   H19237306   2.766   6.140   4.993 -0.5810  1.2532 -3.5390
   78MOL   H19337307   2.536   6.084   5.081  0.5345 -0.5953 -4.9318
   78MOL   C19437308   2.993   6.294   4.794 -0.0533  0.5566 -0.0607
   78MOL   C19537309   3.009   6.279   4.654  0.3330 -1.1128  0.2002
   78MOL   C19637310   2.932   6.355   4.565  0.7572  0.3462  0.0906
   78MOL   C19737311   2.832   6.442   4.610 -0.4159 -0.5415  0.0939
   78MOL   C19837312   2.808   6.449   4.750 -0.3227 -0.7473 -0.7610
   78MOL   C19937313   2.889   6.376   4.843 -0.1024  0.0960 -0.9084
   78MOL   S20037314   2.950   6.332   4.384  0.1729 -0.3928 -0.0356
   78MOL   O20137315   2.821   6.274   4.339 -0.0724 -0.4461  0.2428
   78MOL   O20237316   3.073   6.252   4.363  0.0271 -0.5051  0.6031
   78MOL   C20337317   2.958   6.486   4.295 -0.3289  0.6556  0.4658
   78MOL   C20437318   3.071   6.567   4.321  0.2707  0.7584 -0.3258
   78MOL   C20537319   3.101   6.685   4.253  0.2376 -0.0372 -0.1621
   78MOL   C20637320   2.993   6.742   4.179 -0.4411  0.0434  0.3079
   78MOL   C20737321   2.873   6.674   4.154  0.1549  0.9362 -1.1949
   78MOL   C20837322   2.861   6.540   4.207  0.3733  0.3116 -1.0781
   78MOL   O20937323   3.011   6.865   4.117  0.0897 -0.2629 -0.1446
   78MOL   H21037324   3.051   6.229   4.857 -0.4621  0.5405  0.2986
   78MOL   H21137325   3.083   6.207   4.622  0.4533 -1.0714  0.3860
   78MOL   H21237326   2.772   6.499   4.541 -0.4006 -0.7847 -0.1183
   78MOL   H21337327   2.732   6.513   4.792  0.8599 -0.1662  0.5310
   78MOL   H21437328   3.142   6.540   4.397 -0.5266  0.0639  0.1778
   78MOL   H21537329   3.191   6.740   4.277  0.2221  1.4362 -3.3144
   78MOL   H21637330   2.798   6.722   4.094 -1.9346 -1.2820 -0.4709
   78MOL   H21737331   2.769   6.485   4.194  1.0679 -1.4103  1.0436
   78MOL   C21837332   3.169   7.046   4.121 -0.2097  0.2403  0.2265
   78MOL   C21937333   3.297   7.097   4.089 -0.3855  0.6500 -1.1018
   78MOL   C22037334   3.387   7.012   4.029 -0.8717  0.5054 -0.4556
   78MOL   C22137335   3.354   6.882   3.993 -0.5524 -0.5600 -0.6891
   78MOL   C22237336   3.224   6.836   4.014 -0.7417  0.0247  0.1722
   78MOL   C22337337   3.137   6.912   4.091 -0.4636  0.3060 -0.2739
   78MOL   S22437338   3.547   7.070   3.995  0.1880  0.2807  0.0456
   78MOL   O22537339   3.636   6.968   3.929  0.1967  0.0154 -0.5141
   78MOL   O22637340   3.593   7.140   4.117  0.2876  0.1880  0.0294
   78MOL   C22737341   3.516   7.190   3.866 -0.1561  0.1128  0.2039
   78MOL   C22837342   3.454   7.150   3.748  0.0470  0.1530  0.2906
   78MOL   C22937343   3.418   7.249   3.653  0.0187 -0.0411  0.3260
   78MOL   C23037344   3.460   7.384   3.669  0.3153  0.1795  0.4414
   78MOL   C23137345   3.540   7.417   3.783  0.1472  0.7102  0.5501
   78MOL   C23237346   3.569   7.318   3.883 -0.4384 -0.0899  0.4230
   78MOL   O23337347   3.432   7.483   3.573 -0.2928  0.2083  0.1074
   78MOL   H23437348   3.107   7.116   4.174  2.6558  3.7676 -0.8711
   78MOL   H23537349   3.326   7.200   4.106  3.1150 -0.4267 -0.1860
   78MOL   H23637350   3.432   6.823   3.947 -0.5659 -0.4077 -0.9056
   78MOL   H23737351   3.207   6.733   3.986  1.6404 -0.6278  1.0287
   78MOL   H23837352   3.427   7.047   3.731 -1.1109  0.2627  1.3316
   78MOL   H23937353   3.358   7.219   3.568  0.7228  0.8916 -0.5224
   78MOL   H24037354   3.579   7.517   3.792  0.8554  0.2828  2.5326
   78MOL   H24137355   3.625   7.347   3.971  0.0187 -0.1578  0.1599
   78MOL   C24237356   3.643   7.508   3.448  0.1601 -0.8599  0.2721
   78MOL   C24337357   3.715   7.517   3.331 -0.6272 -0.3325 -0.0323
   78MOL   C24437358   3.648   7.492   3.212  0.0751 -0.2413 -0.7510
   78MOL   C24537359   3.515   7.453   3.211  0.7358  0.3627  0.4486
   78MOL   C24637360   3.438   7.456   3.331 -0.3395  0.1176 -0.3469
   78MOL   C24737361   3.500   7.479   3.454  0.1773 -0.2692  0.8814
   78MOL   S24837362   3.753   7.490   3.066  0.2910  0.1690  0.0017
   78MOL   O24937363   3.855   7.593   3.082 -0.1690  0.0226  0.7398
   78MOL   O25037364   3.672   7.477   2.939  0.1876  0.7632 -0.2046
   78MOL   C25137365   3.826   7.332   3.087 -0.5151  0.3048 -0.0819
   78MOL   C25237366   3.944   7.328   3.154  0.0871  0.0064  0.4299
   78MOL   C25337367   4.019   7.205   3.167 -0.3613 -0.5356 -0.2994
   78MOL   C25437368   3.956   7.090   3.122  0.0887  0.2368  0.1307
   78MOL   C25537369   3.824   7.093   3.070  0.0618  0.0946  0.3564
   78MOL   C25637370   3.756   7.216   3.053  0.1560  0.0510 -0.1996
   78MOL   O25737371   4.021   6.967   3.139  0.1999 -0.2399 -0.3290
   78MOL   H25837372   3.705   7.518   3.536  1.5889 -1.5424 -0.6431
   78MOL   H25937373   3.821   7.541   3.331 -1.0621  1.7102 -1.9910
   78MOL   H26037374   3.468   7.436   3.115  1.7565  0.2915 -0.0456
   78MOL   H26137375   3.331   7.438   3.327 -0.0385 -2.4594  2.0446
   78MOL   H26237376   3.987   7.422   3.184 -0.6072  0.5474 -0.2270
   78MOL   H26337377   4.118   7.201   3.210  0.5314 -0.6280 -2.3007
   78MOL   H26437378   3.775   7.007   3.026  1.3104 -1.3397  1.7359
   78MOL   H26537379   3.659   7.220   3.006 -0.1647  1.8772  0.5598
   78MOL   C26637380   4.025   6.843   2.938  0.1368 -0.2325 -0.1011
   78MOL   C26737381   4.096   6.786   2.833 -0.0513  0.4479  0.1729
   78MOL   C26837382   4.238   6.802   2.824  1.0829 -0.2098  0.1587
   78MOL   C26937383   4.303   6.889   2.913  0.0083  0.1593  0.3568
   78MOL   C27037384   4.232   6.941   3.019  0.8159 -0.1075 -0.3796
   78MOL   C27137385   4.091   6.918   3.036 -0.4944 -1.1415  0.1852
   78MOL   S27237386   4.314   6.724   2.688 -0.3000 -0.1120  0.2868
   78MOL   O27337387   4.243   6.739   2.563  0.5136  0.0786 -0.2005
   78MOL   O27437388   4.347   6.588   2.741 -0.1686  0.4686  0.2611
   78MOL   C27537389   4.470   6.819   2.672 -0.4769 -0.6033  0.5005
   78MOL   C27637390   4.464   6.957   2.649 -0.2737 -0.3051  0.2376
   78MOL   C27737391   4.578   7.030   2.601  0.3000 -0.5246  0.6197
   78MOL   C27837392   4.696   6.956   2.568  0.2161  0.0404  0.2959
   78MOL   C27937393   4.697   6.820   2.579  0.7590  0.2300  0.7035
   78MOL   C28037394   4.594   6.755   2.643 -0.1927 -0.3563  0.0993
   78MOL   O28137395   4.801   7.024   2.517 -0.0199 -0.0470 -0.2851
   78MOL   H28237396   3.918   6.827   2.938 -0.2097  1.5020  2.9115
   78MOL   H28337397   4.049   6.735   2.750  1.1296 -0.6332  0.1556
   78MOL   H28437398   4.410   6.901   2.903  0.3921 -2.2980  1.0520
   78MOL   H28537399   4.293   7.002   3.084  0.0622 -0.1364  0.3517
   78MOL   H28637400   4.371   7.013   2.659 -0.9552 -1.4662  0.4604
   78MOL   H28737401   4.565   7.134   2.576  0.7420 -0.2062  1.6692
   78MOL   H28837402   4.777   6.754   2.548 -1.3422 -1.6306 -0.9915
   78MOL   H28937403   4.604   6.648   2.655 -0.0755 -0.0111  3.2734
   78MOL   C29037404   4.812   7.170   2.334  0.8014 -0.4052 -0.4054
   78MOL   C29137405   4.827   7.191   2.196  0.6216 -0.2790  0.0193
   78MOL   C29237406   4.842   7.083   2.109 -0.6362 -0.5557 -0.0549
   78MOL   C29337407   4.850   6.950   2.156  0.1583  0.4247  0.9213
   78MOL   C29437408   4.845   6.933   2.299 -0.1546 -0.0869  0.7158
   78MOL   C29537409   4.819   7.042   2.387 -0.3074 -0.5918  0.0553
   78MOL   S29637410   4.844   7.128   1.932  0.1253 -0.2439  0.1500
   78MOL   O29737411   4.739   7.220   1.898 -0.2979 -0.5563 -0.2346
   78MOL   O29837412   4.864   7.007   1.851 -0.4329  0.0083 -0.0514
   78MOL   C29937413   4.999   7.225   1.917 -0.2759  0.7478 -0.5041
   78MOL   C30037414   5.107   7.191   2.008  0.2386  0.5778  0.0657
   78MOL   C30137415   5.224   7.275   2.018  0.2470 -0.3428  0.3382
   78MOL   C30237416   5.229   7.391   1.940  0.9633  0.8820  0.4878
   78MOL   C30337417   5.122   7.421   1.850 -0.0058  0.5948  0.1534
   78MOL   C30437418   5.012   7.334   1.834 -0.5324  0.0194  0.4124
   78MOL   O30537419   5.333   7.475   1.956  0.1752  0.4500  0.0346
   78MOL   H30637420   4.794   7.250   2.404 -1.5752  0.0828 -1.5224
   78MOL   H30737421   4.806   7.293   2.167  0.2695 -0.9219 -2.0498
   78MOL   H30837422   4.862   6.864   2.091 -0.3346  1.9203 -1.2195
   78MOL   H30937423   4.859   6.834   2.340 -1.5439 -0.1752  1.0073
   78MOL   H31037424   5.099   7.097   2.060 -1.1579  0.4458 -0.3875
   78MOL   H31137425   5.305   7.237   2.079  1.9437  1.3024 -0.8259
   78MOL   H31237426   5.127   7.513   1.793 -0.7896 -0.4419 -1.6531
   78MOL   H31337427   4.932   7.360   1.766 -1.0802 -2.5707 -0.0017
   78MOL   C31437428   5.240   7.669   2.072  0.2617 -0.4857 -0.2306
   78MOL   C31537429   5.243   7.762   2.180  0.3680  0.1738  0.5074
   78MOL   C31637430   5.334   7.741   2.280  0.0029  0.8047  0.9904
   78MOL   C31737431   5.429   7.631   2.278  0.6517 -0.1520 -0.2388
   78MOL   C31837432   5.420   7.543   2.169  0.1175  0.1509 -0.7047
   78MOL   C31937433   5.331   7.565   2.060  0.4868 -0.2061  0.4301
   78MOL   S32037434   5.322   7.858   2.413 -0.1614 -0.0843 -0.1589
   78MOL   O32137435   5.251   7.974   2.361 -0.1313  0.0556  0.2068
   78MOL   O32237436   5.457   7.876   2.464  0.1512 -0.0393 -0.0061
   78MOL   C32337437   5.226   7.775   2.532  0.1870  0.9636 -0.4851
   78MOL   C32437438   5.085   7.775   2.527 -0.0375  0.2661  0.6008
   78MOL   C32537439   5.004   7.713   2.626  0.0511  0.3900 -0.0825
   78MOL   C32637440   5.072   7.635   2.728 -0.5032  0.4979 -0.5942
   78MOL   C32737441   5.212   7.628   2.730 -0.6413  0.2535 -0.1522
   78MOL   C32837442   5.290   7.704   2.636 -0.6543 -0.3149 -0.3138
   78MOL   O32937443   5.003   7.570   2.824  0.3911 -0.0338 -0.7267
   78MOL   H33037444   5.163   7.687   1.999 -1.5934 -0.9836  1.5575
   78MOL   H33137445   5.169   7.841   2.186  1.0563  0.8567  0.1206
   78MOL   H33237446   5.498   7.621   2.360  0.3923 -2.2487 -0.2317
   78MOL   H33337447   5.490   7.460   2.171 -1.4129 -1.1522  0.1457
   78MOL   H33437448   5.027   7.822   2.450 -1.1278 -0.5699  0.9022
   78MOL   H33537449   4.896   7.708   2.624  0.0748 -0.7170  0.8003
   78MOL   H33637450   5.266   7.573   2.805  0.1054  0.3409 -0.6135
   78MOL   H33737451   5.397   7.710   2.634 -0.7471  1.4020 -1.6075
   78MOL   C33837452   4.768   7.559   2.885 -0.2402  0.4233 -0.3358
   78MOL   C33937453   4.640   7.506   2.864  0.2011 -1.0242  0.0410
   78MOL   C34037454   4.611   7.418   2.760  0.3555 -0.4694  0.6355
   78MOL   C34137455   4.723   7.367   2.685 -0.2028  0.0944  0.3904
   78MOL   C34237456   4.849   7.422   2.709 -0.4389  0.0710 -0.4740
   78MOL   C34337457   4.876   7.519   2.809 -0.4690 -0.4136  0.8992
   78MOL   S34437458   4.443   7.367   2.732 -0.0403 -0.0503  0.2073
   78MOL   O34537459   4.417   7.258   2.828 -0.2637 -0.2303  0.4388
   78MOL   O34637460   4.438   7.347   2.587  0.0687  0.1301  0.6938
   78MOL   C34737461   4.339   7.509   2.776  0.0385  0.2389 -0.4347
   78MOL   C34837462   4.244   7.493   2.880 -0.0999 -0.0750  0.3154
   78MOL   C34937463   4.182   7.607   2.934 -0.1693 -0.5554 -0.3312
   78MOL   C35037464   4.218   7.735   2.892  0.2549  0.2591 -1.0180
   78MOL   C35137465   4.319   7.752   2.797  0.1860  0.4321 -0.1914
   78MOL   C35237466   4.373   7.639   2.734  0.0926 -0.7118 -0.4950
   78MOL   O35337467   4.153   7.843   2.947 -1.0518  0.8054  0.3860
   78MOL   H35437468   4.769   7.631   2.965  0.9231  1.3870 -1.1956
   78MOL   H35537469   4.565   7.541   2.934  1.5982 -0.2616  1.1919
   78MOL   H35637470   4.701   7.295   2.608 -1.3099 -0.1206  0.8973
   78MOL   H35737471   4.923   7.383   2.641  0.3399  1.2822 -0.3391
   78MOL   H35837472   4.209   7.400   2.922 -1.1586 -1.2706 -3.0675
   78MOL   H35937473   4.106   7.597   3.010 -0.1969  1.1279 -0.1123
   78MOL   H36037474   4.353   7.849   2.765  0.4731  0.3327 -0.1902
   78MOL   H36137475   4.446   7.657   2.656  0.9005  0.9982  0.6232
   78MOL   C36237476   3.964   7.853   2.798 -0.8087  1.3132 -0.0081
   78MOL   C36337477   3.868   7.926   2.728 -0.2301 -0.2240 -0.8773
   78MOL   C36437478   3.880   8.067   2.733  0.5698  0.3272  0.0055
   78MOL   C36537479   3.983   8.134   2.804 -0.0460 -0.2214 -0.1518
   78MOL   C36637480   4.070   8.056   2.886  0.1449 -0.3799 -0.0305
   78MOL   C36737481   4.063   7.915   2.878  0.3024  1.0274  0.3782
   78MOL   S36837482   3.762   8.171   2.641  0.4869 -0.3157  0.1574
   78MOL   O36937483   3.742   8.104   2.510 -0.6126 -0.1871  0.4695
   78MOL   O37037484   3.808   8.311   2.647  0.0372 -0.7073  0.1322
   78MOL   C37137485   3.613   8.162   2.745 -0.1552  0.0361  0.3367
   78MOL   C37237486   3.487   8.175   2.682  0.5157 -0.0939 -0.3307
   78MOL   C37337487   3.372   8.152   2.753 -0.0562  0.1109 -0.0875
   78MOL   C37437488   3.377   8.128   2.887 -0.5302  0.0274 -0.0991
   78MOL   C37537489   3.508   8.116   2.952  0.1284 -0.8580 -0.3626
   78MOL   C37637490   3.622   8.142   2.882  0.0556  0.0082 -0.0690
   78MOL   O37737491   3.267   8.079   2.949  0.0920 -0.4234 -0.2597
   78MOL   H37837492   3.968   7.745   2.793  1.5432  1.4518 -1.3603
   78MOL   H37937493   3.786   7.888   2.670  0.1036 -0.0775 -1.4458
   78MOL   H38037494   3.997   8.241   2.807 -0.9556 -0.1514  2.7069
   78MOL   H38137495   4.144   8.106   2.947 -0.7795 -1.8750  2.3888
   78MOL   H38237496   3.483   8.204   2.578  1.5189 -0.8847 -0.5968
   78MOL   H38337497   3.272   8.155   2.711 -0.2019  0.2377  0.2589
   78MOL   H38437498   3.521   8.110   3.059 -0.2979 -1.2135 -0.3281
   78MOL   H38537499   3.720   8.135   2.926  0.2492  0.2336 -0.4600
   78MOL   C38637500   3.242   8.064   3.188 -0.2988  0.3799 -0.3245
   78MOL   C38737501   3.232   8.134   3.306 -0.0097 -0.5469  0.4383
   78MOL   C38837502   3.174   8.264   3.307 -0.3910  0.4863  0.1326
   78MOL   C38937503   3.142   8.326   3.190 -0.1962 -0.0505 -0.5731
   78MOL   C39037504   3.171   8.267   3.066  0.3964 -0.9730 -0.6369
   78MOL   C39137505   3.230   8.139   3.069  1.1283  0.7725 -0.1113
   78MOL   S39237506   3.158   8.347   3.459  0.0659  0.4099  0.2605
   78MOL   O39337507   3.156   0.070   3.437 -0.0980 -0.0939  0.0457
   78MOL   O39437508   3.261   8.293   3.546  0.0291  0.1064 -0.0581
   78MOL   C39537509   2.999   8.307   3.525 -0.3708 -0.3242 -0.8519
   78MOL   C39637510   2.936   8.399   3.614 -0.1905 -0.4671  0.5355
   78MOL   C39737511   2.800   8.383   3.653  0.0973  0.5423  0.5764
   78MOL   C39837512   2.736   8.268   3.604 -0.0701  0.2344 -0.0135
   78MOL   C39937513   2.806   8.166   3.531  0.3681  0.4749  0.1167
   78MOL   C40037514   2.933   8.192   3.485 -0.0501 -0.1838  0.3038
   78MOL   O40137515   2.601   8.245   3.623  0.4529 -0.4113 -0.4206
   78MOL   H40237516   3.274   7.961   3.180 -1.1899  0.0081  0.8815
   78MOL   H40337517   3.245   8.084   3.400 -3.1444  0.1169  1.2853
   78MOL   H40437518   3.108   0.003   3.201  0.5295  0.0197  1.2176
   78MOL   H40537519   3.150   8.322   2.976  0.5071  1.8521  1.0087
   78MOL   H40637520   2.998   0.060   3.637 -1.4976  1.0470 -1.3892
   78MOL   H40737521   2.748   0.028   3.716  0.5959  0.3157  1.2500
   78MOL   H40837522   2.769   8.064   3.522 -0.9050  1.0340 -1.3438
   78MOL   H40937523   2.987   8.111   3.438  1.2285 -0.0080  1.4347
   78MOL   C41037524   2.498   8.201   3.412 -0.0895 -0.3479  0.2233
   78MOL   C41137525   2.410   8.239   3.309 -0.0920 -0.5658  0.3507
   78MOL   C41237526   2.338   8.360   3.327 -0.4028  0.3167 -0.6914
   78MOL   C41337527   2.354   0.013   3.439  1.1495  0.1975 -0.0599
   78MOL   C41437528   2.453   8.402   3.531  0.2000  0.5552 -0.1794
   78MOL   C41537529   2.523   8.286   3.520 -0.0660 -0.0865  0.4843
   78MOL   S41637530   2.210   8.405   3.210  0.0515 -0.0695  0.4642
   78MOL   O41737531   2.091   0.009   3.289 -0.2930  0.7443  0.3098
   78MOL   O41837532   2.209   8.301   3.108 -0.6083  0.2654  0.0031
   78MOL   C41937533   2.253   0.132   3.132  0.6714  0.0005 -0.3264
   78MOL   C42037534   2.258   0.246   3.217  0.0962 -0.0317  1.0071
   78MOL   C42137535   2.292   0.366   3.157  0.1104  0.3555 -0.2462
   78MOL   C42237536   2.320   0.377   3.019 -0.3540 -0.4185 -0.3468
   78MOL   C42337537   2.309   0.262   2.938 -0.5122  0.1917  0.2638
   78MOL   C42437538   2.280   0.134   2.995  0.3798 -0.1933 -0.0863
   78MOL   O42537539   2.373   0.487   2.965 -0.5218  0.2684 -0.7115
   78MOL   H42637540   2.559   8.113   3.405 -0.3848 -0.4846 -0.5910
   78MOL   H42737541   2.398   8.167   3.229  0.2479  0.3571 -0.5342
   78MOL   H42837542   2.296   0.104   3.454 -1.4151 -1.1616 -1.3998
   78MOL   H42937543   2.460   0.039   3.620 -0.3313  1.5798 -0.8416
   78MOL   H43037544   2.234   0.235   3.322  0.1069 -0.0247  1.0100
   78MOL   H43137545   2.304   0.453   3.219  2.2558 -0.8777  1.1803
   78MOL   H43237546   2.330   0.277   2.833 -0.1617  1.7795  0.5500
   78MOL   H43337547   2.264   0.048   2.933 -0.8616  0.2482 -0.4031
   78MOL   C43437548   2.390   0.681   3.092 -0.0532 -0.3496  0.0171
   78MOL   C43537549   2.461   0.780   3.162 -0.4354  0.8268 -0.6276
   78MOL   C43637550   2.603   0.777   3.168  0.4503  0.2733  0.2980
   78MOL   C43737551   2.672   0.670   3.112  0.1045  0.4140 -0.1639
   78MOL   C43837552   2.595   0.575   3.044 -0.6501  0.5686  0.0943
   78MOL   C43937553   2.456   0.575   3.034  0.2843 -0.0458  0.4756
   78MOL   S44037554   2.686   0.914   3.247  0.1397 -0.2013  0.0895
   78MOL   O44137555   2.594   1.029   3.242 -0.1628  0.2474  0.5849
   78MOL   O44237556   2.824   0.918   3.199 -0.8038 -0.4387  0.0128
   78MOL   C44337557   2.696   0.876   3.428 -0.4323  0.0889  0.0279
   78MOL   C44437558   2.582   0.876   3.511 -0.7295 -0.1118 -0.7407
   78MOL   C44537559   2.597   0.858   3.648 -0.6604  0.0820 -0.1351
   78MOL   C44637560   2.721   0.819   3.710  0.0234 -0.1041  0.0073
   78MOL   C44737561   2.832   0.814   3.624 -0.0321  0.2891  0.3224
   78MOL   C44837562   2.821   0.845   3.485 -0.0846 -0.1949 -0.4283
   78MOL   O44937563   2.730   0.795   3.847 -0.1058 -0.9222  0.0616
   78MOL   H45037564   2.282   0.682   3.085 -0.3384 -0.1577  3.5643
   78MOL   H45137565   2.411   0.870   3.196 -0.5422  0.0866  1.2293
   78MOL   H45237566   2.780   0.667   3.118  0.0153 -2.3361  0.6792
   78MOL   H45337567   2.647   0.495   2.994 -2.4815  0.8654 -2.4105
   78MOL   H45437568   2.483   0.912   3.487 -0.3260  3.0248  1.9406
   78MOL   H45537569   2.511   0.864   3.714 -0.0843 -0.6833  0.7001
   78MOL   H45637570   2.923   0.774   3.665 -0.1045 -1.0295 -0.7653
   78MOL   H45737571   2.912   0.838   3.428 -1.2205 -2.6073 -2.0265
   78MOL   C45837572   2.897   0.624   3.896  0.5074 -0.4467 -0.0183
   78MOL   C45937573   2.937   0.497   3.944 -0.5901  0.0411 -0.0620
   78MOL   C46037574   2.835   0.414   3.994 -0.9367 -0.0990 -0.0406
   78MOL   C46137575   2.700   0.458   4.001 -0.0121 -0.0892  0.1472
   78MOL   C46237576   2.666   0.585   3.950  0.2523 -0.4715 -0.8661
   78MOL   C46337577   2.764   0.669   3.899 -0.7402 -0.5943  0.7111
   78MOL   S46437578   2.875   0.255   4.067  0.2652  0.4007 -0.0175
   78MOL   O46537579   2.882   0.157   3.956  0.1649  0.4577 -0.0002
   78MOL   O46637580   2.788   0.229   4.179  0.1642  0.5855 -0.5069
   78MOL   C46737581   3.048   0.262   4.124  0.0391 -0.0582 -0.5376
   78MOL   C46837582   3.126   0.146   4.095 -0.1991  0.5798  0.3653
   78MOL   C46937583   3.250   0.130   4.158  0.1068 -0.6876  0.1211
   78MOL   C47037584   3.299   0.232   4.241  0.4136  0.1900 -0.2743
   78MOL   C47137585   3.223   0.348   4.259 -0.4993 -0.1402 -0.8507
   78MOL   C47237586   3.097   0.364   4.205  0.4274  0.2532  0.1438
   78MOL   O47337587   3.406   0.211   4.314  0.0900  0.1679 -0.4708
   78MOL   H47437588   2.971   0.697   3.866 -0.9078  2.0002  2.2866
   78MOL   H47537589   3.041   0.470   3.940 -0.6879 -0.3606  0.0816
   78MOL   H47637590   2.629   0.393   4.050 -0.1070  0.1010  0.2648
   78MOL   H47737591   2.564   0.619   3.954  0.9624  1.4744  1.4830
   78MOL   H47837592   3.073   0.078   4.030 -1.0688  1.5153  0.0674
   78MOL   H47937593   3.304   0.038   4.147 -0.3305 -1.0345  0.8594
   78MOL   H48037594   3.265   0.436   4.306 -1.2149  0.8846 -2.1120
   78MOL   H48137595   3.036   0.450   4.227 -0.4407 -0.8519  2.3189
   78MOL   H48237596   3.407   0.268   4.389  0.6939 -0.7585  0.2380
   79MOL     C137597   7.269   1.975   1.691  0.6399 -0.6448  0.3359
   79MOL     C237598   7.330   1.894   1.790  0.0373 -0.6056 -0.0030
   79MOL     C337599   7.469   1.902   1.810 -1.1815  1.2745  0.2140
   79MOL     C437600   7.547   1.985   1.728 -0.5071 -0.3267  0.5964
   79MOL     C537601   7.487   2.067   1.631  0.5605 -0.2784  0.9286
   79MOL     C637602   7.349   2.065   1.613 -0.1565  0.4581  1.2467
   79MOL     S737603   7.538   1.806   1.942  0.0414 -0.1909 -0.0957
   79MOL     O837604   7.681   1.826   1.935  0.1460  0.1062 -0.4815
   79MOL     O937605   7.470   1.677   1.939 -0.0375 -0.2747 -0.0761
   79MOL    C1037606   7.470   1.902   2.078 -0.1443  0.4534 -0.2724
   79MOL    C1137607   7.431   1.829   2.193 -0.1788  0.3171  0.4642
   79MOL    C1237608   7.388   1.906   2.308  0.1237  0.1396  1.3145
   79MOL    C1337609   7.366   2.039   2.293  0.4306 -0.1086 -0.3437
   79MOL    C1437610   7.395   2.115   2.177 -0.2325 -0.0023  0.0106
   79MOL    C1537611   7.451   2.044   2.067 -0.8706 -0.8864 -0.8117
   79MOL    O1637612   7.308   2.098   2.402  0.0174  0.3303  0.0861
   79MOL    H1737613   7.165   1.964   1.663  0.8390 -1.2600 -0.1701
   79MOL    H1837614   7.273   1.828   1.853 -3.2568  1.6996 -0.4660
   79MOL    H1937615   7.655   1.985   1.735 -0.4311  1.4363 -0.4075
   79MOL    H2037616   7.529   2.144   1.568 -1.1532 -0.2926 -0.2525
   79MOL    H2137617   7.452   1.723   2.188 -1.2100  0.1588 -0.8390
   79MOL    H2237618   7.360   1.866   2.405 -0.1165  0.5333  1.4074
   79MOL    H2337619   7.387   2.222   2.165  1.4269 -0.0700 -2.0806
   79MOL    H2437620   7.484   2.093   1.977 -0.2692  0.6613  0.2404
   79MOL    H2537621   7.299   2.120   1.535  1.9005  2.3012  1.2113
   79MOL    C2637622   7.498   2.246   2.470 -0.1202 -0.3779  0.3454
   79MOL    C2737623   7.553   2.328   2.572 -0.2261 -1.0207 -0.4157
   79MOL    C2837624   7.480   2.345   2.695 -0.0876  0.9975  0.0619
   79MOL    C2937625   7.348   2.293   2.704  0.2658  0.3578  0.6408
   79MOL    C3037626   7.306   2.199   2.612 -0.6174 -0.1508 -0.0866
   79MOL    C3137627   7.379   2.171   2.493 -0.4525 -0.1422  0.8457
   79MOL    S3237628   7.542   2.447   2.828 -0.0417 -0.1205  0.0007
   79MOL    O3337629   7.435   2.532   2.877  0.4160 -0.7734 -0.4400
   79MOL    O3437630   7.662   2.510   2.778 -0.1523  0.1232  0.2669
   79MOL    C3537631   7.598   2.351   2.972  0.2537  0.0150 -0.1677
   79MOL    C3637632   7.548   2.222   2.974  0.1865  0.1019 -0.0633
   79MOL    C3737633   7.574   2.141   3.088 -0.2967  0.1044  0.0006
   79MOL    C3837634   7.653   2.198   3.193  0.8060  0.2802 -0.3432
   79MOL    C3937635   7.714   2.319   3.181  0.1377  0.1659 -1.2189
   79MOL    C4037636   7.685   2.402   3.071 -0.4067  0.2590  0.2243
   79MOL    O4137637   7.677   2.126   3.306 -0.2433  0.1221  0.1819
   79MOL    H4237638   7.559   2.241   2.381  1.7823 -1.9777  1.6848
   79MOL    H4337639   7.651   2.370   2.559 -0.5981  0.6886  2.0263
   79MOL    H4437640   7.289   2.321   2.790 -1.1506  0.6518 -0.4078
   79MOL    H4537641   7.206   2.159   2.626  0.1734 -1.7949  1.0570
   79MOL    H4637642   7.478   2.186   2.899  1.4017  1.3009 -1.8064
   79MOL    H4737643   7.536   2.041   3.099  2.0196 -0.5607  2.4881
   79MOL    H4837644   7.783   2.362   3.253 -0.5522 -1.1233  0.2307
   79MOL    H4937645   7.730   2.500   3.066  2.0209 -0.7368  1.5779
   79MOL    C5037646   7.552   2.221   3.483  0.0575  0.1635 -0.0875
   79MOL    C5137647   7.456   2.202   3.585 -0.1042 -0.4344 -0.2903
   79MOL    C5237648   7.388   2.082   3.595 -0.6931  0.2382 -0.7325
   79MOL    C5337649   7.411   1.976   3.506  0.0473  0.2127  0.3561
   79MOL    C5437650   7.507   1.988   3.407 -0.2109 -0.1642  0.3530
   79MOL    C5537651   7.578   2.112   3.397 -0.2993  0.0850 -0.0946
   79MOL    S5637652   7.262   2.064   3.716  0.1338 -0.0634 -0.0612
   79MOL    O5737653   7.319   2.019   3.847  0.0704  0.0277  0.0351
   79MOL    O5837654   7.153   1.987   3.654 -0.1439  0.1449  0.5809
   79MOL    C5937655   7.208   2.237   3.749 -0.4891  0.0595 -0.5883
   79MOL    C6037656   7.257   2.305   3.861 -0.2744  0.7629 -0.5820
   79MOL    C6137657   7.243   2.444   3.871 -1.0371 -0.6648  0.2568
   79MOL    C6237658   7.163   2.508   3.772  0.9643  0.1252 -0.5171
   79MOL    C6337659   7.106   2.437   3.668  0.7074  0.3386  0.2396
   79MOL    C6437660   7.131   2.298   3.648 -0.1449  0.2544 -0.4236
   79MOL    O6537661   7.135   2.639   3.785  0.1756  0.1893  0.1292
   79MOL    H6637662   7.612   2.310   3.468  0.4513 -0.4002 -1.9835
   79MOL    H6737663   7.432   2.287   3.648 -1.0972 -0.8790 -0.0710
   79MOL    H6837664   7.356   1.884   3.519  2.3285 -0.9434  2.1170
   79MOL    H6937665   7.539   1.908   3.342  1.5219  0.3903  0.4922
   79MOL    H7037666   7.326   2.261   3.931 -0.7971  1.9553  0.7003
   79MOL    H7137667   7.276   2.506   3.952 -3.8886 -1.0441  1.7611
   79MOL    H7237668   7.059   2.502   3.594 -0.6530 -0.8583  0.0264
   79MOL    H7337669   7.074   2.256   3.567 -1.9033 -0.2647  1.0562
   79MOL    C7437670   7.354   2.718   3.707 -0.8731 -0.0738  0.5162
   79MOL    C7537671   7.469   2.792   3.736  0.4428 -0.5727 -0.0964
   79MOL    C7637672   7.465   2.877   3.849  0.7791  0.9116  0.4464
   79MOL    C7737673   7.349   2.892   3.923 -0.7322  0.0116 -0.9154
   79MOL    C7837674   7.239   2.810   3.907 -0.7534 -0.2752 -0.2888
   79MOL    C7937675   7.242   2.725   3.794  0.0085  0.4662 -0.1610
   79MOL    S8037676   7.607   2.972   3.904  0.0120 -0.2794 -0.1491
   79MOL    O8137677   7.714   2.890   3.964 -0.1499 -0.0893  0.0768
   79MOL    O8237678   7.555   3.086   3.978 -0.0263  0.0543 -0.2313
   79MOL    C8337679   7.680   3.040   3.751 -0.2514 -0.2744  0.1927
   79MOL    C8437680   7.611   3.043   3.626 -0.5144 -0.0023 -0.7908
   79MOL    C8537681   7.670   3.106   3.510 -0.4276 -0.0255 -0.1984
   79MOL    C8637682   7.806   3.152   3.520 -0.1516  0.2116 -0.0164
   79MOL    C8737683   7.870   3.142   3.648 -0.7401  0.4397 -0.2498
   79MOL    C8837684   7.810   3.085   3.762 -0.1525  0.2502 -0.4456
   79MOL    O8937685   7.876   3.209   3.410 -0.1531 -0.7138  0.1671
   79MOL    H9037686   7.347   2.656   3.619 -0.5961  1.1571 -0.3754
   79MOL    H9137687   7.564   2.791   3.685  0.1012  2.0792 -0.8520
   79MOL    H9237688   7.347   2.975   3.992  2.1211  2.0554 -3.1909
   79MOL    H9337689   7.151   2.831   3.965 -0.4282  0.3702 -0.0203
   79MOL    H9437690   7.508   3.012   3.620 -0.1483 -1.2786 -0.4818
   79MOL    H9537691   7.623   3.115   3.413  0.6921  0.8675 -0.6613
   79MOL    H9637692   7.969   3.183   3.652 -0.2402 -0.7470 -0.3928
   79MOL    H9737693   7.859   3.080   3.858 -1.3913 -0.5663  0.1480
   79MOL    C9837694   8.074   3.258   3.302 -0.3934  0.2796  0.5558
   79MOL    C9937695   8.205   3.227   3.262 -0.4076 -1.3859  0.4756
   79MOL   C10037696   8.270   3.115   3.319 -0.2323 -0.6723 -0.2215
   79MOL   C10137697   8.199   3.016   3.385  0.5483 -0.1950  0.5609
   79MOL   C10237698   8.063   3.045   3.422 -0.0373  0.0802  0.9044
   79MOL   C10337699   8.001   3.167   3.378  0.1128 -0.5783 -0.4308
   79MOL   S10437700   0.027   3.104   3.300  0.2090 -0.1158  0.1110
   79MOL   O10537701   0.082   3.080   3.435 -0.4254 -1.0948  0.1663
   79MOL   O10637702   0.082   3.223   3.234 -0.0815 -0.1682  0.0851
   79MOL   C10737703   0.055   2.964   3.197  0.6470  0.5143 -0.3024
   79MOL   C10837704   0.177   2.895   3.201  0.5421 -0.1470 -0.6365
   79MOL   C10937705   0.185   2.773   3.128  0.0969 -0.4032 -0.0944
   79MOL   C11037706   0.079   2.723   3.054  0.3937 -0.0135  0.1445
   79MOL   C11137707   8.387   2.797   3.051 -0.3006  0.5056  0.4991
   79MOL   C11237708   8.372   2.919   3.120  0.2959  0.3411  0.8206
   79MOL   O11337709   0.084   2.597   3.008 -0.2434 -0.0225 -0.0056
   79MOL   H11437710   8.026   3.349   3.268 -2.3360 -0.4371  1.3348
   79MOL   H11537711   8.258   3.302   3.205 -1.4634 -0.8413  0.2062
   79MOL   H11637712   8.244   2.923   3.417  0.2910 -0.8535 -0.9750
   79MOL   H11737713   8.005   2.973   3.478 -0.8763  1.4115  1.7751
   79MOL   H11837714   0.256   2.926   3.268  0.7056  1.3342 -1.4977
   79MOL   H11937715   0.269   2.707   3.145 -0.9143 -1.8604 -0.6226
   79MOL   H12037716   8.305   2.755   2.995  0.9807 -2.7613  1.0145
   79MOL   H12137717   8.275   2.967   3.124  1.3527  2.6095  0.2787
   79MOL   C12237718   0.203   2.608   2.795  1.0192  0.6249 -0.4365
   79MOL   C12337719   0.203   2.568   2.660  0.3950 -0.5691  0.2366
   79MOL   C12437720   0.085   2.510   2.604 -0.0384  0.1538 -0.2634
   79MOL   C12537721   8.396   2.489   2.681 -0.5643 -0.3605 -0.3977
   79MOL   C12637722   8.395   2.514   2.826  0.0499 -0.5803  0.2516
   79MOL   C12737723   0.090   2.573   2.873 -0.2250  0.0569 -0.4244
   79MOL   S12837724   0.082   2.460   2.421 -0.2212  0.0945  0.5280
   79MOL   O12937725   8.372   2.459   2.374  0.0968  0.0245  0.0427
   79MOL   O13037726   0.167   2.343   2.416 -0.0962 -0.5579 -0.2050
   79MOL   C13137727   0.163   2.597   2.330 -0.0053  0.1597  0.3078
   79MOL   C13237728   0.090   2.712   2.301 -0.5749  0.4593 -0.2938
   79MOL   C13337729   0.154   2.827   2.241  1.0602  0.2688 -0.2004
   79MOL   C13437730   0.294   2.825   2.217 -0.0556  0.1551  0.1627
   79MOL   C13537731   0.364   2.701   2.231 -0.4316 -0.5259 -0.5954
   79MOL   C13637732   0.300   2.587   2.286  0.3175 -0.5718  0.2436
   79MOL   O13737733   0.361   2.935   2.171  0.5225 -0.3483 -0.2754
   79MOL   H13837734   0.290   2.655   2.837 -0.4941  1.4830  1.8376
   79MOL   H13937735   0.297   2.579   2.607  0.2169 -0.9649 -0.1568
   79MOL   H14037736   8.312   2.440   2.634 -1.3915 -0.2933  0.9696
   79MOL   H14137737   8.323   2.463   2.888 -0.6111 -1.0494 -0.8948
   79MOL   H14237738   8.409   2.708   2.322 -0.8683  0.4998 -1.7250
   79MOL   H14337739   0.101   2.920   2.227  1.5485  0.7864  1.2166
   79MOL   H14437740   0.465   2.684   2.197 -0.7709 -1.4807 -1.1260
   79MOL   H14537741   0.368   2.505   2.298  3.0170  1.9099  2.9420
   79MOL   C14637742   0.264   3.120   2.058  1.3214 -0.7239 -0.5874
   79MOL   C14737743   0.212   3.176   1.941  0.4030 -0.8300 -0.6839
   79MOL   C14837744   0.206   3.106   1.825  0.9229  0.2300 -0.6414
   79MOL   C14937745   0.265   2.974   1.821 -0.0165 -0.7618  0.7973
   79MOL   C15037746   0.321   2.920   1.938 -0.2081  0.8121  0.4506
   79MOL   C15137747   0.313   2.988   2.056  0.8785  0.4002 -0.1672
   79MOL   S15237748   0.132   3.179   1.689  0.0082 -0.3194  0.3811
   79MOL   O15337749   0.171   3.110   1.563 -0.1902  0.0138 -0.5336
   79MOL   O15437750   0.161   3.322   1.691 -0.2801  0.3810 -0.1944
   79MOL   C15537751   8.377   3.165   1.704  0.4157 -0.3186  0.0594
   79MOL   C15637752   8.303   3.111   1.604  0.2013 -0.2614 -0.4878
   79MOL   C15737753   8.168   3.087   1.619 -0.4489  0.2856 -0.2630
   79MOL   C15837754   8.106   3.112   1.739  0.1212  0.1614  0.0531
   79MOL   C15937755   8.179   3.178   1.842  0.6322 -0.3430  0.1378
   79MOL   C16037756   8.317   3.213   1.827  0.2806  0.0744 -0.9753
   79MOL   O16137757   7.969   3.072   1.762  0.7457 -0.9293 -0.5471
   79MOL   H16237758   0.266   3.180   2.148  2.5226 -2.5301  0.6171
   79MOL   H16337759   0.170   3.275   1.935  1.6735 -0.2770 -0.6793
   79MOL   H16437760   0.266   2.926   1.725 -4.3816  1.8087 -0.6593
   79MOL   H16537761   0.367   2.823   1.949 -0.4618  0.7490  0.9470
   79MOL   H16637762   8.358   3.087   1.514  1.4512 -0.4095  0.3041
   79MOL   H16737763   8.116   3.032   1.542  0.6355  0.0406 -0.8291
   79MOL   H16837764   8.121   3.200   1.931  0.0074 -0.1941 -0.2999
   79MOL   H16937765   8.369   3.266   1.906 -2.0064  1.2554 -0.1948
   79MOL   C17037766   7.880   3.224   1.600 -0.5667 -0.4923 -0.6076
   79MOL   C17137767   7.774   3.253   1.515 -0.2262  0.3546  0.3448
   79MOL   C17237768   7.663   3.169   1.516  0.0962 -0.0827  0.0413
   79MOL   C17337769   7.654   3.060   1.605 -0.0956 -0.6242  0.2168
   79MOL   C17437770   7.763   3.033   1.686  0.4097  0.8667 -0.0176
   79MOL   C17537771   7.873   3.109   1.680 -0.6032 -0.4180 -0.5849
   79MOL   S17637772   7.521   3.207   1.410  0.1319 -0.0724  0.1205
   79MOL   O17737773   7.542   3.341   1.344 -0.2520 -0.0793 -0.6467
   79MOL   O17837774   7.405   3.201   1.490 -0.2851  0.9191 -0.0464
   79MOL   C17937775   7.508   3.081   1.289 -0.1579 -0.4342  0.0362
   79MOL   C18037776   7.616   3.015   1.226 -0.3939  0.1147 -0.2855
   79MOL   C18137777   7.587   2.924   1.122 -0.0191 -0.9136  0.1518
   79MOL   C18237778   7.459   2.888   1.083  0.2635 -0.3797  0.5124
   79MOL   C18337779   7.353   2.951   1.150 -0.1358 -0.5516 -0.6243
   79MOL   C18437780   7.376   3.040   1.259  0.1985 -0.4727  0.1123
   79MOL   O18537781   7.437   2.810   0.973  0.1836  0.3868 -0.2174
   79MOL   H18637782   7.966   3.288   1.605 -1.3958  0.6252 -0.3259
   79MOL   H18737783   7.794   3.334   1.445 -0.4465  1.0817  1.1188
   79MOL   H18837784   7.561   3.006   1.601 -1.7206  1.9911  0.9646
   79MOL   H18937785   7.762   2.945   1.749  3.9536 -0.1235 -1.2694
   79MOL   H19037786   7.718   3.048   1.241 -0.5384  0.8819 -0.9380
   79MOL   H19137787   7.676   2.895   1.070  1.9168  0.8672  2.3660
   79MOL   H19237788   7.249   2.940   1.122 -0.5823 -0.5808  0.9839
   79MOL   H19337789   7.293   3.088   1.309  1.6934  2.3806 -0.0512
   79MOL   C19437790   7.498   2.627   0.831  1.1179 -0.5428 -0.0624
   79MOL   C19537791   7.534   2.492   0.818 -0.9289 -0.1509  0.1635
   79MOL   C19637792   7.553   2.404   0.922  0.1091 -0.3685  0.0453
   79MOL   C19737793   7.547   2.460   1.055  0.4180 -0.6507 -0.2718
   79MOL   C19837794   7.522   2.600   1.072  0.0664  0.0840  0.1048
   79MOL   C19937795   7.487   2.685   0.961  0.6096 -0.1521  0.1168
   79MOL   S20037796   7.599   2.239   0.877  0.6133  0.1120  0.0172
   79MOL   O20137797   7.689   2.194   0.988 -0.0705  0.3620 -0.3829
   79MOL   O20237798   7.650   2.249   0.738 -0.5075  0.0499 -0.2584
   79MOL   C20337799   7.448   2.145   0.881  0.0892  0.2868  0.1634
   79MOL   C20437800   7.433   2.042   0.787 -0.0167 -0.7316  1.1446
   79MOL   C20537801   7.306   1.973   0.775  0.3084  0.4068 -0.3256
   79MOL   C20637802   7.202   1.999   0.873 -0.6582  0.9275  0.4169
   79MOL   C20737803   7.224   2.097   0.967  0.1634  0.0097  0.1656
   79MOL   C20837804   7.342   2.174   0.971 -0.5800  0.2119 -0.2453
   79MOL   O20937805   7.088   1.924   0.859  0.3079 -0.1771 -0.1009
   79MOL   H21037806   7.468   2.682   0.743  0.4160 -0.1967  0.3910
   79MOL   H21137807   7.543   2.458   0.716 -1.9987  0.1393 -0.0343
   79MOL   H21237808   7.564   2.395   1.139  1.6427  0.6765  0.5474
   79MOL   H21337809   7.525   2.642   1.171 -0.7618 -1.5613  0.8503
   79MOL   H21437810   7.515   2.022   0.719 -1.8755  1.3294 -1.8005
   79MOL   H21537811   7.290   1.897   0.700  1.4703  0.2736 -0.4547
   79MOL   H21637812   7.148   2.128   1.037 -1.0859  0.8108 -1.5078
   79MOL   H21737813   7.343   2.252   1.046 -0.7273  0.0279 -0.0527
   79MOL   C21837814   6.859   1.915   0.916 -0.1246 -0.4297  0.2209
   79MOL   C21937815   6.725   1.962   0.909  0.2134 -1.2574  0.1844
   79MOL   C22037816   6.705   2.096   0.856  0.0359 -0.3130  0.2351
   79MOL   C22137817   6.817   2.172   0.808  0.3931  0.2388  0.2602
   79MOL   C22237818   6.944   2.115   0.805  0.7946 -0.5982 -0.4766
   79MOL   C22337819   6.966   1.990   0.856  0.0268 -0.3526  0.6957
   79MOL   S22437820   6.529   2.161   0.831 -0.5564  0.2251 -0.2484
   79MOL   O22537821   6.464   2.067   0.740 -0.2984  0.6651  0.4096
   79MOL   O22637822   6.533   2.305   0.812 -0.8928 -0.0981  0.2411
   79MOL   C22737823   6.449   2.133   0.990 -0.1590  0.0867 -0.5320
   79MOL   C22837824   6.519   2.159   1.111 -0.1804 -0.4340 -0.1995
   79MOL   C22937825   6.440   2.152   1.234 -0.2645  0.2380  0.6519
   79MOL   C23037826   6.301   2.119   1.228 -0.3087 -0.2583  0.3143
   79MOL   C23137827   6.246   2.086   1.103  0.0581 -0.0355 -0.6352
   79MOL   C23237828   6.313   2.101   0.982  0.5188 -0.2612 -0.3743
   79MOL   O23337829   6.218   2.116   1.334 -0.2215 -0.6034 -0.0146
   79MOL   H23437830   6.870   1.822   0.969 -0.9418 -2.3131 -2.7941
   79MOL   H23537831   6.636   1.908   0.939 -0.2657 -0.9286 -0.6309
   79MOL   H23637832   6.815   2.258   0.742  0.4518 -0.5604 -0.7879
   79MOL   H23737833   7.022   2.154   0.742  0.4348  0.2824 -0.3819
   79MOL   H23837834   6.625   2.178   1.112 -0.7326  3.0867 -1.3606
   79MOL   H23937835   6.488   2.169   1.329  2.7542  1.1986 -0.9517
   79MOL   H24037836   6.140   2.064   1.099  0.5930 -2.7575 -0.5465
   79MOL   H24137837   6.271   2.084   0.884  0.4712  0.4175 -0.4734
   79MOL   C24237838   6.242   2.155   1.566  0.5167 -0.2814  0.2400
   79MOL   C24337839   6.245   2.248   1.678  0.1429 -0.0258 -0.5357
   79MOL   C24437840   6.261   2.383   1.652  0.6321  0.1743 -0.5478
   79MOL   C24537841   6.252   2.426   1.521  0.4357 -0.4906 -0.9234
   79MOL   C24637842   6.238   2.341   1.415 -0.0974 -0.2159  1.3909
   79MOL   C24737843   6.241   2.205   1.435  0.0370 -0.3991 -0.1351
   79MOL   S24837844   6.293   2.502   1.782 -0.0096 -0.1185  0.1479
   79MOL   O24937845   6.166   2.556   1.832  0.0371 -0.3698  0.0924
   79MOL   O25037846   6.395   2.595   1.727 -0.3036  0.2259  0.5567
   79MOL   C25137847   6.371   2.409   1.914 -0.1170 -0.0595 -0.1558
   79MOL   C25237848   6.357   2.456   2.046  0.9334 -0.1629 -0.0176
   79MOL   C25337849   6.428   2.391   2.146  0.0888  0.3464  0.0855
   79MOL   C25437850   6.513   2.284   2.115 -0.4245  0.3378  0.2768
   79MOL   C25537851   6.539   2.248   1.979 -0.8905  0.3455  0.0804
   79MOL   C25637852   6.464   2.311   1.875  0.2754 -0.1157  0.0588
   79MOL   O25737853   6.592   2.249   2.222 -0.1455  0.5058 -0.0783
   79MOL   H25837854   6.235   2.049   1.582  1.0982 -0.5092 -0.9743
   79MOL   H25937855   6.241   2.217   1.781 -0.9723  0.1931 -0.5056
   79MOL   H26037856   6.258   2.534   1.518 -0.5659 -0.4086 -0.3625
   79MOL   H26137857   6.242   2.380   1.314  2.9260 -2.5172  0.5415
   79MOL   H26237858   6.284   2.531   2.072  0.6923 -0.1958 -0.5907
   79MOL   H26337859   6.417   2.418   2.249 -1.8987  0.8453 -0.2415
   79MOL   H26437860   6.622   2.182   1.960 -0.9586  0.9169 -2.2673
   79MOL   H26537861   6.474   2.284   1.771  1.3332 -1.2792  0.4546
   79MOL   C26637862   6.809   2.193   2.157 -0.1584  0.7620 -0.2710
   79MOL   C26737863   6.909   2.089   2.140  0.2363  0.3920 -0.0820
   79MOL   C26837864   6.869   1.951   2.160 -0.2692  0.4962  0.6229
   79MOL   C26937865   6.745   1.918   2.198 -0.5727 -0.1140  0.0643
   79MOL   C27037866   6.651   2.016   2.234  0.3963  0.6404 -0.3087
   79MOL   C27137867   6.680   2.152   2.207  0.5588 -0.2557  0.4546
   79MOL   S27237868   6.994   1.828   2.140 -0.0946 -0.4372  0.1704
   79MOL   O27337869   7.102   1.895   2.063 -0.0880 -0.8160  0.0845
   79MOL   O27437870   6.920   1.711   2.090  0.2490 -0.0301 -0.2260
   79MOL   C27537871   7.043   1.806   2.312 -0.2790 -0.0439  0.1762
   79MOL   C27637872   7.046   1.910   2.410 -0.2003 -0.3823  0.5543
   79MOL   C27737873   7.103   1.890   2.536  0.2397  0.3267 -0.9684
   79MOL   C27837874   7.162   1.766   2.570  0.1443  0.1567  0.6853
   79MOL   C27937875   7.164   1.665   2.469 -0.3768  0.0551 -0.5590
   79MOL   C28037876   7.106   1.683   2.338  0.1434 -0.3232  0.3501
   79MOL   O28137877   7.216   1.749   2.690 -0.2360 -0.0464 -0.1180
   79MOL   H28237878   6.820   2.298   2.131  1.2568  0.4094 -1.1262
   79MOL   H28337879   7.006   2.119   2.104  0.4710  0.0036  0.2235
   79MOL   H28437880   6.724   1.813   2.215  0.8382 -0.5221 -0.6723
   79MOL   H28537881   6.558   1.985   2.279  0.9142 -0.6549 -0.0944
   79MOL   H28637882   7.009   2.009   2.385 -0.5826 -0.2451  1.6030
   79MOL   H28737883   7.111   1.964   2.615 -2.6158  0.4620 -0.7534
   79MOL   H28837884   7.204   1.565   2.475 -0.1156  0.1213 -1.1487
   79MOL   H28937885   7.101   1.601   2.268  0.8122  1.3575 -1.7609
   79MOL   C29037886   7.443   1.798   2.701 -0.0876 -0.2383 -1.3217
   79MOL   C29137887   7.580   1.748   2.724  0.2777 -0.3362 -0.5514
   79MOL   C29237888   7.605   1.610   2.732  0.3721  0.1198 -0.2355
   79MOL   C29337889   7.500   1.522   2.729  0.1282  0.4657  0.2152
   79MOL   C29437890   7.365   1.565   2.715  0.4477 -0.1408 -0.0122
   79MOL   C29537891   7.343   1.702   2.701 -0.4270  0.6472  0.4241
   79MOL   S29637892   7.773   1.544   2.766  0.1193  0.0842  0.0780
   79MOL   O29737893   7.856   1.653   2.819  0.5588  0.3147 -0.0202
   79MOL   O29837894   7.826   1.465   2.654  0.0311 -0.1506  0.0178
   79MOL   C29937895   7.752   1.429   2.901 -0.0857 -0.5159  0.0786
   79MOL   C30037896   7.659   1.455   3.007  0.1083  0.2421  0.1687
   79MOL   C30137897   7.634   1.363   3.107 -0.2188 -0.0751  0.1264
   79MOL   C30237898   7.708   1.245   3.110  0.0522  0.2087 -0.0896
   79MOL   C30337899   7.808   1.220   3.015 -0.5832 -0.4278 -0.3912
   79MOL   C30437900   7.828   1.310   2.911  0.5220 -0.2059  0.1123
   79MOL   O30537901   7.681   1.163   3.213  0.0659 -0.2650  0.3039
   79MOL   H30637902   7.417   1.902   2.711 -0.8845 -0.4850 -0.8152
   79MOL   H30737903   7.663   1.816   2.734  1.1917 -1.4058 -0.7035
   79MOL   H30837904   7.521   1.418   2.748 -0.8844  0.5186  1.6756
   79MOL   H30937905   7.285   1.491   2.714 -0.1986  0.5727 -2.6006
   79MOL   H31037906   7.589   1.537   2.995  0.8060  0.9490  0.8590
   79MOL   H31137907   7.548   1.374   3.171  0.0340 -0.4247  0.5252
   79MOL   H31237908   7.870   1.132   3.016  1.8623  1.2093 -1.2414
   79MOL   H31337909   7.909   1.292   2.841  0.0405 -0.9121 -0.2543
   79MOL   C31437910   7.732   0.932   3.188  0.2434  0.1125 -0.0807
   79MOL   C31537911   7.690   0.800   3.143  0.6671  0.2417 -0.3178
   79MOL   C31637912   7.559   0.774   3.104 -0.7099 -0.4542  0.0858
   79MOL   C31737913   7.470   0.879   3.091 -0.1753 -0.2984 -0.4929
   79MOL   C31837914   7.510   1.013   3.117  0.8466  0.9646  0.0218
   79MOL   C31937915   7.638   1.035   3.176 -0.8726 -0.0320  0.1836
   79MOL   S32037916   7.507   0.608   3.063 -0.2054  0.4133  0.3966
   79MOL   O32137917   7.457   0.542   3.182  0.3247 -0.1034  0.4660
   79MOL   O32237918   7.624   0.548   2.993 -0.2056 -0.4790 -0.0620
   79MOL   C32337919   7.372   0.625   2.945 -0.6454 -0.3799 -0.4336
   79MOL   C32437920   7.403   0.664   2.820 -0.0511 -0.2510 -0.1372
   79MOL   C32537921   7.301   0.665   2.721 -0.0921 -0.7948  0.0253
   79MOL   C32637922   7.168   0.638   2.763  0.1864 -0.1363  0.4558
   79MOL   C32737923   7.135   0.622   2.896 -0.2342 -0.0359 -0.3610
   79MOL   C32837924   7.241   0.612   2.989 -0.2124  0.2477  0.0034
   79MOL   O32937925   7.076   0.635   2.659 -0.4269  0.3459 -0.6120
   79MOL   H33037926   7.835   0.946   3.216  0.3688  1.6949 -1.2166
   79MOL   H33137927   7.763   0.720   3.135 -0.3547 -0.6754 -0.5908
   79MOL   H33237928   7.371   0.861   3.050 -0.5575 -1.1511  0.7832
   79MOL   H33337929   7.448   1.101   3.105  0.8903  1.2571  1.7717
   79MOL   H33437930   7.506   0.687   2.795 -0.7285  1.3737 -1.5265
   79MOL   H33537931   7.316   0.688   2.616 -4.6193 -0.1115 -0.5572
   79MOL   H33637932   7.030   0.606   2.915 -0.0126 -0.4926  0.5172
   79MOL   H33737933   7.218   0.582   3.091  1.2570 -0.8747  0.0196
   79MOL   C33837934   6.959   0.510   2.487  0.3976 -0.0505  0.0281
   79MOL   C33937935   6.918   0.391   2.426  0.0266  0.0477 -0.5701
   79MOL   C34037936   6.965   0.266   2.476 -0.2471 -0.0212 -0.0032
   79MOL   C34137937   7.045   0.263   2.596 -0.1752  0.0492  0.1802
   79MOL   C34237938   7.083   0.386   2.652 -0.0461  0.4352 -0.4282
   79MOL   C34337939   7.040   0.511   2.604 -0.3243  0.4316 -0.4754
   79MOL   S34437940   6.902   0.121   2.394  0.3756 -0.1855 -0.1825
   79MOL   O34537941   6.967   0.120   2.264  0.3580  0.2361  0.0480
   79MOL   O34637942   6.753   0.119   2.402 -0.4106 -0.2428 -0.3047
   79MOL   C34737943   6.961   8.404   2.493  0.4413 -0.6760 -0.5160
   79MOL   C34837944   6.892   8.375   2.611  0.0473 -0.4384  0.3259
   79MOL   C34937945   6.924   8.266   2.693 -0.0119  0.1946  0.2703
   79MOL   C35037946   7.042   8.190   2.660 -0.6188 -0.2874 -0.0596
   79MOL   C35137947   7.116   8.228   2.541  0.2790  0.7491  0.4555
   79MOL   C35237948   7.070   8.326   2.454  0.0743 -0.4827  0.1357
   79MOL   O35337949   7.090   8.081   2.731  0.8058 -0.2772 -0.3556
   79MOL   H35437950   6.922   0.605   2.450 -1.2941 -0.4233  0.6937
   79MOL   H35537951   6.847   0.387   2.344 -1.9480 -0.5193  1.1292
   79MOL   H35637952   7.082   0.169   2.632 -2.1899 -0.0867  1.9901
   79MOL   H35737953   7.141   0.371   2.742 -1.0423  0.3329  0.2027
   79MOL   H35837954   6.802   0.003   2.638  0.7556  0.7414  0.4526
   79MOL   H35937955   6.858   8.232   2.771  0.8054 -2.3686 -0.0973
   79MOL   H36037956   7.214   8.186   2.522 -0.7012 -0.7720 -1.4066
   79MOL   H36137957   7.115   8.353   2.360  0.8525  1.9155  1.1605
   79MOL   C36237958   7.027   7.873   2.620 -0.3276  0.1171  0.2270
   79MOL   C36337959   6.947   7.755   2.619  0.7734  0.8328 -0.4389
   79MOL   C36437960   6.860   7.730   2.726  0.2633 -0.4280  0.5072
   79MOL   C36537961   6.845   7.821   2.830  0.0420 -0.5540  0.3354
   79MOL   C36637962   6.917   7.944   2.825 -0.3331  0.5701  0.1595
   79MOL   C36737963   7.012   7.964   2.724 -0.3727  0.0397  0.8010
   79MOL   S36837964   6.762   7.580   2.720  0.1046 -0.2559  0.1330
   79MOL   O36937965   6.690   7.575   2.847  0.8420 -0.1213  0.1050
   79MOL   O37037966   6.849   7.468   2.680  0.3769  0.3749  0.3260
   79MOL   C37137967   6.639   7.598   2.588  0.8973 -0.1191  0.3217
   79MOL   C37237968   6.588   7.473   2.540 -0.1905  0.0124 -0.1292
   79MOL   C37337969   6.491   7.479   2.438 -0.2621 -0.6477 -0.0511
   79MOL   C37437970   6.451   7.600   2.382 -0.2155  0.3565 -0.8945
   79MOL   C37537971   6.496   7.725   2.441 -0.7059  0.0978 -0.2335
   79MOL   C37637972   6.593   7.725   2.541 -0.1291  0.5325  0.5166
   79MOL   O37737973   6.353   7.605   2.285 -0.5306  0.3338  0.0985
   79MOL   H37837974   7.107   7.885   2.547  1.7999 -0.1689  2.4345
   79MOL   H37937975   6.954   7.681   2.540  2.0736 -1.0019  1.3542
   79MOL   H38037976   6.782   7.795   2.914  0.5638 -3.4960 -0.1297
   79MOL   H38137977   6.900   8.019   2.901 -1.2046 -0.5766  1.1249
   79MOL   H38237978   6.622   7.377   2.577 -3.3389 -0.5315  1.5945
   79MOL   H38337979   6.445   7.389   2.401 -0.3849 -0.3217 -0.6922
   79MOL   H38437980   6.464   7.820   2.402 -1.5730 -0.1622 -0.1776
   79MOL   H38537981   6.622   7.816   2.591  3.8928 -0.3278 -0.0489
   79MOL   C38637982   6.291   7.595   2.057  0.4932 -0.2394 -0.1108
   79MOL   C38737983   6.300   7.544   1.925 -0.4100 -0.1719 -0.2650
   79MOL   C38837984   6.417   7.475   1.887 -0.5751  0.7873 -0.2936
   79MOL   C38937985   6.523   7.454   1.980 -0.3520  0.0189 -0.3014
   79MOL   C39037986   6.503   7.501   2.113  0.3909  0.0405  0.0392
   79MOL   C39137987   6.388   7.573   2.156 -0.1521 -0.2392 -0.3229
   79MOL   S39237988   6.431   7.390   1.727  0.0885 -0.1800  0.5458
   79MOL   O39337989   6.307   7.314   1.719 -0.6909 -0.4354 -0.2396
   79MOL   O39437990   6.561   7.322   1.711 -0.0135  0.3093 -0.1795
   79MOL   C39537991   6.419   7.519   1.601 -0.0470 -1.1006 -0.7526
   79MOL   C39637992   6.531   7.600   1.572  0.0768  0.9911  0.0338
   79MOL   C39737993   6.525   7.700   1.475 -0.3676 -0.2226  0.6330
   79MOL   C39837994   6.408   7.711   1.399 -0.5412 -0.0065 -0.0866
   79MOL   C39937995   6.295   7.629   1.426  0.2693 -0.0262 -0.4586
   79MOL   C40037996   6.299   7.530   1.529 -0.0393  0.0192  0.0043
   79MOL   O40137997   6.395   7.802   1.302  0.2251  0.2443 -0.1755
   79MOL   H40237998   6.196   7.643   2.075  1.4907  0.9993  1.9635
   79MOL   H40337999   6.223   7.542   1.849 -1.4143 -1.1185  0.7545
   79MOL   H40438000   6.604   7.390   1.949 -0.9573 -0.0253 -1.8460
   79MOL   H40538001   6.582   7.479   2.183 -0.9706 -2.3182  0.8982
   79MOL   H40638002   6.620   7.586   1.631  0.1645 -1.3438 -0.6022
   79MOL   H40738003   6.612   7.758   1.448 -1.1174  0.5823 -0.0696
   79MOL   H40838004   6.206   7.629   1.364  1.2216 -0.8476 -1.8551
   79MOL   H40938005   6.219   7.458   1.530 -1.5325  1.4495 -3.9679
   79MOL   C41038006   6.570   7.929   1.223  0.0715  0.1952  0.6903
   79MOL   C41138007   6.679   7.941   1.132 -0.1304  0.5531 -0.0675
   79MOL   C41238008   6.696   7.851   1.018  0.0202  0.4305  0.4146
   79MOL   C41338009   6.609   7.739   1.014  0.3075 -0.2005  0.5841
   79MOL   C41438010   6.507   7.722   1.105 -0.2365 -0.1587  0.3938
   79MOL   C41538011   6.490   7.814   1.208 -0.4890 -0.3392 -0.5262
   79MOL   S41638012   6.853   7.836   0.945  0.0470 -0.0904 -0.1688
   79MOL   O41738013   6.935   7.736   1.019  0.9430 -0.4130  0.1977
   79MOL   O41838014   6.905   7.973   0.921  0.1367  0.0502  0.3565
   79MOL   C41938015   6.836   7.770   0.777  0.2520 -0.1775 -0.2794
   79MOL   C42038016   6.749   7.840   0.689  0.1555  0.2720 -0.5158
   79MOL   C42138017   6.725   7.785   0.562 -0.1225 -0.6277 -0.5767
   79MOL   C42238018   6.788   7.667   0.514  0.1123  0.3179  0.2783
   79MOL   C42338019   6.871   7.602   0.607  0.3152  0.4040 -0.3290
   79MOL   C42438020   6.897   7.652   0.734  0.1243 -0.3910 -0.3285
   79MOL   O42538021   6.760   7.627   0.381  0.4156 -0.2930  0.0330
   79MOL   H42638022   6.554   7.996   1.307  1.1098  0.7616  0.4406
   79MOL   H42738023   6.753   8.020   1.139  0.8415 -0.4091  0.6813
   79MOL   H42838024   6.634   7.662   0.943 -1.5043  0.4793 -0.8327
   79MOL   H42938025   6.444   7.635   1.112  2.4723 -2.1517  0.7036
   79MOL   H43038026   6.695   7.928   0.721  0.3850  0.1776  0.1524
   79MOL   H43138027   6.653   7.839   0.503  0.4040 -0.9597 -1.5415
   79MOL   H43238028   6.923   7.511   0.579 -0.4177  0.4239 -1.8340
   79MOL   H43338029   6.957   7.596   0.804  1.2118  2.3700  1.0257
   79MOL   C43438030   6.963   7.550   0.281  0.0555  0.6714 -0.1916
   79MOL   C43538031   7.041   7.452   0.225  0.3702  0.5471 -0.3414
   79MOL   C43638032   6.997   7.319   0.221  0.6618 -0.2259  0.1802
   79MOL   C43738033   6.870   7.285   0.275  0.6147  0.1264  0.2656
   79MOL   C43838034   6.787   7.394   0.323  0.0079  0.1230 -0.0118
   79MOL   C43938035   6.836   7.523   0.331  0.3322  0.1440 -0.4596
   79MOL   S44038036   7.098   7.192   0.138  0.3347 -0.1822  0.0305
   79MOL   O44138037   7.101   7.077   0.227 -0.6646 -0.4058  0.6857
   79MOL   O44238038   7.222   7.257   0.102 -0.0030  0.1890 -0.4511
   79MOL   C44338039   7.018   7.146   8.413 -0.3926 -0.6881  0.3154
   79MOL   C44438040   6.992   7.238   8.307  0.5158 -0.6021 -0.2652
   79MOL   C44538041   6.927   7.197   8.188  0.2844 -0.0563  0.6419
   79MOL   C44638042   6.900   7.057   8.174  0.7316  0.3396  0.3653
   79MOL   C44738043   6.944   6.962   8.273 -0.0211  0.7342 -0.3659
   79MOL   C44838044   6.986   7.006   8.400 -0.5088  0.0467  0.1704
   79MOL   O44938045   6.855   7.004   8.059  0.1738  0.0871  0.6193
   79MOL   H45038046   6.993   7.654   0.276 -0.7431  1.0142  1.4440
   79MOL   H45138047   7.135   7.474   0.176  0.1374 -0.4475 -1.2453
   79MOL   H45238048   6.833   7.184   0.284  0.7615 -0.0163 -0.6455
   79MOL   H45338049   6.687   7.374   0.359 -0.4088  0.5891 -0.8825
   79MOL   H45438050   7.015   7.342   8.323 -0.2964 -0.4987  0.2584
   79MOL   H45538051   6.890   7.260   8.109 -0.8552  0.3651  1.4783
   79MOL   H45638052   6.923   6.857   8.260 -1.2437  1.0940 -1.5096
   79MOL   H45738053   7.002   6.940   0.059 -0.3895  0.2359  0.2977
   79MOL   C45838054   6.642   6.925   8.100  0.6082  0.0638  0.2350
   79MOL   C45938055   6.505   6.943   8.077  0.7891  0.3941  0.4560
   79MOL   C46038056   6.455   7.040   7.985 -0.6038 -0.7687  0.3469
   79MOL   C46138057   6.545   7.125   7.923  0.5950 -0.1009 -0.4703
   79MOL   C46238058   6.683   7.121   7.957 -0.2164 -0.1227  0.2003
   79MOL   C46338059   6.725   7.020   8.041 -0.0367  0.8422 -0.6641
   79MOL   S46438060   6.280   7.061   7.958  0.3806 -0.2625 -0.0316
   79MOL   O46538061   6.219   7.044   8.094 -0.3896 -0.0890  0.1964
   79MOL   O46638062   6.242   6.969   7.847  0.5908  0.0199  0.1195
   79MOL   C46738063   6.257   7.230   7.914  1.5372 -0.1605 -0.1105
   79MOL   C46838064   6.159   7.269   7.820 -0.0426 -0.3120 -0.6636
   79MOL   C46938065   6.136   7.402   7.781  0.1115 -0.2322 -0.0405
   79MOL   C47038066   6.228   7.504   7.833 -0.7420  0.4598  0.5285
   79MOL   C47138067   6.325   7.469   7.931 -0.1609 -0.3824 -0.6216
   79MOL   C47238068   6.335   7.336   7.973  0.6473 -0.2082 -0.1578
   79MOL   O47338069   6.226   7.626   7.785  0.0999 -0.3727  0.0408
   79MOL   H47438070   6.678   6.836   8.150  0.4435  0.7789  1.6290
   79MOL   H47538071   6.435   6.873   8.120 -0.0278  0.5652 -0.5688
   79MOL   H47638072   6.519   7.207   7.857 -2.6313  0.1338  1.0098
   79MOL   H47738073   6.755   7.188   7.911 -0.7556 -1.5382 -2.7431
   79MOL   H47838074   6.097   7.190   7.781 -0.4379 -0.5650  0.4717
   79MOL   H47938075   6.075   7.434   7.699  0.5763 -3.1551 -1.5818
   79MOL   H48038076   6.389   7.548   7.969  0.9652 -1.5829  0.0459
   79MOL   H48138077   6.398   7.301   8.053 -0.4355 -0.7313  0.4833
   79MOL   H48238078   6.141   7.648   7.749 -0.6323 -3.0617  0.0834
   80MOL     C138079   2.590   2.664   7.611 -0.8802  0.1102  0.4045
   80MOL     C238080   2.719   2.723   7.611 -0.1915 -0.0533  0.4382
   80MOL     C338081   2.744   2.835   7.528 -0.4134  0.1381  0.5292
   80MOL     C438082   2.640   2.892   7.449  0.2217 -0.4150  0.3392
   80MOL     C538083   2.514   2.835   7.459  0.4379 -0.4054 -0.6007
   80MOL     C638084   2.488   2.720   7.536 -0.0456 -0.3083 -0.3309
   80MOL     S738085   2.911   2.899   7.515 -0.0971  0.2127 -0.5206
   80MOL     O838086   2.917   2.993   7.405 -0.4266 -0.0955  0.0494
   80MOL     O938087   3.006   2.782   7.520 -0.0583  0.2202  0.2152
   80MOL    C1038088   2.942   2.988   7.669 -0.6186  0.5076  0.0030
   80MOL    C1138089   2.856   3.092   7.711  0.1366  0.5542  0.4612
   80MOL    C1238090   2.894   3.166   7.819  0.1818 -0.2040 -0.0953
   80MOL    C1338091   3.010   3.130   7.900 -0.0018  0.2159  0.0983
   80MOL    C1438092   3.094   3.027   7.860  0.2673 -1.2440 -0.3492
   80MOL    C1538093   3.050   2.950   7.750 -0.4196 -0.0960 -0.0609
   80MOL    O1638094   3.037   3.197   8.012 -0.2143 -0.9163 -0.5383
   80MOL    H1738095   2.567   2.568   7.654 -4.2150  0.5538 -0.2639
   80MOL    H1838096   2.801   2.670   7.658  1.8386  1.2912 -1.4678
   80MOL    H1938097   2.647   2.977   7.382 -1.0966  0.5673  1.4316
   80MOL    H2038098   2.427   2.874   7.408 -0.2131 -1.1868 -0.1154
   80MOL    H2138099   2.770   3.124   7.654 -0.8866 -1.3072  0.9268
   80MOL    H2238100   2.837   3.254   7.846  0.0053 -0.3702  0.0787
   80MOL    H2338101   3.169   2.991   7.929 -0.2424  0.4420  1.1314
   80MOL    H2438102   3.103   2.863   7.715  0.3473 -0.2491  1.4436
   80MOL    H2538103   2.395   2.667   7.542  0.5257 -1.4965 -1.6404
   80MOL    C2638104   3.044   3.422   8.085  0.0353  0.9228 -0.7318
   80MOL    C2738105   3.088   3.556   8.066  0.3987  0.4451 -0.5133
   80MOL    C2838106   3.183   3.586   7.968 -0.2738  0.8838  0.1719
   80MOL    C2938107   3.227   3.491   7.881 -0.4160 -0.4606 -0.0297
   80MOL    C3038108   3.178   3.357   7.892  1.1620  0.7766  0.1010
   80MOL    C3138109   3.080   3.326   7.991 -0.8146  0.3607 -0.2012
   80MOL    S3238110   3.250   3.752   7.946  0.3351  0.0204  0.1573
   80MOL    O3338111   3.140   3.841   7.988 -0.4066 -0.4131 -0.5070
   80MOL    O3438112   3.301   3.767   7.805 -0.7197 -0.5317 -0.6637
   80MOL    C3538113   3.385   3.779   8.067 -0.4247 -0.7119 -0.0387
   80MOL    C3638114   3.403   3.904   8.120  0.6355 -0.8897  0.1712
   80MOL    C3738115   3.505   3.926   8.215  0.2899  0.2558 -0.1330
   80MOL    C3838116   3.600   3.822   8.243 -0.5418 -0.5166  0.2096
   80MOL    C3938117   3.593   3.700   8.178 -0.7667 -0.8009  0.2210
   80MOL    C4038118   3.486   3.677   8.086 -0.1581  0.0233  0.8663
   80MOL    O4138119   3.705   3.838   8.328 -0.0902  0.0990 -0.3132
   80MOL    H4238120   2.980   3.402   8.170  2.3416 -1.9613  0.3807
   80MOL    H4338121   3.058   3.637   8.132 -1.9132 -0.0763 -0.8761
   80MOL    H4438122   3.304   3.517   7.810  1.2544  0.9739  2.2436
   80MOL    H4538123   3.221   3.280   7.829 -1.7790 -1.6659  0.9347
   80MOL    H4638124   3.327   3.976   8.096  0.3790 -0.2964  2.6619
   80MOL    H4738125   3.513   4.023   8.263  0.8180  0.8811 -1.4584
   80MOL    H4838126   3.662   3.619   8.197 -0.8872 -0.9675 -0.0493
   80MOL    H4938127   3.470   3.580   8.042 -0.7844 -0.0539  1.2528
   80MOL    C5038128   3.833   4.030   8.269  0.2425  0.2455 -0.0179
   80MOL    C5138129   3.959   4.087   8.239 -0.1317  0.1675 -0.2604
   80MOL    C5238130   4.065   4.003   8.198 -0.2390 -0.1146 -0.3104
   80MOL    C5338131   4.056   3.863   8.216  0.0384 -0.5729  0.5036
   80MOL    C5438132   3.930   3.812   8.247 -0.3020  0.1279 -0.2080
   80MOL    C5538133   3.819   3.893   8.281  0.2642 -0.1603  0.5669
   80MOL    S5638134   4.218   4.089   8.158 -0.0218 -0.3794  0.2088
   80MOL    O5738135   4.316   3.999   8.092 -1.4013 -0.4041 -0.7246
   80MOL    O5838136   4.269   4.152   8.280  0.0812  0.7502 -0.2073
   80MOL    C5938137   4.183   4.214   8.037  0.3125 -0.3567  0.5273
   80MOL    C6038138   4.123   4.186   7.911  0.1755  0.4976  0.2666
   80MOL    C6138139   4.109   4.289   7.815  0.7881  0.6327 -1.1983
   80MOL    C6238140   4.145   4.423   7.852 -0.8565  0.3677 -0.5327
   80MOL    C6338141   4.200   4.455   7.981  0.4520  0.3596  0.3935
   80MOL    C6438142   4.220   4.347   8.069 -0.4315 -0.3499  0.2248
   80MOL    O6538143   4.124   4.525   7.763  0.3427 -0.1503  0.5335
   80MOL    H6638144   3.750   4.094   8.295  1.1842  1.2359  0.6349
   80MOL    H6738145   3.988   4.191   8.246  1.4896 -0.3448  0.9679
   80MOL    H6838146   4.135   3.792   8.198 -0.6860 -0.8916 -1.5297
   80MOL    H6938147   3.928   3.704   8.248 -0.2819  0.1250  1.6131
   80MOL    H7038148   4.085   4.085   7.901 -0.4000  0.8417 -1.0816
   80MOL    H7138149   4.058   4.267   7.723 -0.5089 -1.3573 -0.0561
   80MOL    H7238150   4.224   4.557   8.005  0.3286  0.4961 -0.0590
   80MOL    H7338151   4.245   4.379   8.169 -0.3995 -2.3410  0.8770
   80MOL    C7438152   4.339   4.551   7.668 -0.6477 -1.2767 -0.4557
   80MOL    C7538153   4.422   4.553   7.557 -0.2914 -0.0875 -0.1805
   80MOL    C7638154   4.368   4.511   7.432 -0.1512 -0.0162 -0.8946
   80MOL    C7738155   4.227   4.483   7.415 -0.3066 -0.0594 -0.6620
   80MOL    C7838156   4.143   4.491   7.528 -0.0114 -0.3750  0.2699
   80MOL    C7938157   4.203   4.518   7.653 -0.8844 -0.3575  0.0259
   80MOL    S8038158   4.472   4.491   7.292  0.3364 -0.2000  0.1827
   80MOL    O8138159   4.441   4.369   7.220 -0.9180 -1.1940 -0.4487
   80MOL    O8238160   4.615   4.520   7.332  0.2248 -0.2741  0.6188
   80MOL    C8338161   4.429   4.636   7.188  1.2192  0.4050  0.7490
   80MOL    C8438162   4.486   4.632   7.057 -1.2102 -0.1418 -0.4952
   80MOL    C8538163   4.466   4.745   6.977 -0.0139  0.5285  0.2361
   80MOL    C8638164   4.385   4.853   7.015 -0.0462 -0.0023 -0.2225
   80MOL    C8738165   4.340   4.859   7.147  0.0340  0.7247 -0.1360
   80MOL    C8838166   4.351   4.746   7.230  0.5305  0.3887  0.1996
   80MOL    O8938167   4.357   4.965   6.932 -0.0089 -0.0083  0.0682
   80MOL    H9038168   4.370   4.580   7.767 -0.9543  0.0573 -0.7343
   80MOL    H9138169   4.523   4.584   7.579  0.2692 -2.6741  1.0665
   80MOL    H9238170   4.183   4.456   7.320 -0.9951  0.9730 -0.6453
   80MOL    H9338171   4.036   4.477   7.516 -0.2568  1.8120 -0.2974
   80MOL    H9438172   4.550   4.549   7.031  1.4483  2.0663 -1.3206
   80MOL    H9538173   4.516   4.749   6.881  1.5120  1.9188  1.0612
   80MOL    H9638174   4.287   4.944   7.188  1.1228  0.0412  2.7919
   80MOL    H9738175   4.309   4.743   7.330 -0.1930  1.9928 -0.0426
   80MOL    C9838176   4.131   5.024   6.873 -0.5536  0.5686  0.3336
   80MOL    C9938177   4.018   5.019   6.791 -0.4115  0.2212 -0.0628
   80MOL   C10038178   4.024   4.926   6.685 -0.3414 -0.5341  0.0186
   80MOL   C10138179   4.137   4.845   6.661  0.8538  1.2378  0.6484
   80MOL   C10238180   4.248   4.864   6.741  0.0046  0.5919 -0.0476
   80MOL   C10338181   4.247   4.954   6.846  0.0058 -0.0146  0.0912
   80MOL   S10438182   3.873   4.898   6.588 -0.0887  0.0872 -0.0910
   80MOL   O10538183   3.760   4.936   6.676  0.2046 -0.4411 -0.0336
   80MOL   O10638184   3.883   4.760   6.530  0.3466  0.7278 -0.3643
   80MOL   C10738185   3.863   5.005   6.448 -0.4107  0.4054 -0.0680
   80MOL   C10838186   3.855   5.142   6.464  0.3032  0.7933 -0.1357
   80MOL   C10938187   3.836   5.218   6.343  0.2404  0.3488 -0.3063
   80MOL   C11038188   3.833   5.168   6.213 -0.4289  0.9473 -1.0661
   80MOL   C11138189   3.834   5.028   6.202  0.6501 -0.0593 -0.3050
   80MOL   C11238190   3.845   4.944   6.318 -0.4653 -0.7274  0.1000
   80MOL   O11338191   3.817   5.246   6.101 -0.3124  0.7282  0.3851
   80MOL   H11438192   4.134   5.088   6.960  2.1994  0.6977  0.1897
   80MOL   H11538193   3.926   5.068   6.818 -0.8443 -0.6602  0.1074
   80MOL   H11638194   4.136   4.774   6.580  0.2128  2.4207 -0.4008
   80MOL   H11738195   4.334   4.815   6.698 -1.0014 -0.1554 -1.2513
   80MOL   H11838196   3.846   5.180   6.565  3.6476  2.0570 -0.2701
   80MOL   H11938197   3.815   5.323   6.361 -2.9653 -0.2012 -0.6834
   80MOL   H12038198   3.824   4.975   6.108  0.8796 -0.5374 -0.0594
   80MOL   H12138199   3.842   4.837   6.309  1.3690 -0.7103 -1.0094
   80MOL   C12238200   3.896   5.458   6.034 -0.5779  0.4316  0.4384
   80MOL   C12338201   3.993   5.550   6.004 -0.0374  0.3633  0.7060
   80MOL   C12438202   4.127   5.505   6.014  0.2395  0.3136  0.1458
   80MOL   C12538203   4.156   5.374   6.053  0.4457 -1.1921 -0.1303
   80MOL   C12638204   4.059   5.284   6.076 -0.2153  0.5960  0.6568
   80MOL   C12738205   3.925   5.324   6.070 -0.1792 -0.3393 -0.2285
   80MOL   S12838206   4.259   5.619   5.977 -0.0063  0.1694  0.4011
   80MOL   O12938207   4.208   5.724   5.891  0.0567  0.5378 -0.0136
   80MOL   O13038208   4.376   5.539   5.935 -0.1135  0.4622 -0.1136
   80MOL   C13138209   4.296   5.691   6.134  0.1324  0.1774  0.3668
   80MOL   C13238210   4.340   5.819   6.147 -0.0348 -0.5848  0.6405
   80MOL   C13338211   4.372   5.879   6.270 -0.1649  0.2591 -0.4379
   80MOL   C13438212   4.374   5.804   6.387  0.2329 -0.0762  0.0542
   80MOL   C13538213   4.349   5.663   6.376 -0.4523 -0.7042  0.2842
   80MOL   C13638214   4.304   5.612   6.253 -0.1263 -0.1316 -0.0643
   80MOL   O13738215   4.421   5.856   6.508  0.2526 -0.4989  0.0620
   80MOL   H13838216   3.793   5.484   6.014 -0.7438 -0.4136  0.2031
   80MOL   H13938217   3.976   5.652   5.974 -0.1015  0.0094 -0.5323
   80MOL   H14038218   4.257   5.337   6.064 -0.2065 -2.5918  1.4961
   80MOL   H14138219   4.092   5.186   6.106 -1.0566  0.5729  1.5329
   80MOL   H14238220   4.342   5.877   6.055  1.6794  0.3805  1.2679
   80MOL   H14338221   4.391   5.985   6.279  1.2475 -0.0955  1.0153
   80MOL   H14438222   4.359   5.606   6.467  2.0029 -0.7911  0.0104
   80MOL   H14538223   4.274   5.509   6.243 -2.5876  0.6603 -1.1789
   80MOL   C14638224   4.216   5.840   6.642 -0.2027  0.2910  0.5178
   80MOL   C14738225   4.154   5.818   6.769 -0.0886  0.7028 -0.1446
   80MOL   C14838226   4.231   5.775   6.877 -0.1240 -0.1653 -0.3505
   80MOL   C14938227   4.368   5.751   6.861 -0.4210  0.0406 -0.2522
   80MOL   C15038228   4.422   5.772   6.735 -0.2940 -0.8623  0.3425
   80MOL   C15138229   4.351   5.817   6.623 -0.0866 -0.2309 -0.0305
   80MOL   S15238230   4.142   5.766   7.038  0.0631 -0.1890  0.2806
   80MOL   O15338231   4.058   5.886   7.054  0.7746 -0.4827  0.4257
   80MOL   O15438232   4.229   5.724   7.147  0.4029 -0.3959  0.2305
   80MOL   C15538233   4.033   5.633   6.996  0.0539 -0.4083  0.1142
   80MOL   C15638234   3.894   5.654   6.977 -0.3906 -0.6358 -0.0949
   80MOL   C15738235   3.819   5.542   6.935  0.2286  0.1778  0.2467
   80MOL   C15838236   3.874   5.414   6.937  0.1254 -0.0933  0.9600
   80MOL   C15938237   4.010   5.396   6.973 -0.3302  0.4659  0.3792
   80MOL   C16038238   4.091   5.505   6.996  0.3575 -0.5618  0.1441
   80MOL   O16138239   3.809   5.300   6.908 -0.4077 -0.4035  0.2335
   80MOL   H16238240   4.150   5.875   6.564  1.7401  2.5401 -0.1572
   80MOL   H16338241   4.049   5.838   6.782 -0.1353 -0.0064  0.6827
   80MOL   H16438242   4.438   5.738   6.942 -1.7066 -0.0362  0.8521
   80MOL   H16538243   4.530   5.768   6.733 -0.2432 -0.0452  0.9783
   80MOL   H16638244   3.858   5.755   6.960  2.7418  0.8104  1.5904
   80MOL   H16738245   3.715   5.560   6.914  0.5175  0.2444 -1.1347
   80MOL   H16838246   4.055   5.298   6.983 -0.7138  0.3007  0.4868
   80MOL   H16938247   4.194   5.480   7.017  0.9436  1.5312 -0.1518
   80MOL   C17038248   3.714   5.290   7.140 -0.0260  0.2938 -0.5707
   80MOL   C17138249   3.649   5.214   7.233  0.0719  0.2162  1.5670
   80MOL   C17238250   3.603   5.087   7.192  0.0999 -0.6620 -0.6404
   80MOL   C17338251   3.608   5.042   7.058 -0.1237 -0.4666 -0.0581
   80MOL   C17438252   3.685   5.115   6.968  0.0922  0.9553  0.0290
   80MOL   C17538253   3.736   5.242   7.007 -0.4446  0.4420  0.2199
   80MOL   S17638254   3.525   4.977   7.315  0.2819 -0.0973  0.3395
   80MOL   O17738255   3.621   4.869   7.337 -0.3843  0.5076  0.2211
   80MOL   O17838256   3.390   4.954   7.254 -0.3864  0.2053  0.0632
   80MOL   C17938257   3.502   5.065   7.471 -0.2668  0.0285  0.3482
   80MOL   C18038258   3.571   5.035   7.587  0.3364  0.1727 -0.8520
   80MOL   C18138259   3.536   5.098   7.709  0.0399  0.2731 -0.5180
   80MOL   C18238260   3.437   5.201   7.713  1.1207  0.3331 -0.5684
   80MOL   C18338261   3.368   5.225   7.597  0.1526  0.7598 -0.4258
   80MOL   C18438262   3.393   5.159   7.476  0.2311 -0.2016 -0.3868
   80MOL   O18538263   3.391   5.265   7.831 -0.1083 -0.6035  0.2563
   80MOL   H18638264   3.736   5.392   7.168 -0.4788  0.1898  0.1655
   80MOL   H18738265   3.635   5.250   7.334  0.1468  3.0021  0.6070
   80MOL   H18838266   3.558   4.949   7.036 -1.0365 -0.0240  0.1271
   80MOL   H18938267   3.706   5.068   6.873 -0.4301  0.3672  0.2043
   80MOL   H19038268   3.648   4.960   7.598  0.1199  0.2599  1.5388
   80MOL   H19138269   3.596   5.087   7.798  1.4730 -1.5879 -1.6808
   80MOL   H19238270   3.282   5.289   7.606 -1.7292 -1.3992 -2.3491
   80MOL   H19338271   3.333   5.181   7.389 -1.2375  2.2797  1.1865
   80MOL   C19438272   3.547   5.331   7.997 -0.1378 -0.5783  0.4425
   80MOL   C19538273   3.606   5.312   8.123  0.6091 -0.6989 -0.1414
   80MOL   C19638274   3.570   5.200   8.199  0.1197 -0.0040  0.0704
   80MOL   C19738275   3.471   5.112   8.154  0.2573 -0.1627  0.1938
   80MOL   C19838276   3.414   5.125   8.027 -0.0416 -0.5369  0.0721
   80MOL   C19938277   3.447   5.241   7.952 -0.3683  0.7727  0.0984
   80MOL   S20038278   3.637   5.193   8.368  0.3625 -0.1191  0.0574
   80MOL   O20138279   3.760   5.272   8.375 -0.3465  0.2711 -0.0894
   80MOL   O20238280   3.646   5.056   8.424  0.1314  0.5284 -0.5466
   80MOL   C20338281   3.522   5.273   0.037 -0.0204 -0.2253  0.2826
   80MOL   C20438282   3.518   5.416   0.040 -0.0250  0.8606  0.5508
   80MOL   C20538283   3.430   5.476   0.132  0.3593  0.1120 -0.1973
   80MOL   C20638284   3.317   5.407   0.192  0.5074  0.1541 -0.3160
   80MOL   C20738285   3.316   5.264   0.170 -0.0500  0.2325  0.6081
   80MOL   C20838286   3.418   5.200   0.099 -0.3268  0.2479  0.2091
   80MOL   O20938287   3.240   5.466   0.285  0.3467  0.2324  0.0086
   80MOL   H21038288   3.580   5.420   7.946 -1.4716  0.2589  1.0097
   80MOL   H21138289   3.685   5.380   8.148  1.6464 -0.4989 -3.6487
   80MOL   H21238290   3.432   5.029   8.212  0.9788 -0.6782 -0.0454
   80MOL   H21338291   3.339   5.054   7.998 -1.4432  1.8639 -2.3825
   80MOL   H21438292   3.594   5.469   8.410  2.5541  0.3908  3.5104
   80MOL   H21538293   3.422   5.584   0.134  1.4041  0.1672  2.0811
   80MOL   H21638294   3.242   5.205   0.222  0.7679 -0.4688  0.9887
   80MOL   H21738295   3.413   5.092   0.102 -0.4183  0.1500 -2.5849
   80MOL   C21838296   3.371   5.607   0.431  0.4123  0.0948 -0.2127
   80MOL   C21938297   3.428   5.616   0.559 -0.2595 -0.2237  0.7407
   80MOL   C22038298   3.425   5.511   0.651 -0.1726  0.2532 -0.7913
   80MOL   C22138299   3.357   5.392   0.622 -0.6248  0.2685 -0.3266
   80MOL   C22238300   3.296   5.380   0.498  1.2533  0.9472 -0.1472
   80MOL   C22338301   3.298   5.487   0.410  0.5465 -0.3834 -0.6405
   80MOL   S22438302   3.513   5.531   0.803  0.0540  0.2249  0.0703
   80MOL   O22538303   3.460   5.440   0.908 -0.3831 -0.0984  0.0764
   80MOL   O22638304   3.514   5.676   0.829  0.0931  0.3341 -0.1321
   80MOL   C22738305   3.683   5.480   0.766 -0.3877  0.3561 -0.3697
   80MOL   C22838306   3.733   5.349   0.779 -0.9895 -0.4797  0.6071
   80MOL   C22938307   3.859   5.310   0.728 -0.6632 -0.1215 -0.2190
   80MOL   C23038308   3.938   5.411   0.671  0.4928  0.1281 -0.1493
   80MOL   C23138309   3.897   5.543   0.660 -0.0187 -0.2144  0.5718
   80MOL   C23238310   3.767   5.572   0.702 -0.8994 -0.3037 -0.4905
   80MOL   O23338311   4.071   5.376   0.648 -0.6084  0.5682  0.3514
   80MOL   H23438312   3.385   5.684   0.356  1.0229  0.3569  0.1682
   80MOL   H23538313   3.485   5.705   0.582 -1.1206  0.4025  0.4901
   80MOL   H23638314   3.368   5.313   0.695 -3.6607  1.0342  1.0188
   80MOL   H23738315   3.246   5.291   0.465 -1.8938  3.6263 -3.0032
   80MOL   H23838316   3.674   5.280   0.837 -0.9929  0.3849  1.6572
   80MOL   H23938317   3.891   5.208   0.733 -0.7004 -0.1129  0.2107
   80MOL   H24038318   3.970   5.608   0.614  0.0431  0.4433  1.6041
   80MOL   H24138319   3.732   5.672   0.681  2.9515  1.3782  0.7895
   80MOL   C24238320   4.287   5.482   0.651 -0.1475  0.6680  0.6093
   80MOL   C24338321   4.389   5.565   0.707  0.0919 -0.1480 -1.7093
   80MOL   C24438322   4.380   5.596   0.846 -0.1705  0.8856  0.8813
   80MOL   C24538323   4.266   5.554   0.918 -0.4450  0.5981 -0.0568
   80MOL   C24638324   4.166   5.480   0.852  1.1384  0.2520 -0.0442
   80MOL   C24738325   4.171   5.447   0.715 -0.4859 -1.0029  0.0286
   80MOL   S24838326   4.503   5.705   0.918  0.3675 -0.3814 -0.3588
   80MOL   O24938327   4.510   5.818   0.825 -0.1760  0.4793 -0.0484
   80MOL   O25038328   4.619   5.626   0.943 -0.0203 -0.1689 -0.6734
   80MOL   C25138329   4.452   5.775   1.073  0.3794 -0.8264 -0.1980
   80MOL   C25238330   4.452   5.691   1.188 -0.0873  0.3355 -0.8278
   80MOL   C25338331   4.431   5.748   1.317 -0.3976  0.4553  0.1238
   80MOL   C25438332   4.413   5.891   1.334 -0.5224 -0.0659 -0.2329
   80MOL   C25538333   4.410   5.972   1.219 -0.0488  0.2004  0.0275
   80MOL   C25638334   4.425   5.914   1.088  0.3964 -0.4921 -0.3060
   80MOL   O25738335   4.398   5.953   1.457 -0.0132  0.0701  0.2900
   80MOL   H25838336   4.305   5.450   0.549 -0.4264  0.7837  0.5252
   80MOL   H25938337   4.471   5.602   0.647  0.8978  3.7642  1.5953
   80MOL   H26038338   4.255   5.589   1.020  1.7933  0.4316  0.2619
   80MOL   H26138339   4.079   5.449   0.909  0.3522  1.4463 -0.5790
   80MOL   H26238340   4.468   5.585   1.179  0.5163  0.5336 -2.3402
   80MOL   H26338341   4.426   5.677   1.399 -2.0579 -0.2827 -0.6103
   80MOL   H26438342   4.399   6.079   1.229  2.4395  0.5199 -0.3977
   80MOL   H26538343   4.418   5.985   1.006  1.1678  0.1353  0.1712
   80MOL   C26638344   4.199   5.890   1.579 -0.1750 -0.6120 -0.6644
   80MOL   C26738345   4.080   5.926   1.637  0.7695 -0.3750 -0.2675
   80MOL   C26838346   4.019   6.051   1.614 -0.4904 -0.2447 -0.1799
   80MOL   C26938347   4.079   6.143   1.520  0.3592 -0.5432 -0.6788
   80MOL   C27038348   4.207   6.113   1.469  0.1629  0.4317 -0.6795
   80MOL   C27138349   4.266   5.987   1.495  0.0039 -0.3206 -0.0232
   80MOL   S27238350   3.862   6.099   1.688 -0.0373 -0.0508 -0.0544
   80MOL   O27338351   3.766   5.985   1.666 -0.1888 -0.4909 -0.4574
   80MOL   O27438352   3.823   6.228   1.625  0.0881 -0.3095  0.0260
   80MOL   C27538353   3.891   6.108   1.864 -0.5994  0.5234 -0.0538
   80MOL   C27638354   3.958   6.216   1.919  0.7491  0.5293 -0.1100
   80MOL   C27738355   3.986   6.220   2.055  0.3753  0.1135 -0.4667
   80MOL   C27838356   3.923   6.124   2.136  0.4241  0.1669 -0.2237
   80MOL   C27938357   3.844   6.017   2.086  0.0032 -0.0743 -0.0069
   80MOL   C28038358   3.833   6.010   1.948 -0.2702  0.1537  0.1385
   80MOL   O28138359   3.946   6.146   2.270 -0.4261 -0.6415 -0.4644
   80MOL   H28238360   4.242   5.792   1.597 -0.7061 -1.2296 -2.6418
   80MOL   H28338361   4.031   5.862   1.709 -2.8055  2.3681 -0.1008
   80MOL   H28438362   4.040   6.242   1.503  0.9169 -0.5038 -1.8004
   80MOL   H28538363   4.254   6.186   1.404 -1.3764  1.1427 -1.0323
   80MOL   H28638364   3.994   6.297   1.857  2.1261  0.3268  0.4218
   80MOL   H28738365   4.029   6.309   2.099  1.0293  0.1285 -1.1211
   80MOL   H28838366   3.805   5.939   2.149 -1.0890  0.5651  0.1234
   80MOL   H28938367   3.787   5.922   1.906 -0.9857  0.6576 -0.1433
   80MOL   C29038368   3.867   5.965   2.417  0.7433 -0.2753 -0.1063
   80MOL   C29138369   3.769   5.921   2.518  0.6913 -0.4849  0.2742
   80MOL   C29238370   3.672   6.010   2.563 -0.1279 -0.3693  0.9326
   80MOL   C29338371   3.655   6.135   2.505  0.4482 -0.3498  0.1685
   80MOL   C29438372   3.756   6.184   2.416 -0.1695  0.5994 -0.0558
   80MOL   C29538373   3.859   6.096   2.366 -0.4736 -0.3427 -0.0642
   80MOL   S29638374   3.541   5.948   2.668 -0.0014 -0.0576  0.0860
   80MOL   O29738375   3.598   5.841   2.750  0.0328 -0.2822 -0.0548
   80MOL   O29838376   3.426   5.915   2.587  0.4614 -0.3557 -0.4020
   80MOL   C29938377   3.485   6.074   2.781  0.3438 -0.1610  0.2520
   80MOL   C30038378   3.348   6.096   2.807 -0.6469  0.3789  0.8149
   80MOL   C30138379   3.299   6.205   2.884  0.1471  0.0849  0.0238
   80MOL   C30238380   3.390   6.285   2.952 -0.5103 -0.7013  0.2122
   80MOL   C30338381   3.530   6.261   2.931  0.7179 -0.0923 -0.0303
   80MOL   C30438382   3.576   6.166   2.842 -0.7058  0.0710 -0.5088
   80MOL   O30538383   3.339   6.369   3.052 -0.6435  0.4242  0.5817
   80MOL   H30638384   3.939   5.897   2.374 -0.3539 -0.7770 -1.1679
   80MOL   H30738385   3.784   5.821   2.558 -4.1070 -0.7183  1.7875
   80MOL   H30838386   3.579   6.206   2.534 -1.2306 -2.0580 -0.0048
   80MOL   H30938387   3.748   6.286   2.382 -1.0031  1.6502  3.1468
   80MOL   H31038388   3.273   6.023   2.780 -1.1084  1.7534 -1.7749
   80MOL   H31138389   3.194   6.215   2.905 -0.4611  2.9926 -3.7175
   80MOL   H31238390   3.598   6.318   2.993  1.4192 -2.7151  1.7062
   80MOL   H31338391   3.679   6.159   2.811 -0.4022 -1.5640  0.7899
   80MOL   C31438392   3.493   6.572   3.059 -0.3606 -0.1299  0.2360
   80MOL   C31538393   3.519   6.699   3.012 -0.2696 -0.6369  0.6619
   80MOL   C31638394   3.431   6.755   2.917  0.7312  0.0035  0.6308
   80MOL   C31738395   3.305   6.699   2.892 -0.7118  0.7548 -0.1696
   80MOL   C31838396   3.278   6.563   2.925  0.5447  0.3159 -0.5156
   80MOL   C31938397   3.367   6.504   3.022 -0.5755  0.9573  0.4149
   80MOL   S32038398   3.475   6.913   2.843 -0.0397 -0.4505  0.2729
   80MOL   O32138399   3.525   6.998   2.949  0.1142  0.0872 -0.0172
   80MOL   O32238400   3.359   6.964   2.768  0.9250  1.2844 -0.8254
   80MOL   C32338401   3.605   6.890   2.731  0.3467 -0.0340  0.1946
   80MOL   C32438402   3.720   6.958   2.748  0.6107 -0.8186 -0.4550
   80MOL   C32538403   3.832   6.930   2.668 -0.1488  0.4527  1.1501
   80MOL   C32638404   3.821   6.822   2.574 -0.7632 -0.6956  0.2863
   80MOL   C32738405   3.703   6.749   2.552 -0.5531  0.6579 -0.5727
   80MOL   C32838406   3.596   6.788   2.636  0.6869  0.0030 -0.3178
   80MOL   O32938407   3.934   6.794   2.498 -0.0261  0.4089 -0.0497
   80MOL   H33038408   3.547   6.519   3.136  0.6576  1.2062  0.4508
   80MOL   H33138409   3.611   6.751   3.036  0.0716 -0.4227 -1.0244
   80MOL   H33238410   3.238   6.754   2.828 -0.9748  1.3876  0.6546
   80MOL   H33338411   3.200   6.496   2.892  0.2734 -0.4543  1.5659
   80MOL   H33438412   3.716   7.043   2.815 -0.6019 -0.5154 -0.9049
   80MOL   H33538413   3.923   6.987   2.682  1.2156 -0.8421 -1.9416
   80MOL   H33638414   3.686   6.668   2.483 -0.3850  0.7884 -0.7685
   80MOL   H33738415   3.501   6.738   2.635 -0.7619  2.6040  0.9917
   80MOL   C33838416   3.849   6.853   2.269  0.5409  0.0173 -0.8564
   80MOL   C33938417   3.862   6.931   2.153 -0.0121  0.2280  0.4423
   80MOL   C34038418   3.974   7.018   2.143 -0.1507 -0.6401 -1.1734
   80MOL   C34138419   4.064   7.033   2.250  0.1689  0.3215  0.1703
   80MOL   C34238420   4.055   6.955   2.364 -0.0487 -0.2172  0.5443
   80MOL   C34338421   3.944   6.869   2.378  0.4399 -0.3524  0.0700
   80MOL   S34438422   4.011   7.106   1.990  0.2625 -0.1197 -0.0976
   80MOL   O34538423   4.073   7.235   2.018 -0.0621  0.3170  0.0220
   80MOL   O34638424   3.886   7.109   1.916  0.0707 -0.2376  0.0475
   80MOL   C34738425   4.133   7.012   1.899  0.0126 -0.9628  0.6267
   80MOL   C34838426   4.146   6.879   1.932  0.1299  0.0178 -0.5129
   80MOL   C34938427   4.230   6.794   1.861 -0.2949  0.1434 -0.1836
   80MOL   C35038428   4.322   6.858   1.773  0.3734 -0.9070 -0.2330
   80MOL   C35138429   4.321   6.997   1.747 -0.3470  0.2827  0.4194
   80MOL   C35238430   4.221   7.076   1.813 -0.0864 -0.0264 -0.0107
   80MOL   O35338431   4.412   6.778   1.704 -0.2694 -0.2824 -0.2458
   80MOL   H35438432   3.759   6.794   2.269 -0.1730  1.0937  0.1821
   80MOL   H35538433   3.782   6.918   2.082  0.6755  0.2024 -0.3218
   80MOL   H35638434   4.150   7.098   2.239  0.5010 -0.0540  0.5358
   80MOL   H35738435   4.130   6.955   2.442  0.2077 -1.7961  0.3227
   80MOL   H35838436   4.075   6.828   1.994  1.9974 -1.9992  0.0502
   80MOL   H35938437   4.228   6.689   1.887 -0.6135  0.3950  0.8156
   80MOL   H36038438   4.393   7.050   1.687 -0.6024 -1.4888 -1.5024
   80MOL   H36138439   4.226   7.183   1.798 -0.3566 -0.2164 -1.5095
   80MOL   C36238440   4.457   6.758   1.476 -0.3930  0.1669  0.6306
   80MOL   C36338441   4.442   6.682   1.356 -0.1942 -1.5877  0.0495
   80MOL   C36438442   4.356   6.576   1.349 -0.2658  0.3072 -0.3311
   80MOL   C36538443   4.280   6.539   1.461 -0.2559 -0.6348 -0.0524
   80MOL   C36638444   4.286   6.617   1.583 -0.5117  0.8605  0.6019
   80MOL   C36738445   4.380   6.722   1.585  0.4294 -0.0476  0.1638
   80MOL   S36838446   4.351   6.488   1.197  0.2273  0.4013 -0.4018
   80MOL   O36938447   4.204   6.460   1.179  0.1596  0.4918  0.2370
   80MOL   O37038448   4.446   6.373   1.215 -0.2679 -0.0405  0.0853
   80MOL   C37138449   4.415   6.597   1.072 -0.1872 -0.1038  0.4895
   80MOL   C37238450   4.340   6.712   1.040  0.5806  0.5145 -0.0229
   80MOL   C37338451   4.394   6.797   0.947 -0.7050 -0.1123 -0.1688
   80MOL   C37438452   4.524   6.782   0.895 -0.1364  0.7346  0.4421
   80MOL   C37538453   4.599   6.669   0.934 -0.1329  0.8842  0.0948
   80MOL   C37638454   4.545   6.579   1.026  0.4422 -0.1005 -0.1588
   80MOL   O37738455   4.569   6.871   0.798 -0.6129 -0.7449 -0.1628
   80MOL   H37838456   4.529   6.838   1.481  0.7319 -0.9476  3.9407
   80MOL   H37938457   4.505   6.707   1.272  0.8394 -0.4208  1.1387
   80MOL   H38038458   4.221   6.449   1.456 -0.0287 -0.7861 -0.0239
   80MOL   H38138459   4.248   6.575   1.675  0.8004 -0.9772  0.3265
   80MOL   H38238460   4.254   6.743   1.098  0.1220  0.4987 -0.6808
   80MOL   H38338461   4.331   6.875   0.907 -1.0073  1.3066  2.9616
   80MOL   H38438462   4.693   6.652   0.885 -1.0347  3.4143 -2.6287
   80MOL   H38538463   4.585   6.484   1.056 -0.4555 -0.5990 -0.5176
   80MOL   C38638464   4.755   6.861   0.653 -0.5811  0.5339 -0.9883
   80MOL   C38738465   4.805   6.834   0.523  0.4093 -0.2789 -0.4889
   80MOL   C38838466   4.728   6.768   0.426 -0.2977  0.1609 -0.3211
   80MOL   C38938467   4.596   6.722   0.462  0.5674 -0.5790  0.4317
   80MOL   C39038468   4.539   6.760   0.584  0.2920  0.0665  0.4078
   80MOL   C39138469   4.619   6.826   0.679  0.6064  0.1680 -0.0101
   80MOL   S39238470   4.800   6.753   0.266 -0.4241  0.8762 -0.1266
   80MOL   O39338471   4.702   6.687   0.180 -0.3517 -0.6793  0.5298
   80MOL   O39438472   4.928   6.684   0.288 -0.2223 -0.2375 -0.1725
   80MOL   C39538473   4.831   6.924   0.215 -0.1235 -0.8093 -0.2506
   80MOL   C39638474   4.725   7.018   0.224 -0.2128 -0.1171  0.6648
   80MOL   C39738475   4.752   7.151   0.185  0.3472  0.2582  0.1180
   80MOL   C39838476   4.881   7.189   0.135 -0.3583 -0.3806  0.0342
   80MOL   C39938477   4.978   7.092   0.115 -0.7159  0.8107 -0.0566
   80MOL   C40038478   4.958   6.957   0.158 -0.2427 -0.5313  0.6199
   80MOL   O40138479   4.917   7.314   0.090 -0.6797  0.4600 -0.2333
   80MOL   H40238480   4.802   6.904   0.741 -0.0361 -2.1703  0.1006
   80MOL   H40338481   4.909   6.860   0.511 -0.0027  2.4043  1.3150
   80MOL   H40438482   4.551   6.667   0.381  2.0359  2.1050 -2.3325
   80MOL   H40538483   4.438   6.730   0.609 -0.4662 -1.5596 -4.1346
   80MOL   H40638484   4.631   6.987   0.266 -0.2626 -0.3878  0.3593
   80MOL   H40738485   4.673   7.224   0.186  0.2188  0.1089  1.7562
   80MOL   H40838486   5.072   7.120   0.071 -0.1403 -0.7287  0.1638
   80MOL   H40938487   5.040   6.887   0.159  0.3780  0.1873  0.9489
   80MOL   C41038488   4.827   7.481   0.241 -0.0944 -0.0656  0.1267
   80MOL   C41138489   4.752   7.592   0.272 -0.2256 -0.4283  0.4090
   80MOL   C41238490   4.674   7.646   0.166  0.9818 -0.2417  0.2606
   80MOL   C41338491   4.681   7.598   0.030 -0.7348 -0.1555  0.4976
   80MOL   C41438492   4.756   7.474   0.013 -0.1647  0.3791  0.1505
   80MOL   C41538493   4.832   7.417   0.117  0.0678  0.0891 -0.5146
   80MOL   S41638494   4.556   7.784   0.209 -0.2148  0.6443 -0.3593
   80MOL   O41738495   4.581   7.891   0.114  0.0649  0.0873 -0.0959
   80MOL   O41838496   4.561   7.802   0.352  0.5693  0.5780 -0.1841
   80MOL   C41938497   4.388   7.727   0.172  0.7450 -0.2425 -0.3678
   80MOL   C42038498   4.355   7.601   0.111 -0.1633  0.0445  0.6603
   80MOL   C42138499   4.223   7.560   0.106  0.2358  0.0966 -0.3765
   80MOL   C42238500   4.119   7.644   0.147 -0.3222  0.1336  0.0237
   80MOL   C42338501   4.148   7.776   0.185 -0.3807  0.3766 -0.2736
   80MOL   C42438502   4.283   7.814   0.212  0.1762  0.2673  0.5001
   80MOL   O42538503   3.991   7.610   0.147  0.2586  0.5152  0.2816
   80MOL   H42638504   4.896   7.447   0.316 -1.4202 -0.5389  1.1619
   80MOL   H42738505   4.760   7.644   0.366 -0.2389 -2.2947  1.4679
   80MOL   H42838506   4.630   7.628   8.364 -0.4551 -0.1607  0.3354
   80MOL   H42938507   4.767   7.426   8.342 -3.1330 -1.8736  0.8570
   80MOL   H43038508   4.438   7.540   0.080  0.1918  1.0576 -0.4428
   80MOL   H43138509   4.197   7.465   0.060 -2.4774  0.8961 -0.6018
   80MOL   H43238510   4.073   7.847   0.216 -0.0885 -0.5075  2.7133
   80MOL   H43338511   4.310   7.911   0.251  1.0991  0.8936 -1.6074
   80MOL   C43438512   3.996   7.424   0.305 -0.4634  0.0095 -0.0377
   80MOL   C43538513   3.965   7.369   0.432  0.6096  0.6282 -0.0305
   80MOL   C43638514   3.860   7.439   0.508 -0.3248 -0.4452 -0.3759
   80MOL   C43738515   3.808   7.559   0.464 -0.2936 -0.2697 -0.7743
   80MOL   C43838516   3.856   7.620   0.350 -0.7786  0.0734  0.1735
   80MOL   C43938517   3.943   7.549   0.264  0.8162 -1.2161  0.5848
   80MOL   S44038518   3.812   7.372   0.668 -0.1869 -0.4788  0.0514
   80MOL   O44138519   3.856   7.234   0.675  0.2533 -0.3271 -0.1999
   80MOL   O44238520   3.673   7.409   0.691  0.2305 -0.5112 -0.0790
   80MOL   C44338521   3.908   7.461   0.786 -0.1069 -0.1456 -1.0513
   80MOL   C44438522   3.989   7.570   0.756  0.6867 -0.2001  0.1311
   80MOL   C44538523   4.062   7.636   0.856 -0.4851 -0.6174  0.3223
   80MOL   C44638524   4.043   7.594   0.990  1.0693 -0.1912 -0.7150
   80MOL   C44738525   3.961   7.487   1.029 -0.7132  0.5169 -0.3171
   80MOL   C44838526   3.895   7.419   0.920 -0.1691  0.7386 -1.0235
   80MOL   O44938527   4.097   7.674   1.088 -0.4016 -0.2220  0.2371
   80MOL   H45038528   4.068   7.381   0.237 -0.9462  1.5262 -1.5553
   80MOL   H45138529   4.003   7.276   0.472 -0.1113  0.0284 -0.7238
   80MOL   H45238530   3.733   7.610   0.523  0.7872  0.8231 -0.3340
   80MOL   H45338531   3.820   7.719   0.325  1.7671  1.0267  0.1959
   80MOL   H45438532   4.008   7.601   0.654  1.2887  2.5983  1.0431
   80MOL   H45538533   4.116   7.726   0.832 -1.9036  0.0685 -0.3956
   80MOL   H45638534   3.949   7.455   1.131 -3.6624  0.2210 -0.7125
   80MOL   H45738535   3.836   7.331   0.944  1.3244 -0.2460 -0.8633
   80MOL   C45838536   4.022   7.702   1.315  0.0442 -0.4711 -0.8550
   80MOL   C45938537   3.932   7.753   1.407 -0.3065  0.0018 -0.2862
   80MOL   C46038538   3.822   7.835   1.355  0.1059  0.3888  0.6394
   80MOL   C46138539   3.812   7.877   1.221 -0.2188  0.5250 -0.1691
   80MOL   C46238540   3.908   7.821   1.129  0.2396  0.8474 -0.0036
   80MOL   C46338541   4.010   7.733   1.177  0.8342 -0.3749  0.4513
   80MOL   S46438542   3.697   7.886   1.479 -0.4108  0.0735  0.0907
   80MOL   O46538543   3.656   8.018   1.434 -0.3628 -0.2993 -0.0489
   80MOL   O46638544   3.756   7.871   1.612 -0.1343 -0.0352  0.2460
   80MOL   C46738545   3.564   7.770   1.464  0.2074  0.1200 -0.5092
   80MOL   C46838546   3.573   7.640   1.526 -0.1079 -0.2267  1.2554
   80MOL   C46938547   3.468   7.544   1.510  0.1560 -0.2898  0.4282
   80MOL   C47038548   3.351   7.587   1.443  0.0574 -0.4918  0.1833
   80MOL   C47138549   3.345   7.710   1.371 -0.6951 -0.4482  0.0714
   80MOL   C47238550   3.452   7.804   1.388 -0.0527 -0.3604 -0.8511
   80MOL   O47338551   3.242   7.505   1.432  0.1700 -0.5440  0.2270
   80MOL   H47438552   4.102   7.642   1.356  0.0836 -1.0017 -1.6856
   80MOL   H47538553   3.939   7.740   1.514 -0.2710  2.1541  0.0064
   80MOL   H47638554   3.725   7.933   1.191 -1.3276 -0.8239  0.4331
   80MOL   H47738555   3.909   7.839   1.022 -1.5752  1.6497  0.1074
   80MOL   H47838556   3.661   7.624   1.587  0.6930  1.0658  0.4714
   80MOL   H47938557   3.471   7.446   1.555  0.0258  0.1687  1.4547
   80MOL   H48038558   3.254   7.742   1.321 -0.2499  0.8612  0.0942
   80MOL   H48138559   3.441   7.904   1.349 -1.9312  0.4035  1.5264
   80MOL   H48238560   3.174   7.546   1.382 -0.5139 -0.3879  1.2673
   81MOL     C138561   5.682   5.007   4.264  0.3846 -0.0576  0.3449
   81MOL     C238562   5.604   5.002   4.385  0.5861  0.0176  0.1236
   81MOL     C338563   5.468   5.047   4.377  0.2855 -0.2599 -0.2556
   81MOL     C438564   5.412   5.094   4.253 -0.0202  0.4741 -1.0836
   81MOL     C538565   5.485   5.080   4.136 -0.6092 -0.4199  0.1914
   81MOL     C638566   5.619   5.036   4.137  0.1357  0.8542  0.4680
   81MOL     S738567   5.365   5.053   4.525  0.1813 -0.1660  0.0033
   81MOL     O838568   5.249   5.143   4.506 -0.2856 -0.1488  0.5669
   81MOL     O938569   5.464   5.064   4.632  0.3546 -0.3508 -0.3374
   81MOL    C1038570   5.293   4.888   4.543  1.2476  0.1701 -0.2736
   81MOL    C1138571   5.239   4.843   4.665 -0.4119  0.2990 -0.5144
   81MOL    C1238572   5.179   4.718   4.677  0.3715  0.6616 -0.3399
   81MOL    C1338573   5.165   4.636   4.569  0.4922  0.3505  0.4423
   81MOL    C1438574   5.216   4.678   4.441 -0.7889 -0.2524 -0.8414
   81MOL    C1538575   5.281   4.803   4.428 -0.4890 -0.2606  0.3942
   81MOL    O1638576   5.123   4.510   4.581  0.0649  0.4627  0.7693
   81MOL    H1738577   5.783   4.970   4.263  0.0687 -0.9846  1.3036
   81MOL    H1838578   5.655   4.985   4.478  3.2201 -0.2723 -1.3047
   81MOL    H1938579   5.318   5.145   4.241 -0.5380 -0.2901 -0.3617
   81MOL    H2038580   5.441   5.105   4.041 -0.5371  2.6927  0.9243
   81MOL    H2138581   5.237   4.917   4.744  0.4563 -0.7252  0.4796
   81MOL    H2238582   5.155   4.686   4.777  2.3394 -0.3673 -0.1707
   81MOL    H2338583   5.208   4.619   4.351 -1.5068 -0.0024 -0.9414
   81MOL    H2438584   5.318   4.828   4.330  0.0876 -1.0553  0.4024
   81MOL    H2538585   5.687   5.021   4.055  2.2972  1.7917  2.0409
   81MOL    C2638586   4.884   4.486   4.639 -0.1261 -0.2631 -0.6993
   81MOL    C2738587   4.751   4.484   4.597  0.7380  0.2264 -0.8942
   81MOL    C2838588   4.724   4.462   4.459  0.1250  0.4412  0.3340
   81MOL    C2938589   4.829   4.446   4.368  0.2362 -0.6024 -0.2424
   81MOL    C3038590   4.961   4.448   4.413 -0.0285  0.2065 -0.2959
   81MOL    C3138591   4.991   4.485   4.548  0.4479  0.0163 -0.2848
   81MOL    S3238592   4.558   4.453   4.395  0.1234 -0.2788  0.0345
   81MOL    O3338593   4.558   4.425   4.252  0.6116 -0.2156 -0.3259
   81MOL    O3438594   4.487   4.575   4.439  0.6268 -0.0421  0.6398
   81MOL    C3538595   4.483   4.314   4.488 -0.2747  0.7063  0.0390
   81MOL    C3638596   4.565   4.206   4.525  0.1109  0.1506 -0.0604
   81MOL    C3738597   4.506   4.100   4.597  0.3292 -0.3072  0.3014
   81MOL    C3838598   4.368   4.097   4.622 -0.1102 -0.2435 -0.1899
   81MOL    C3938599   4.284   4.190   4.567  0.4641 -0.0066  0.2373
   81MOL    C4038600   4.344   4.303   4.501  0.2688  0.2994  0.2871
   81MOL    O4138601   4.318   3.985   4.690 -0.7225 -0.1870 -0.1147
   81MOL    H4238602   4.900   4.510   4.743 -0.0924 -3.2214  0.0262
   81MOL    H4338603   4.669   4.501   4.665 -0.1043 -1.0323 -1.5612
   81MOL    H4438604   4.790   4.435   4.268 -1.5369  1.1718  0.2155
   81MOL    H4538605   5.037   4.440   4.337  0.3477  1.1037 -0.0178
   81MOL    H4638606   4.673   4.209   4.520  0.0565 -0.3470 -2.0051
   81MOL    H4738607   4.562   4.024   4.648 -0.1231 -1.0190 -0.2651
   81MOL    H4838608   4.177   4.185   4.573  0.4303 -1.4277 -1.2255
   81MOL    H4938609   4.293   4.397   4.483  0.5077  0.3143 -0.3181
   81MOL    C5038610   4.107   3.998   4.811 -0.7281  0.4070 -0.0574
   81MOL    C5138611   4.038   4.000   4.934 -0.0270  0.6182  0.1492
   81MOL    C5238612   4.118   3.998   5.052 -0.0308  0.1410  0.2854
   81MOL    C5338613   4.253   3.977   5.050 -0.6330  0.2878  0.1391
   81MOL    C5438614   4.318   3.977   4.924 -0.5212 -0.1693  0.3541
   81MOL    C5538615   4.248   3.994   4.804  0.1023  0.3640 -0.0699
   81MOL    S5638616   4.027   4.007   5.208 -0.0846  0.0726  0.2898
   81MOL    O5738617   3.882   4.028   5.187 -0.3092  0.3689  0.0268
   81MOL    O5838618   4.097   4.096   5.300  0.4047 -0.0121 -0.6328
   81MOL    C5938619   4.049   3.843   5.278  0.0807  0.6105 -0.4666
   81MOL    C6038620   4.100   3.813   5.407  0.1534  0.5608  0.6177
   81MOL    C6138621   4.108   3.676   5.448 -0.4633 -0.1076 -0.2188
   81MOL    C6238622   4.065   3.571   5.365 -0.1020 -1.5102 -0.2940
   81MOL    C6338623   4.013   3.606   5.239  0.5229 -0.7628 -0.2093
   81MOL    C6438624   3.996   3.739   5.197  0.6841 -0.5723  0.1645
   81MOL    O6538625   4.074   3.441   5.408  0.3025 -0.1175 -0.2523
   81MOL    H6638626   4.052   4.009   4.719 -1.6958 -0.5246  0.3999
   81MOL    H6738627   3.932   4.016   4.943 -0.0324  0.4123  0.4740
   81MOL    H6838628   4.311   3.970   5.141  1.1109  0.2067 -0.9585
   81MOL    H6938629   4.426   3.972   4.924 -0.3439  2.5378  0.6453
   81MOL    H7038630   4.121   3.894   5.475  3.1659  0.8582 -0.6044
   81MOL    H7138631   4.137   3.653   5.549 -3.5221 -0.2125  0.6803
   81MOL    H7238632   3.978   3.520   5.184  3.0765 -1.3508 -0.9608
   81MOL    H7338633   3.955   3.772   5.103  2.9201  1.0518 -0.2704
   81MOL    C7438634   4.263   3.345   5.298 -1.3643 -0.2343  0.1817
   81MOL    C7538635   4.382   3.272   5.302 -0.6807  0.2203  0.5451
   81MOL    C7638636   4.441   3.253   5.428  0.0846  0.2725 -0.5243
   81MOL    C7738637   4.386   3.308   5.549 -1.0381  0.3485 -0.4019
   81MOL    C7838638   4.263   3.366   5.543 -0.0404  0.1172 -0.3220
   81MOL    C7938639   4.198   3.386   5.418  0.3043 -0.3412  0.2633
   81MOL    S8038640   4.590   3.153   5.439  0.1030 -0.4106 -0.2548
   81MOL    O8138641   4.555   3.023   5.384  0.4213 -0.0627  1.0699
   81MOL    O8238642   4.648   3.155   5.573 -0.3090 -0.3236 -0.5166
   81MOL    C8338643   4.697   3.216   5.311 -0.2177 -0.0796  0.0258
   81MOL    C8438644   4.702   3.160   5.179 -0.3123 -0.7763  0.0111
   81MOL    C8538645   4.785   3.210   5.086 -0.4834 -0.0895 -0.0372
   81MOL    C8638646   4.878   3.311   5.117  0.2879  0.8564  0.4443
   81MOL    C8738647   4.887   3.362   5.248 -0.9603  0.0568 -0.9062
   81MOL    C8838648   4.790   3.318   5.340  1.3186  0.5279  0.0619
   81MOL    O8938649   4.957   3.344   5.024  0.0046 -0.0547  0.0502
   81MOL    H9038650   4.218   3.363   5.202  1.1631 -2.2199 -1.4630
   81MOL    H9138651   4.431   3.236   5.213 -0.4856  0.3354  0.6047
   81MOL    H9238652   4.428   3.305   5.648 -0.2570  0.6882 -0.7241
   81MOL    H9338653   4.225   3.407   5.636  0.6429 -1.9469  0.9218
   81MOL    H9438654   4.633   3.079   5.159 -0.8299  0.2065 -2.3191
   81MOL    H9538655   4.774   3.165   4.989  3.6140 -0.1769 -0.5712
   81MOL    H9638656   4.961   3.431   5.287 -2.2822  0.8231  0.3006
   81MOL    H9738657   4.784   3.370   5.434 -0.4267  1.2868 -0.4504
   81MOL    C9838658   4.834   3.426   4.839  0.5341  0.4601 -0.6848
   81MOL    C9938659   4.789   3.532   4.764  0.4326  0.5151 -0.4137
   81MOL   C10038660   4.813   3.661   4.805 -0.6513  0.2925  0.1692
   81MOL   C10138661   4.877   3.681   4.929  0.8153 -0.1646 -0.7835
   81MOL   C10238662   4.932   3.577   5.004 -0.4073 -0.7065 -0.7771
   81MOL   C10338663   4.908   3.450   4.956 -0.5541 -0.4260  0.0899
   81MOL   S10438664   4.730   3.802   4.745 -0.2591  0.3960 -0.0025
   81MOL   O10538665   4.828   3.902   4.694 -0.0743 -0.7959  0.0279
   81MOL   O10638666   4.633   3.839   4.849 -0.3806 -0.1797 -0.2843
   81MOL   C10738667   4.620   3.749   4.613  0.5683 -0.3909 -0.3297
   81MOL   C10838668   4.489   3.706   4.635  0.5122  0.0069 -0.6743
   81MOL   C10938669   4.402   3.664   4.532  0.3048  0.6390 -0.4121
   81MOL   C11038670   4.448   3.684   4.398 -0.0466 -0.4716 -0.2175
   81MOL   C11138671   4.584   3.721   4.372  0.4304  0.0378 -0.2145
   81MOL   C11238672   4.663   3.757   4.482 -0.1889 -0.3584 -0.3961
   81MOL   O11338673   4.355   3.675   4.299  0.1850 -0.0616 -0.3038
   81MOL   H11438674   4.820   3.324   4.808 -0.4723  0.4038 -0.0573
   81MOL   H11538675   4.751   3.508   4.666  0.4138 -0.5035 -0.1691
   81MOL   H11638676   4.865   3.780   4.970  0.1367 -0.7204  0.3902
   81MOL   H11738677   4.966   3.594   5.105 -1.1894  0.5914 -0.7087
   81MOL   H11838678   4.451   3.701   4.736  1.9991 -2.2220 -0.1956
   81MOL   H11938679   4.304   3.623   4.553 -0.5668  3.3859  1.1347
   81MOL   H12038680   4.618   3.745   4.273 -0.1514  2.8086  0.2094
   81MOL   H12138681   4.767   3.779   4.464 -0.1740 -0.5023 -0.4818
   81MOL   C12238682   4.427   3.647   4.065  0.8155 -0.3771 -0.6780
   81MOL   C12338683   4.458   3.700   3.940  0.0385 -0.5012 -0.7379
   81MOL   C12438684   4.441   3.838   3.915  0.4864  0.8039  0.4922
   81MOL   C12538685   4.385   3.917   4.019  0.2459  0.1546 -0.0302
   81MOL   C12638686   4.363   3.863   4.147 -0.3892 -0.0154 -0.5162
   81MOL   C12738687   4.380   3.725   4.175  0.0292 -0.0370  0.6503
   81MOL   S12838688   4.504   3.901   3.762 -0.0359  0.0166  0.4425
   81MOL   O12938689   4.429   3.853   3.648  0.1418  0.4743  0.2265
   81MOL   O13038690   4.649   3.865   3.756  0.1034 -0.3301  0.1426
   81MOL   C13138691   4.502   4.081   3.777 -0.3989 -0.1947  0.5070
   81MOL   C13238692   4.403   4.152   3.710  0.0522 -0.5439  0.0825
   81MOL   C13338693   4.405   4.289   3.724 -0.2615 -0.2801 -0.3692
   81MOL   C13438694   4.499   4.360   3.798 -0.4755 -0.2082  0.1863
   81MOL   C13538695   4.596   4.287   3.865  0.2061 -0.1525 -0.4202
   81MOL   C13638696   4.606   4.144   3.850 -0.2261 -0.1098  0.3973
   81MOL   O13738697   4.497   4.491   3.804 -0.4860 -0.4537  0.0278
   81MOL   H13838698   4.458   3.545   4.086 -1.1611 -0.7452  0.5936
   81MOL   H13938699   4.503   3.637   3.865 -2.5585 -0.1610 -2.6510
   81MOL   H14038700   4.374   4.024   4.006  1.6844  0.1989 -0.9334
   81MOL   H14138701   4.309   3.912   4.227  0.7014  1.6726 -0.7888
   81MOL   H14238702   4.338   4.098   3.642 -0.2322 -0.6740  0.4539
   81MOL   H14338703   4.338   4.351   3.666  0.2405  0.6796  0.0659
   81MOL   H14438704   4.684   4.320   3.919  1.0968 -1.1083 -1.2464
   81MOL   H14538705   4.687   4.090   3.895 -0.1402 -0.1512  0.1946
   81MOL   C14638706   4.498   4.608   4.016  0.0490  0.1584 -0.7764
   81MOL   C14738707   4.432   4.697   4.103 -0.1963 -0.7183 -0.5982
   81MOL   C14838708   4.298   4.733   4.072  0.4425  0.3984  0.2341
   81MOL   C14938709   4.226   4.660   3.975 -0.2046 -0.3468  0.0727
   81MOL   C15038710   4.289   4.569   3.898 -0.6704 -0.5403 -0.3192
   81MOL   C15138711   4.427   4.546   3.911  0.2696 -0.3897 -0.5155
   81MOL   S15238712   4.199   4.838   4.175 -0.2358  0.0325 -0.2494
   81MOL   O15338713   4.121   4.927   4.088  0.2279 -0.9019 -0.2304
   81MOL   O15438714   4.292   4.895   4.276  0.2211  0.2435  0.5766
   81MOL   C15538715   4.085   4.727   4.260 -0.2703 -0.0860  0.2577
   81MOL   C15638716   4.111   4.678   4.390 -0.2426  0.2205 -0.4018
   81MOL   C15738717   4.016   4.604   4.464 -0.8596 -0.2933  0.2570
   81MOL   C15838718   3.902   4.557   4.399  0.5269 -0.1942  0.5767
   81MOL   C15938719   3.879   4.595   4.262 -0.3893  0.3579 -0.0176
   81MOL   C16038720   3.968   4.681   4.194 -0.2974 -0.1851 -0.2454
   81MOL   O16138721   3.806   4.478   4.458 -0.4567 -0.3647 -0.4217
   81MOL   H16238722   4.602   4.582   4.032  0.1753  1.3225  0.4268
   81MOL   H16338723   4.473   4.755   4.184  2.2904 -2.9684 -0.1716
   81MOL   H16438724   4.120   4.672   3.956 -0.2193 -2.0164 -0.9836
   81MOL   H16538725   4.234   4.517   3.821  0.3679 -2.0619 -0.0625
   81MOL   H16638726   4.207   4.710   4.429  0.4664 -1.3773 -0.8184
   81MOL   H16738727   4.033   4.563   4.563 -2.3301  2.3734  1.6612
   81MOL   H16838728   3.797   4.550   4.207  0.0478 -2.3064  1.4080
   81MOL   H16938729   3.949   4.724   4.097  1.7733  1.7818  0.1605
   81MOL   C17038730   3.712   4.553   4.667  1.1062  0.5231  0.4522
   81MOL   C17138731   3.599   4.584   4.739 -0.6269 -0.1519  0.0190
   81MOL   C17238732   3.479   4.604   4.672 -0.1757 -0.6360 -0.1953
   81MOL   C17338733   3.473   4.610   4.530  0.2296 -0.0438 -0.4538
   81MOL   C17438734   3.589   4.583   4.457 -0.2408  0.6535  0.3709
   81MOL   C17538735   3.703   4.540   4.525 -0.3536 -0.5416 -0.2227
   81MOL   S17638736   3.335   4.633   4.770 -0.0523  0.1735 -0.4974
   81MOL   O17738737   3.221   4.667   4.688 -0.5089  0.8268 -0.0841
   81MOL   O17838738   3.368   4.729   4.876  0.0911 -0.1196  0.2044
   81MOL   C17938739   3.315   4.468   4.843 -0.6787 -1.0283 -0.9583
   81MOL   C18038740   3.302   4.360   4.754  0.3891 -0.2117  0.5474
   81MOL   C18138741   3.284   4.235   4.807  0.5068  1.0581 -0.8452
   81MOL   C18238742   3.270   4.214   4.945  0.1843 -0.4628 -0.4724
   81MOL   C18338743   3.297   4.325   5.029 -0.1277  0.5762 -0.1365
   81MOL   C18438744   3.311   4.455   4.979 -0.3013  0.2732 -0.8079
   81MOL   O18538745   3.273   4.094   5.002 -0.0596 -0.0106  0.5244
   81MOL   H18638746   3.798   4.520   4.723  1.1297  1.3561  0.9052
   81MOL   H18738747   3.600   4.582   4.847 -1.3896  1.6100  0.0912
   81MOL   H18838748   3.388   4.639   4.470 -0.0189 -0.7136 -0.4346
   81MOL   H18938749   3.588   4.585   4.349 -1.8619  1.3157  0.3757
   81MOL   H19038750   3.294   4.381   4.648  2.1678  0.4861  0.5430
   81MOL   H19138751   3.282   4.147   4.745 -0.8858 -0.3418  1.1508
   81MOL   H19238752   3.311   4.308   5.135 -0.1519 -1.6322 -0.4668
   81MOL   H19338753   3.327   4.537   5.047  0.2639 -0.6853  0.2258
   81MOL   C19438754   3.353   3.894   4.886  0.2392 -0.5991 -0.2331
   81MOL   C19538755   3.456   3.822   4.821 -0.2949  0.5990 -0.0899
   81MOL   C19638756   3.590   3.857   4.851  0.1127  0.2403  0.4494
   81MOL   C19738757   3.622   3.958   4.947 -0.9899 -0.1052 -1.0082
   81MOL   C19838758   3.517   4.041   4.994 -0.0543 -0.4522  0.0237
   81MOL   C19938759   3.379   4.012   4.961 -0.1737 -0.9182 -0.0053
   81MOL   S20038760   3.725   3.786   4.756 -0.2659 -0.0300  0.4337
   81MOL   O20138761   3.672   3.687   4.660  0.6215 -0.1389 -0.0287
   81MOL   O20238762   3.823   3.750   4.857 -0.9324 -0.2265  0.1250
   81MOL   C20338763   3.798   3.920   4.660  0.3874  0.0464 -0.1613
   81MOL   C20438764   3.895   3.891   4.563  0.6827 -0.3322  0.5487
   81MOL   C20538765   3.951   3.995   4.489  0.4745 -0.2921  0.2317
   81MOL   C20638766   3.904   4.129   4.497  0.0421  0.3484 -0.1527
   81MOL   C20738767   3.805   4.158   4.587 -0.0293 -0.4296  0.1300
   81MOL   C20838768   3.751   4.058   4.668  0.0619  0.1108  0.4544
   81MOL   O20938769   3.978   4.241   4.450  0.0608 -0.2667  0.2099
   81MOL   H21038770   3.250   3.871   4.865  0.0505  0.3253 -0.3308
   81MOL   H21138771   3.442   3.748   4.745  2.9124 -0.7515  0.5147
   81MOL   H21238772   3.726   3.980   4.961 -0.7706 -1.6510 -0.1172
   81MOL   H21338773   3.524   4.129   5.057 -0.1042 -0.5047  0.1027
   81MOL   H21438774   3.922   3.787   4.549  2.3048  0.2979 -1.1007
   81MOL   H21538775   4.037   3.970   4.428 -0.4755 -0.9861 -0.8455
   81MOL   H21638776   3.770   4.260   4.591 -0.9550 -0.6534 -1.9329
   81MOL   H21738777   3.673   4.083   4.739  1.3159  0.2842  1.7790
   81MOL   C21838778   4.113   4.244   4.246  0.3990  0.3636 -0.3188
   81MOL   C21938779   4.112   4.242   4.105 -0.0024  0.6316 -0.0843
   81MOL   C22038780   3.991   4.236   4.034 -0.0171  0.0955  0.4781
   81MOL   C22138781   3.869   4.236   4.104  0.5503 -0.1327  0.2683
   81MOL   C22238782   3.867   4.238   4.241  0.4723  0.4796  0.1877
   81MOL   C22338783   3.989   4.240   4.308  0.2244 -0.2282 -0.1875
   81MOL   S22438784   3.994   4.233   3.856  0.0242  0.3558  0.0610
   81MOL   O22538785   4.102   4.322   3.820 -0.4232 -0.4896  0.0971
   81MOL   O22638786   3.853   4.253   3.811  0.1001  0.1027  0.3609
   81MOL   C22738787   4.039   4.065   3.820 -0.2821  0.3560 -0.9019
   81MOL   C22838788   4.087   4.037   3.694  0.0439  0.5076  0.4093
   81MOL   C22938789   4.119   3.904   3.655  0.1909 -0.1655  0.6883
   81MOL   C23038790   4.103   3.800   3.744 -0.2739 -0.0048  0.2637
   81MOL   C23138791   4.054   3.831   3.875 -0.1067 -0.2171  0.0378
   81MOL   C23238792   4.019   3.962   3.913 -0.2002  0.0956 -0.4895
   81MOL   O23338793   4.141   3.673   3.708  0.6000  0.0853  0.6687
   81MOL   H23438794   4.199   4.237   4.312  0.0067  0.6047  0.2204
   81MOL   H23538795   4.205   4.244   4.050  0.2523  3.3176  0.3904
   81MOL   H23638796   3.774   4.218   4.057  0.6993 -3.0469  0.9983
   81MOL   H23738797   3.771   4.235   4.290 -0.0983 -2.7992 -1.0087
   81MOL   H23838798   4.093   4.110   3.616  1.1949 -0.8368 -0.8029
   81MOL   H23938799   4.152   3.884   3.554  1.4138  1.9407  0.6242
   81MOL   H24038800   4.040   3.761   3.957  0.1160  0.8496  1.0032
   81MOL   H24138801   3.983   3.965   4.015 -0.3809 -0.3823 -0.5364
   81MOL   C24238802   3.956   3.523   3.719  0.3464  0.4418  0.4183
   81MOL   C24338803   3.894   3.407   3.771  0.3226  1.0637 -0.2370
   81MOL   C24438804   3.971   3.325   3.846 -0.7459  0.5848 -0.0008
   81MOL   C24538805   4.100   3.357   3.886  0.3177  0.3113  0.3137
   81MOL   C24638806   4.158   3.483   3.851 -0.9149 -0.2253  0.0476
   81MOL   C24738807   4.081   3.563   3.759 -0.3266  0.3548  0.0046
   81MOL   S24838808   3.903   3.170   3.900  0.2198 -0.1222  0.1066
   81MOL   O24938809   4.008   3.099   3.974 -0.1384  1.1546  0.1154
   81MOL   O25038810   3.854   3.111   3.775  0.0852  0.0841  0.4781
   81MOL   C25138811   3.762   3.188   4.010  0.1466 -0.8647  0.0524
   81MOL   C25238812   3.631   3.205   3.947 -0.0332  0.5229  0.1762
   81MOL   C25338813   3.520   3.217   4.027  0.4338  0.3320 -0.1660
   81MOL   C25438814   3.526   3.214   4.171  0.1389 -0.2273  0.3566
   81MOL   C25538815   3.650   3.212   4.230  0.0754  0.0203  0.5117
   81MOL   C25638816   3.767   3.195   4.148  0.1011 -0.4318 -0.1581
   81MOL   O25738817   3.408   3.226   4.236 -0.3055 -0.4042  0.4935
   81MOL   H25838818   3.908   3.584   3.644  0.4887 -0.6424 -0.5613
   81MOL   H25938819   3.794   3.373   3.749 -0.1482  0.9517  2.0143
   81MOL   H26038820   4.149   3.276   3.936  1.5733  1.3473  0.7792
   81MOL   H26138821   4.253   3.519   3.886 -0.1052  1.1007 -3.3683
   81MOL   H26238822   3.611   3.192   3.841 -3.3802  1.4856  0.6446
   81MOL   H26338823   3.422   3.218   3.980  0.2125 -2.3847  0.1543
   81MOL   H26438824   3.658   3.203   4.338  0.2457 -0.5008  0.4535
   81MOL   H26538825   3.859   3.178   4.202  0.1526  0.1097 -0.0733
   81MOL   C26638826   3.263   3.034   4.247  0.6173  0.5655 -0.0676
   81MOL   C26738827   3.209   2.927   4.325 -0.3187 -0.3243  0.2220
   81MOL   C26838828   3.275   2.881   4.441  0.6311  0.6882 -0.5421
   81MOL   C26938829   3.379   2.959   4.499  0.0476 -0.7886 -0.5481
   81MOL   C27038830   3.431   3.070   4.422  0.2690 -0.4658  0.2350
   81MOL   C27138831   3.368   3.111   4.299 -0.1805  0.3405  0.5943
   81MOL   S27238832   3.235   2.723   4.530 -0.1096  0.2607 -0.2051
   81MOL   O27338833   3.252   2.740   4.677 -0.4449  0.3651 -0.7849
   81MOL   O27438834   3.313   2.611   4.470 -0.2100 -0.4163 -0.1380
   81MOL   C27538835   3.062   2.695   4.502 -0.1272 -0.2309  0.0954
   81MOL   C27638836   2.971   2.787   4.559 -0.0017 -0.2889 -0.1805
   81MOL   C27738837   2.832   2.772   4.540 -0.8178 -0.0540 -0.0345
   81MOL   C27838838   2.782   2.658   4.471 -0.0297  0.6460 -0.3845
   81MOL   C27938839   2.870   2.564   4.417  0.4864  0.1942 -0.6676
   81MOL   C28038840   3.007   2.583   4.432  0.4570  0.5237 -0.2509
   81MOL   O28138841   2.652   2.629   4.465  0.2538 -0.1896  0.0105
   81MOL   H28238842   3.239   3.069   4.148  2.1040 -0.7010 -0.8893
   81MOL   H28338843   3.134   2.867   4.275 -0.5701 -0.1805  0.4289
   81MOL   H28438844   3.425   2.932   4.593  3.7588 -0.2146 -2.1060
   81MOL   H28538845   3.508   3.130   4.468  0.3274 -0.7143  0.4648
   81MOL   H28638846   3.014   2.870   4.613 -1.2432 -0.4092  1.0185
   81MOL   H28738847   2.759   2.844   4.573 -2.4901 -2.3321  1.3966
   81MOL   H28838848   2.828   2.480   4.364 -0.9769  1.2381 -1.1992
   81MOL   H28938849   3.078   2.516   4.386  0.8005  0.6559  0.0829
   81MOL   C29038850   2.618   2.784   4.269  0.2519  0.1691  0.2912
   81MOL   C29138851   2.529   2.850   4.186 -0.3537  0.0290 -0.0037
   81MOL   C29238852   2.390   2.824   4.200 -0.5570 -0.0024 -0.4080
   81MOL   C29338853   2.339   2.728   4.295 -0.0368  0.9032 -0.0087
   81MOL   C29438854   2.431   2.666   4.381 -0.2953  0.3021 -0.3987
   81MOL   C29538855   2.569   2.691   4.369 -0.0183  0.2888  0.1716
   81MOL   S29638856   2.275   2.912   4.103 -0.5439  0.4284  0.1410
   81MOL   O29738857   2.179   2.823   4.038  0.6770  0.5876 -0.0768
   81MOL   O29838858   2.352   2.994   4.015 -0.1204  0.4809  0.3930
   81MOL   C29938859   2.198   3.024   4.229  0.1263  0.0241  0.1629
   81MOL   C30038860   2.054   3.040   4.218 -1.2794 -0.9557  0.5958
   81MOL   C30138861   1.988   3.117   4.310  0.6189  0.5538  0.4049
   81MOL   C30238862   2.061   3.182   4.408  0.7099  0.1535 -0.2652
   81MOL   C30338863   2.200   3.168   4.417  0.1178 -0.7386 -0.4441
   81MOL   C30438864   2.274   3.089   4.329  0.5520 -0.2248  0.9507
   81MOL   O30538865   2.002   3.249   4.513 -0.1737  0.1856  0.4844
   81MOL   H30638866   2.722   2.802   4.249  0.1742  1.8594  1.3046
   81MOL   H30738867   2.571   2.923   4.118 -0.7329 -0.6791 -1.0058
   81MOL   H30838868   2.233   2.711   4.303 -0.0494  0.6519 -0.6483
   81MOL   H30938869   2.396   2.599   4.459 -0.2184  0.4863 -0.2041
   81MOL   H31038870   1.999   2.984   4.144 -1.6105  1.3254 -0.9397
   81MOL   H31138871   1.880   3.118   4.311  0.5959 -0.8195  0.5113
   81MOL   H31238872   2.247   3.229   4.493 -2.1570 -0.5644  0.8733
   81MOL   H31338873   2.380   3.069   4.327  0.7861  1.0289 -0.5157
   81MOL   C31438874   1.856   3.115   4.645  0.1020 -0.0142 -0.1035
   81MOL   C31538875   1.843   3.028   4.756  0.1317  0.3598  0.0563
   81MOL   C31638876   1.934   3.030   4.860 -0.3948  1.0685  0.3322
   81MOL   C31738877   2.054   3.100   4.846  0.2557  0.2725 -0.0965
   81MOL   C31838878   2.078   3.174   4.728 -0.1904 -0.1418  0.1601
   81MOL   C31938879   1.979   3.177   4.629  0.0742 -0.3143 -0.8056
   81MOL   S32038880   1.895   2.935   5.004  0.5783  0.1234  0.4446
   81MOL   O32138881   2.008   2.917   5.100  0.0444  0.1744  0.0501
   81MOL   O32238882   1.831   2.812   4.952  0.5949 -0.2375  0.4054
   81MOL   C32338883   1.766   3.023   5.102 -0.1782  0.0707  0.4526
   81MOL   C32438884   1.686   3.125   5.048  0.4648 -0.1035  0.3485
   81MOL   C32538885   1.589   3.194   5.123  0.0477 -0.3428  0.3667
   81MOL   C32638886   1.577   3.166   5.261 -0.5909  0.8903  0.2387
   81MOL   C32738887   1.655   3.058   5.312  0.4754 -0.0182  0.3643
   81MOL   C32838888   1.750   2.989   5.236  0.1030  0.3148  0.4103
   81MOL   O32938889   1.494   3.236   5.341 -0.1846 -0.3195  0.0470
   81MOL   H33038890   1.776   3.108   4.573 -1.8499 -0.2559  2.0056
   81MOL   H33138891   1.754   2.967   4.757 -1.0112  1.9402 -1.1303
   81MOL   H33238892   2.116   3.105   4.934  0.5490  0.2117 -0.3024
   81MOL   H33338893   2.175   3.220   4.716  0.2815 -1.1933 -0.1253
   81MOL   H33438894   1.699   3.142   4.942 -1.8764 -0.8302 -0.0838
   81MOL   H33538895   1.527   3.269   5.076  1.4329  1.2478  1.0034
   81MOL   H33638896   1.635   3.025   5.413 -0.4112 -0.0705  0.1784
   81MOL   H33738897   1.816   2.917   5.281  0.7384  0.5836 -0.0687
   81MOL   C33838898   1.437   3.200   5.575 -0.3466  0.6611 -0.6566
   81MOL   C33938899   1.368   3.121   5.667 -0.4158  1.0151  0.1630
   81MOL   C34038900   1.287   3.020   5.616 -0.5046  0.6025 -0.0757
   81MOL   C34138901   1.254   3.006   5.482 -0.6884  0.6569 -0.2207
   81MOL   C34238902   1.327   3.076   5.390 -0.8984 -0.2184 -0.0340
   81MOL   C34338903   1.420   3.172   5.435  0.3401  0.4304 -0.2789
   81MOL   S34438904   1.193   2.914   5.733 -0.2410  0.3553  0.0332
   81MOL   O34538905   1.100   2.994   5.816 -0.3835  0.0541  0.2332
   81MOL   O34638906   1.299   2.836   5.806 -0.0584 -0.8446 -0.4843
   81MOL   C34738907   1.100   2.809   5.634  1.0009  0.5630  0.8021
   81MOL   C34838908   0.956   2.819   5.636 -0.4917 -0.2650  0.2869
   81MOL   C34938909   0.882   2.746   5.542 -0.4502 -0.3916 -0.2161
   81MOL   C35038910   0.949   2.654   5.459 -0.6452 -0.5989  0.0774
   81MOL   C35138911   1.087   2.643   5.470  0.0229  0.3733  0.3805
   81MOL   C35238912   1.161   2.713   5.560  1.3254 -0.5221 -0.6197
   81MOL   O35338913   0.895   2.569   5.369 -0.2813 -0.0560 -0.3223
   81MOL   H35438914   1.500   3.280   5.610 -3.0847  2.9250 -0.7280
   81MOL   H35538915   1.384   3.139   5.772  1.4397  1.7796 -0.2231
   81MOL   H35638916   1.181   2.940   5.439 -0.2455 -0.6091  0.9261
   81MOL   H35738917   1.318   3.062   5.284 -2.3024  0.8069 -0.0614
   81MOL   H35838918   0.910   2.897   5.695 -3.8528 -0.9991 -1.2857
   81MOL   H35938919   0.780   2.773   5.521  0.0862 -0.1937 -2.7562
   81MOL   H36038920   1.137   2.566   5.412  0.9782  0.3788  1.1938
   81MOL   H36138921   1.268   2.700   5.564  1.3176 -0.9288 -1.6217
   81MOL   C36238922   0.806   2.395   5.515  0.2935 -0.0916  0.4247
   81MOL   C36338923   0.805   2.261   5.563 -0.6963  0.1761 -0.0074
   81MOL   C36438924   0.869   2.162   5.481 -0.2221  0.0885 -0.1448
   81MOL   C36538925   0.937   2.194   5.362 -0.3128 -0.1373  0.7749
   81MOL   C36638926   0.943   2.332   5.326 -0.1724 -0.7368  0.0878
   81MOL   C36738927   0.888   2.434   5.406  0.7659  0.1421  0.1980
   81MOL   S36838928   0.864   1.992   5.544 -0.3918 -0.1090  0.3352
   81MOL   O36938929   0.864   1.991   5.687 -0.3891  0.2468 -0.2031
   81MOL   O37038930   0.971   1.920   5.472 -1.3456 -0.3822  0.4074
   81MOL   C37138931   0.702   1.928   5.494 -0.1932  0.4072 -0.5179
   81MOL   C37238932   0.677   1.789   5.497 -0.1875  0.3626 -0.4271
   81MOL   C37338933   0.553   1.736   5.444  0.4235 -0.3366  0.1821
   81MOL   C37438934   0.449   1.820   5.396  0.1788  0.0831 -0.2886
   81MOL   C37538935   0.480   1.959   5.389 -0.0338  0.3716  0.2937
   81MOL   C37638936   0.602   2.012   5.432  0.2745  0.5591  0.4158
   81MOL   O37738937   0.325   1.763   5.354  0.0309 -0.0058  0.1228
   81MOL   H37838938   0.756   2.476   5.566 -1.0727 -2.4698  3.0055
   81MOL   H37938939   0.759   2.231   5.656  0.3224 -1.6202 -0.0721
   81MOL   H38038940   0.982   2.123   5.295 -1.1597 -0.3421  0.4112
   81MOL   H38138941   1.009   2.367   5.247  0.3512  0.5749  1.0886
   81MOL   H38238942   0.753   1.717   5.523 -0.0826  1.0532  1.2411
   81MOL   H38338943   0.544   1.628   5.444  0.6310 -0.3506  0.6604
   81MOL   H38438944   0.413   2.028   5.342  2.3245  1.6433 -1.3169
   81MOL   H38538945   0.617   2.118   5.422  4.0881 -0.0850 -1.6756
   81MOL   C38638946   0.168   1.939   5.283 -0.3156  0.0349 -0.7796
   81MOL   C38738947   0.097   2.006   5.180  0.0890 -0.1956 -1.0987
   81MOL   C38838948   0.077   1.941   5.058 -0.2657 -0.2737  0.2556
   81MOL   C38938949   0.146   1.823   5.028 -0.1841  0.2932 -0.1460
   81MOL   C39038950   0.226   1.762   5.123  0.6722 -0.1018 -0.1698
   81MOL   C39138951   0.241   1.821   5.252  0.0436 -0.1722  0.0908
   81MOL   S39238952   8.390   1.998   4.935  0.6449  0.4208 -0.3345
   81MOL   O39338953   0.035   1.995   4.809 -0.0280 -0.0596 -0.4282
   81MOL   O39438954   8.311   2.118   4.979 -0.5096  0.0742 -0.1306
   81MOL   C39538955   8.264   1.879   4.939  0.1809  0.1393  0.5289
   81MOL   C39638956   8.231   1.806   4.823  0.2006  0.1130 -0.8055
   81MOL   C39738957   8.118   1.720   4.818 -0.2004 -0.2954 -0.0169
   81MOL   C39838958   8.051   1.685   4.939  0.0222  0.5726  0.1848
   81MOL   C39938959   8.097   1.756   5.057 -0.6089  0.7553  0.1586
   81MOL   C40038960   8.196   1.848   5.061 -0.0477 -0.1206  0.0769
   81MOL   O40138961   7.949   1.598   4.947 -0.5321  0.5588 -0.2192
   81MOL   H40238962   0.178   1.991   5.377 -1.1822 -2.3624  0.7023
   81MOL   H40338963   0.040   2.096   5.197 -0.0103 -0.6960  1.2837
   81MOL   H40438964   0.131   1.778   4.930  0.0583 -0.5565  0.1999
   81MOL   H40538965   0.275   1.667   5.105 -2.6191 -1.5101 -2.1775
   81MOL   H40638966   8.286   1.824   4.732 -0.4438  0.5818 -1.1062
   81MOL   H40738967   8.083   1.684   4.722  1.4815  0.4628 -0.9268
   81MOL   H40838968   8.041   1.739   5.148  0.9137  0.0414  0.9872
   81MOL   H40938969   8.214   1.903   5.152 -1.2897 -1.2711  1.0457
   81MOL   C41038970   8.069   1.390   4.994 -0.1402 -0.3587 -0.5600
   81MOL   C41138971   8.082   1.271   5.071 -0.5035  0.3923 -0.8057
   81MOL   C41238972   7.987   1.247   5.177 -0.8144  0.3087  0.0257
   81MOL   C41338973   7.884   1.337   5.200 -0.8528  1.2031 -0.4011
   81MOL   C41438974   7.885   1.462   5.131  0.4023  0.4024  0.1297
   81MOL   C41538975   7.969   1.484   5.022 -0.1704  1.4046 -0.3749
   81MOL   S41638976   7.996   1.092   5.266  0.3913  0.1196  0.0372
   81MOL   O41738977   7.948   0.988   5.175 -0.6172  0.5073 -0.2127
   81MOL   O41838978   7.931   1.105   5.397 -0.1370 -0.4627 -0.2376
   81MOL   C41938979   8.171   1.062   5.307 -0.1254 -0.3000 -0.1659
   81MOL   C42038980   8.236   0.952   5.268  0.4800  0.5198 -0.0795
   81MOL   C42138981   8.369   0.932   5.303 -0.4109  0.9021 -0.0798
   81MOL   C42238982   0.017   1.026   5.380  0.3302  0.2969 -0.0776
   81MOL   C42338983   8.372   1.131   5.427 -0.1984  0.1674 -0.6613
   81MOL   C42438984   8.236   1.148   5.391 -0.2021 -0.7872  1.0424
   81MOL   O42538985   0.142   1.012   5.424 -0.4093  0.1994 -0.2475
   81MOL   H42638986   8.142   1.407   4.916  0.4039 -1.8629 -0.4081
   81MOL   H42738987   8.150   1.190   5.048 -1.4720 -1.1496  1.5771
   81MOL   H42838988   7.811   1.316   5.276  0.4140 -2.2928 -0.0291
   81MOL   H42938989   7.805   1.532   5.153  0.3477  0.4590 -0.2500
   81MOL   H43038990   8.179   0.888   5.203  1.8419 -0.5159 -0.2763
   81MOL   H43138991   8.413   0.837   5.274  0.8186  1.2047  0.7812
   81MOL   H43238992   8.419   1.183   5.509 -1.8109 -0.5712  0.7642
   81MOL   H43338993   8.175   1.226   5.434  1.2481 -0.4828  2.5855
   81MOL   C43438994   0.251   1.056   5.218  0.0029 -0.6205 -0.6646
   81MOL   C43538995   0.347   1.030   5.121 -0.6000  0.8994 -0.0715
   81MOL   C43638996   0.430   0.917   5.144 -0.3922  0.1647  0.4549
   81MOL   C43738997   0.425   0.843   5.265  0.2412 -0.6940  0.3078
   81MOL   C43838998   0.322   0.866   5.354 -0.5346  0.3608  0.6192
   81MOL   C43938999   0.235   0.971   5.331  0.6031 -0.3708 -0.4681
   81MOL   S44039000   0.559   0.872   5.015 -0.0504 -0.1574 -0.3658
   81MOL   O44139001   0.656   0.983   5.007  0.0302  0.1101 -0.0708
   81MOL   O44239002   0.476   0.831   4.900 -0.2811  0.6276  0.5691
   81MOL   C44339003   0.641   0.725   5.069  0.3510  0.3902 -0.3182
   81MOL   C44439004   0.763   0.747   5.139 -0.8575 -0.2384  0.1793
   81MOL   C44539005   0.843   0.643   5.176 -0.0762  0.2177 -0.4568
   81MOL   C44639006   0.794   0.514   5.165 -0.2275  0.1946  0.1441
   81MOL   C44739007   0.670   0.488   5.094  1.1208 -0.3030 -0.4485
   81MOL   C44839008   0.590   0.595   5.043 -0.2026  0.8257 -0.0779
   81MOL   O44939009   0.855   0.412   5.236 -0.1586 -0.1381 -0.3447
   81MOL   H45039010   0.187   1.141   5.197 -0.2970 -1.2918 -2.5029
   81MOL   H45139011   0.370   1.096   5.039  2.4409 -0.4303 -0.3855
   81MOL   H45239012   0.500   0.770   5.289  0.5182 -0.8054 -0.8983
   81MOL   H45339013   0.328   0.804   5.442  0.9780  1.5088  1.3510
   81MOL   H45439014   0.795   0.850   5.147 -0.5041 -0.1897 -1.5846
   81MOL   H45539015   0.945   0.656   5.211  0.3062 -0.1052 -1.4088
   81MOL   H45639016   0.635   0.387   5.078  0.6272 -0.6732  2.7146
   81MOL   H45739017   0.490   0.577   5.007  1.1373 -1.4182 -2.8512
   81MOL   C45839018   0.847   0.517   5.454 -0.9632 -0.2505  0.5087
   81MOL   C45939019   0.917   0.558   5.574  0.1414  0.5421  0.4357
   81MOL   C46039020   1.045   0.520   5.595  0.3031  0.2823  0.6919
   81MOL   C46139021   1.115   0.438   5.504  0.4971  0.9227  0.0897
   81MOL   C46239022   1.050   0.394   5.384  0.3469 -0.0077  0.1394
   81MOL   C46339023   0.916   0.440   5.357  0.4635  0.1130  0.6623
   81MOL   S46439024   1.135   0.554   5.748  0.0765 -0.1731 -0.1511
   81MOL   O46539025   1.204   0.435   5.784 -0.0637  0.3590  0.4194
   81MOL   O46639026   1.039   0.610   5.845 -0.1899  0.1425 -0.1351
   81MOL   C46739027   1.247   0.687   5.705 -1.0154  0.1940  0.7133
   81MOL   C46839028   1.388   0.682   5.727 -0.2424  0.3349  0.3008
   81MOL   C46939029   1.474   0.788   5.685 -0.3116  0.6511 -0.2527
   81MOL   C47039030   1.414   0.908   5.630  0.1610 -0.0688  0.7818
   81MOL   C47139031   1.272   0.907   5.611  0.7639 -0.3932  0.0971
   81MOL   C47239032   1.190   0.799   5.643  0.1049  0.5800 -0.1587
   81MOL   O47339033   1.495   1.007   5.593 -0.4047 -0.4258 -0.0809
   81MOL   H47439034   0.748   0.553   5.432 -0.8928 -1.0136 -1.1328
   81MOL   H47539035   0.863   0.620   5.644 -0.5905 -0.3701  0.6942
   81MOL   H47639036   1.215   0.397   5.508 -0.6666 -2.4436 -2.7012
   81MOL   H47739037   1.099   0.346   5.300 -0.0128  2.3079 -1.4646
   81MOL   H47839038   1.427   0.590   5.766  2.4837  0.5516 -1.8197
   81MOL   H47939039   1.578   0.772   5.706  0.1909  2.0971 -1.6007
   81MOL   H48039040   1.239   0.998   5.563  1.5344  0.4686  1.1825
   81MOL   H48139041   1.086   0.800   5.612 -0.1798 -0.8004  0.6961
   81MOL   H48239042   1.446   1.075   5.548 -0.1607  0.7416  1.3862
   82MOL     C139043   3.396   6.881   1.398  0.4620  0.7902 -0.0129
   82MOL     C239044   3.464   6.972   1.308  0.4021 -0.2073  0.3265
   82MOL     C339045   3.447   7.109   1.337  0.2205  0.0862 -0.0195
   82MOL     C439046   3.368   7.160   1.442  0.5014 -0.6763 -0.1361
   82MOL     C539047   3.303   7.071   1.523  0.8298  0.0480 -0.0441
   82MOL     C639048   3.313   6.930   1.498 -0.3679  1.0729  0.1483
   82MOL     S739049   3.510   7.227   1.218  0.2395 -0.0490  0.2984
   82MOL     O839050   3.558   7.343   1.290  0.0930 -0.2163 -0.2366
   82MOL     O939051   3.403   7.238   1.115 -0.4485 -0.5718  0.7243
   82MOL    C1039052   3.651   7.155   1.145  0.3262 -0.4183  0.6179
   82MOL    C1139053   3.762   7.127   1.229  0.5159 -0.2732 -0.2094
   82MOL    C1239054   3.881   7.078   1.178  0.4153 -0.3305 -0.3374
   82MOL    C1339055   3.889   7.039   1.045 -0.0898  0.3233 -0.5459
   82MOL    C1439056   3.776   7.058   0.960 -0.3787 -0.5335 -0.2116
   82MOL    C1539057   3.656   7.112   1.011  0.8414 -0.0199 -0.2849
   82MOL    O1639058   4.008   6.984   0.998  0.2182  0.4921 -0.4790
   82MOL    H1739059   3.391   6.778   1.368 -0.9965  1.8630 -3.6942
   82MOL    H1839060   3.516   6.938   1.219 -2.0940 -0.3157 -1.1463
   82MOL    H1939061   3.351   7.267   1.443  1.3399 -0.5181 -1.0942
   82MOL    H2039062   3.237   7.119   1.594  0.4114  0.5184 -0.7467
   82MOL    H2139063   3.757   7.156   1.333 -0.3582 -1.5490  0.1240
   82MOL    H2239064   3.967   7.065   1.242 -0.6373  1.6783  1.5588
   82MOL    H2339065   3.777   7.022   0.858 -0.7330 -0.6100 -0.1918
   82MOL    H2439066   3.584   7.127   0.932  0.3747 -1.9116 -0.2493
   82MOL    H2539067   3.264   6.856   1.558 -2.6285  0.5738 -2.2279
   82MOL    C2639068   3.968   6.747   1.023 -0.8296  0.6818 -0.2454
   82MOL    C2739069   3.988   6.618   0.963 -0.0329  0.2627  0.1116
   82MOL    C2839070   4.044   6.608   0.838 -0.6367 -0.5601  0.5280
   82MOL    C2939071   4.090   6.724   0.765  0.7822 -0.1172 -0.7604
   82MOL    C3039072   4.080   6.849   0.826  0.1932  0.4014  0.0225
   82MOL    C3139073   4.020   6.859   0.952  0.2914 -0.7947  0.8344
   82MOL    S3239074   4.044   6.448   0.774  0.2195 -0.5450 -0.3701
   82MOL    O3339075   3.939   6.430   0.670 -0.1255 -0.4937  0.3641
   82MOL    O3439076   4.045   6.359   0.895 -0.0079 -0.1069  0.3907
   82MOL    C3539077   4.198   6.421   0.697  0.0455 -0.1110 -0.5065
   82MOL    C3639078   4.202   6.330   0.586  0.0949  0.0400  0.1715
   82MOL    C3739079   4.320   6.304   0.519 -0.1206  0.1266  0.0883
   82MOL    C3839080   4.440   6.357   0.583  0.1638 -0.8593 -0.1102
   82MOL    C3939081   4.437   6.427   0.706  0.0186 -0.2458  0.1533
   82MOL    C4039082   4.315   6.474   0.758 -0.2331 -0.2639  0.7569
   82MOL    O4139083   4.556   6.332   0.517 -0.8157  0.4030  0.4640
   82MOL    H4239084   3.927   6.756   1.122  0.8593 -0.0453  0.5405
   82MOL    H4339085   3.938   6.534   1.009  1.4704  0.0046  1.3298
   82MOL    H4439086   4.132   6.721   0.665  1.6646 -0.8627 -0.3732
   82MOL    H4539087   4.107   6.940   0.773 -1.3180 -1.1133 -3.5087
   82MOL    H4639088   4.108   6.300   0.543  0.8308 -1.4687 -0.4094
   82MOL    H4739089   4.320   6.243   0.430 -2.0250  1.4884 -0.8693
   82MOL    H4839090   4.524   6.464   0.758  1.2982 -0.4095 -1.8051
   82MOL    H4939091   4.310   6.539   0.844 -0.5031 -0.9832  1.2919
   82MOL    C5039092   4.709   6.176   0.439 -0.0209  0.0446  0.6893
   82MOL    C5139093   4.763   6.045   0.449  0.1244 -0.1856  0.2202
   82MOL    C5239094   4.762   5.975   0.575  0.4918 -0.5959  0.4302
   82MOL    C5339095   4.686   6.030   0.683  0.6129  0.2527  0.3715
   82MOL    C5439096   4.618   6.155   0.671 -0.2792  0.2037 -0.0035
   82MOL    C5539097   4.631   6.224   0.544  0.3776 -0.4992 -0.3545
   82MOL    S5639098   4.841   5.823   0.596  0.1155 -0.2925 -0.0825
   82MOL    O5739099   4.961   5.832   0.517 -0.0143 -0.1992  1.0595
   82MOL    O5839100   4.753   5.714   0.558  0.8692 -0.3307  0.7773
   82MOL    C5939101   4.890   5.800   0.767  1.2592  0.1315 -0.1509
   82MOL    C6039102   4.900   5.671   0.819  0.4543 -0.8234  0.5118
   82MOL    C6139103   4.942   5.647   0.952  0.0677  0.0215  0.5985
   82MOL    C6239104   4.957   5.754   1.036  0.2085  0.2960 -0.2907
   82MOL    C6339105   4.953   5.885   0.982  0.6700  0.2447  0.0772
   82MOL    C6439106   4.922   5.910   0.848  0.6224 -0.4287 -0.6151
   82MOL    O6539107   4.979   5.729   1.170 -0.2577 -0.0213  0.0744
   82MOL    H6639108   4.699   6.218   0.340 -0.3621  1.0133  1.1258
   82MOL    H6739109   4.799   6.001   0.357 -2.6012 -2.3040  0.0872
   82MOL    H6839110   4.677   5.970   0.771 -1.6890  0.1392  0.0837
   82MOL    H6939111   4.559   6.198   0.751 -1.2691 -0.9211 -0.1220
   82MOL    H7039112   4.875   5.597   0.745  1.0393  1.9122 -2.5093
   82MOL    H7139113   4.947   5.542   0.976 -0.5670 -0.0954  0.2289
   82MOL    H7239114   4.965   5.966   1.053 -2.5461  1.3735 -0.6052
   82MOL    H7339115   4.912   6.010   0.811 -0.2377 -0.2610  0.0447
   82MOL    C7439116   4.849   5.855   1.325  0.0097 -0.0639  0.4861
   82MOL    C7539117   4.844   5.945   1.436  0.1324 -0.9432 -0.2064
   82MOL    C7639118   4.966   6.010   1.473  0.1827  0.1116  0.5865
   82MOL    C7739119   5.084   5.981   1.404  0.1303  0.1075  0.0381
   82MOL    C7839120   5.090   5.889   1.305 -0.0693 -0.6577 -0.2322
   82MOL    C7939121   4.973   5.820   1.268  0.0844  0.0965  0.2417
   82MOL    S8039122   4.972   6.120   1.614  0.1474 -0.1735 -0.0251
   82MOL    O8139123   5.036   6.052   1.726 -0.5626  0.0386 -0.2303
   82MOL    O8239124   4.837   6.164   1.642  0.1514  0.0963 -0.5795
   82MOL    C8339125   5.083   6.258   1.553 -0.4986 -0.2613 -0.6161
   82MOL    C8439126   5.151   6.334   1.653  0.5011  0.5483  0.4253
   82MOL    C8539127   5.246   6.430   1.614  0.3001 -0.0365 -0.6883
   82MOL    C8639128   5.265   6.458   1.476 -0.5509  0.2238 -0.1199
   82MOL    C8739129   5.188   6.387   1.377  0.6415  0.0547  0.5029
   82MOL    C8839130   5.091   6.294   1.418  0.2046  0.0516  0.0895
   82MOL    O8939131   5.359   6.549   1.428  0.8133  0.2104 -0.1793
   82MOL    H9039132   4.760   5.808   1.287  0.6805 -2.5624  1.8889
   82MOL    H9139133   4.748   5.959   1.482 -0.4670 -3.1625 -0.6875
   82MOL    H9239134   5.176   6.032   1.431  0.6497 -1.7926  1.9524
   82MOL    H9339135   5.187   5.867   1.264  0.1032 -1.2596  0.4918
   82MOL    H9439136   5.135   6.308   1.756 -1.5856 -1.4503 -0.3496
   82MOL    H9539137   5.288   6.488   1.694 -1.0570  0.8653 -0.6126
   82MOL    H9639138   5.199   6.409   1.271  0.1053 -0.6492  0.2944
   82MOL    H9739139   5.023   6.249   1.347  0.7577  0.8130 -0.9505
   82MOL    C9839140   5.230   6.742   1.474 -0.1436 -0.4956  0.0788
   82MOL    C9939141   5.225   6.874   1.526  0.5150  0.4173 -0.2189
   82MOL   C10039142   5.336   6.942   1.583 -0.2894  0.0802  0.0941
   82MOL   C10139143   5.456   6.862   1.598  0.4116  0.3521  1.2379
   82MOL   C10239144   5.465   6.736   1.532 -0.9672  0.3912 -0.7210
   82MOL   C10339145   5.354   6.673   1.480  1.0682 -0.0283  0.8332
   82MOL   S10439146   5.303   7.103   1.659 -0.3864 -0.1324  0.1282
   82MOL   O10539147   5.407   7.130   1.763 -0.3199  0.1306 -0.1919
   82MOL   O10639148   5.162   7.107   1.705 -0.5107 -0.0842 -0.8446
   82MOL   C10739149   5.317   7.229   1.533 -0.3633  0.8272 -0.1480
   82MOL   C10839150   5.329   7.363   1.573 -0.0645  0.0403 -0.1074
   82MOL   C10939151   5.304   7.472   1.475 -0.0272  0.1889 -0.3258
   82MOL   C11039152   5.287   7.437   1.340  0.3830  1.2538 -0.1386
   82MOL   C11139153   5.273   7.300   1.303 -0.0217  0.0958  0.2192
   82MOL   C11239154   5.293   7.195   1.396  0.3104  0.1940  0.9869
   82MOL   O11339155   5.284   7.535   1.246 -0.3607  0.0644  0.3344
   82MOL   H11439156   5.142   6.695   1.433 -1.0155  0.8081  0.4328
   82MOL   H11539157   5.137   6.936   1.527 -0.2273 -0.6093 -0.7069
   82MOL   H11639158   5.540   6.901   1.654  1.4912 -0.7393  0.4040
   82MOL   H11739159   5.566   6.696   1.526 -0.4562  1.5014  0.2283
   82MOL   H11839160   5.353   7.385   1.676 -1.5902 -0.4454  0.3623
   82MOL   H11939161   5.301   7.575   1.507 -1.3413 -0.1933  0.8327
   82MOL   H12039162   5.257   7.283   1.197  1.2441  0.7130 -0.0756
   82MOL   H12139163   5.274   7.094   1.364  0.6045  0.0656  1.2101
   82MOL   C12239164   5.417   7.504   1.053  0.6801  0.4902 -0.3743
   82MOL   C12339165   5.533   7.537   0.974  0.3222  0.2526 -0.7415
   82MOL   C12439166   5.634   7.609   1.042 -0.4024  0.0843 -0.1938
   82MOL   C12539167   5.621   7.657   1.176 -0.2079 -0.0064 -0.5232
   82MOL   C12639168   5.508   7.622   1.244  1.2969  0.4076 -0.0152
   82MOL   C12739169   5.403   7.555   1.185 -0.6103  0.6949 -0.2150
   82MOL   S12839170   5.788   7.639   0.957 -0.0926 -0.1446 -0.2425
   82MOL   O12939171   5.825   7.517   0.885  0.5257  0.1718  0.1310
   82MOL   O13039172   5.890   7.684   1.058 -0.7436 -0.5571 -0.5812
   82MOL   C13139173   5.752   7.770   0.839  0.1489 -0.4138  0.6447
   82MOL   C13239174   5.818   7.764   0.715 -0.6378 -0.4976  0.2452
   82MOL   C13339175   5.802   7.867   0.623  0.8490  0.1936 -0.5578
   82MOL   C13439176   5.701   7.965   0.641 -0.6362  0.8311 -0.2741
   82MOL   C13539177   5.623   7.962   0.759  0.0172  0.7315 -0.0956
   82MOL   C13639178   5.662   7.876   0.862 -0.6755 -0.3137  0.2681
   82MOL   O13739179   5.687   8.069   0.547 -0.0159 -0.5573  0.3914
   82MOL   H13839180   5.347   7.436   1.008  0.1646  0.4882  0.4194
   82MOL   H13939181   5.545   7.497   0.874  0.4081 -2.1507  0.2075
   82MOL   H14039182   5.702   7.710   1.225  0.3564 -1.3325 -0.0083
   82MOL   H14139183   5.492   7.665   1.342 -0.0547 -0.4443  0.1512
   82MOL   H14239184   5.886   7.681   0.705 -0.0908 -0.4062  2.8930
   82MOL   H14339185   5.870   7.864   0.540 -0.2655  0.5253 -1.4831
   82MOL   H14439186   5.545   8.031   0.790 -0.1873  0.2589  0.4646
   82MOL   H14539187   5.625   7.879   0.964  1.2300  0.6240  0.9615
   82MOL   C14639188   5.869   8.087   0.383  0.1286  0.2069  0.7775
   82MOL   C14739189   5.898   8.067   0.251 -0.4012  0.2565 -0.4963
   82MOL   C14839190   5.801   8.028   0.151  0.0668 -0.3155  0.7932
   82MOL   C14939191   5.673   7.993   0.191 -0.6817 -0.2985 -0.3116
   82MOL   C15039192   5.639   8.005   0.327 -0.1950 -0.2600  0.4017
   82MOL   C15139193   5.734   8.053   0.421 -0.2401  0.7758  0.4534
   82MOL   S15239194   5.834   8.029   8.403  0.1689 -0.3671  0.5371
   82MOL   O15339195   5.857   8.173   8.369  0.1128 -0.0114 -0.0263
   82MOL   O15439196   5.735   7.950   8.328 -0.0642 -0.0540  0.3193
   82MOL   C15539197   6.001   7.954   8.379  0.4055  0.1533 -0.0440
   82MOL   C15639198   6.101   8.033   8.314 -0.0298  0.1769  0.2813
   82MOL   C15739199   6.228   7.975   8.294  0.3749 -1.5899 -0.5685
   82MOL   C15839200   6.257   7.845   8.326  0.6770  0.7506 -0.1122
   82MOL   C15939201   6.149   7.762   8.379 -0.1684 -0.0950 -0.3510
   82MOL   C16039202   6.017   7.814   8.399 -0.0741 -0.7396  0.1653
   82MOL   O16139203   6.381   7.794   8.307 -0.3458 -0.1363  0.2318
   82MOL   H16239204   5.946   8.121   0.450  1.9298 -1.9938 -0.1318
   82MOL   H16339205   5.999   8.087   0.216 -0.9344  1.0091 -1.6597
   82MOL   H16439206   5.610   7.964   0.108  1.1604 -1.4144 -1.3743
   82MOL   H16539207   5.537   7.986   0.355 -0.3124  1.5539  1.2494
   82MOL   H16639208   6.088   8.136   8.286  1.5893  0.7044  1.3965
   82MOL   H16739209   6.313   8.035   8.264 -1.1601  1.5423  1.0606
   82MOL   H16839210   6.176   7.659   8.394  3.1028  0.6322 -0.7505
   82MOL   H16939211   5.938   7.754   0.017  0.1592 -1.2517 -0.1063
   82MOL   C17039212   6.357   7.814   8.069  0.4998 -0.0503 -0.2051
   82MOL   C17139213   6.416   7.822   7.943  0.2515 -0.0539 -0.1797
   82MOL   C17239214   6.557   7.816   7.928  0.0822  0.3395  0.4167
   82MOL   C17339215   6.640   7.810   8.043  0.0397  0.7484  0.1270
   82MOL   C17439216   6.579   7.793   8.167  0.2696 -0.1796  0.1488
   82MOL   C17539217   6.440   7.804   8.187  0.1850 -0.0146  0.4724
   82MOL   S17639218   6.625   7.825   7.768 -0.0390 -0.0112  0.3581
   82MOL   O17739219   6.771   7.829   7.790  0.5011 -0.2382  0.1169
   82MOL   O17839220   6.556   7.941   7.702 -0.4091 -0.0840  0.5050
   82MOL   C17939221   6.567   7.680   7.677 -0.0142  0.7121 -0.9981
   82MOL   C18039222   6.468   7.699   7.579 -0.0803  0.5743  0.3181
   82MOL   C18139223   6.423   7.587   7.504  0.6697 -0.4428 -0.0485
   82MOL   C18239224   6.479   7.460   7.529  0.0306 -0.3597 -0.1481
   82MOL   C18339225   6.586   7.446   7.620 -0.2171  0.2915  0.7837
   82MOL   C18439226   6.625   7.555   7.699  0.4436  0.0344  0.2335
   82MOL   O18539227   6.449   7.352   7.447  0.3587 -0.0503 -0.1818
   82MOL   H18639228   6.249   7.807   8.072  0.5220  0.0687  1.3666
   82MOL   H18739229   6.350   7.845   7.860 -0.7453  0.6891  0.8018
   82MOL   H18839230   6.748   7.815   8.037  0.1313 -1.1057 -0.1745
   82MOL   H18939231   6.633   7.791   8.261 -0.9091  1.1236  0.8773
   82MOL   H19039232   6.441   7.802   7.560  0.5063  0.3612 -1.7650
   82MOL   H19139233   6.349   7.602   7.427  0.3803 -0.7721  0.1638
   82MOL   H19239234   6.631   7.348   7.630  0.5330  0.5479 -0.0209
   82MOL   H19339235   6.701   7.543   7.776  0.5615 -1.4299 -0.0989
   82MOL   C19439236   6.264   7.333   7.291 -0.0156  0.1915  0.5593
   82MOL   C19539237   6.138   7.287   7.248 -0.6264 -0.2655 -0.5364
   82MOL   C19639238   6.067   7.204   7.332  0.1655  0.2242 -0.0289
   82MOL   C19739239   6.118   7.182   7.466  0.2195 -0.4361 -0.1730
   82MOL   C19839240   6.244   7.241   7.504  0.0830 -0.5422  0.6987
   82MOL   C19939241   6.317   7.320   7.418 -0.2348  0.2272 -0.0466
   82MOL   S20039242   5.912   7.131   7.282  0.0935 -0.5404 -0.5242
   82MOL   O20139243   5.832   7.237   7.222  0.4391  0.1953 -0.0163
   82MOL   O20239244   5.860   7.061   7.401  0.6214 -0.3784 -0.1730
   82MOL   C20339245   5.945   7.006   7.155  0.0085  0.4297 -0.0600
   82MOL   C20439246   5.962   7.047   7.017 -0.5795  0.0220 -0.1256
   82MOL   C20539247   5.966   6.941   6.917  0.1253 -0.4332 -0.2768
   82MOL   C20639248   5.975   6.810   6.956  0.8147  0.9197 -0.1888
   82MOL   C20739249   5.964   6.773   7.092  0.6236 -0.7713 -0.3092
   82MOL   C20839250   5.938   6.869   7.189 -1.2950  0.4030 -0.4255
   82MOL   O20939251   5.981   6.710   6.858  0.1140 -0.5129 -0.0736
   82MOL   H21039252   6.325   7.392   7.224  0.8065  0.2419  1.3456
   82MOL   H21139253   6.105   7.296   7.146  1.0904 -0.4150 -1.1282
   82MOL   H21239254   6.057   7.131   7.538  1.9372 -1.2685  0.7273
   82MOL   H21339255   6.287   7.215   7.599 -1.4080 -2.3161  0.9072
   82MOL   H21439256   5.972   7.150   6.989 -0.2538 -0.0777 -0.3714
   82MOL   H21539257   5.982   6.959   6.811  0.9485 -1.5443 -0.3505
   82MOL   H21639258   5.950   6.668   7.113  1.3162 -0.6448  0.8232
   82MOL   H21739259   5.903   6.830   7.284 -1.3087 -1.6451 -1.2437
   82MOL   C21839260   6.130   6.538   6.783 -0.5610  0.8355  0.8440
   82MOL   C21939261   6.247   6.498   6.710  0.3035 -0.4572  1.0516
   82MOL   C22039262   6.348   6.597   6.683  0.3453 -0.1158 -0.6526
   82MOL   C22139263   6.319   6.733   6.702 -0.5693  0.0893 -0.2025
   82MOL   C22239264   6.195   6.770   6.763 -0.7821  0.7329  0.5185
   82MOL   C22339265   6.106   6.671   6.816 -0.1468  0.7776  0.0846
   82MOL   S22439266   6.507   6.547   6.606  0.1324 -0.4747 -0.3458
   82MOL   O22539267   6.585   6.447   6.694 -0.2243 -0.3965  0.2064
   82MOL   O22639268   6.566   6.673   6.564  0.3404 -0.0084  0.3882
   82MOL   C22739269   6.455   6.465   6.442  0.0989 -0.1607  0.4299
   82MOL   C22839270   6.346   6.507   6.373  0.0049 -0.1268 -0.2285
   82MOL   C22939271   6.312   6.443   6.251 -0.3339  0.2244 -0.3120
   82MOL   C23039272   6.388   6.332   6.201 -0.5342  0.2523  0.1337
   82MOL   C23139273   6.506   6.297   6.274  0.1100  0.0726 -0.6429
   82MOL   C23239274   6.538   6.358   6.392  0.8403 -0.4097  0.9025
   82MOL   O23339275   6.359   6.275   6.080 -0.3161 -0.7750  0.5742
   82MOL   H23439276   6.053   6.466   6.809 -2.3625  2.6236  0.5877
   82MOL   H23539277   6.268   6.392   6.701 -1.3871 -0.5927 -2.4804
   82MOL   H23639278   6.382   6.815   6.668 -3.7288  1.9878 -1.7825
   82MOL   H23739279   6.183   6.877   6.772 -0.9820  0.5498  2.8163
   82MOL   H23839280   6.285   6.590   6.406  1.0270  1.0103 -1.1802
   82MOL   H23939281   6.232   6.479   6.188 -1.6555  0.2935  1.3588
   82MOL   H24039282   6.572   6.221   6.235 -0.9222 -0.6970 -0.9088
   82MOL   H24139283   6.634   6.338   6.437  1.1784 -1.6174 -0.3289
   82MOL   C24239284   6.212   6.080   6.109  0.7294  0.1331 -0.6163
   82MOL   C24339285   6.201   5.944   6.101  0.1542 -0.0887 -0.4434
   82MOL   C24439286   6.306   5.860   6.050  0.0288 -0.3976 -0.5610
   82MOL   C24539287   6.427   5.914   6.018  0.7386  0.1831  0.6180
   82MOL   C24639288   6.442   6.053   6.030  0.0276 -0.0032  0.4739
   82MOL   C24739289   6.341   6.137   6.084 -0.1751  0.0084  0.3240
   82MOL   S24839290   6.282   5.675   6.017 -0.0119 -0.1458  0.2462
   82MOL   O24939291   6.405   5.641   5.941 -0.6072  0.2967  0.6205
   82MOL   O25039292   6.150   5.656   5.953  0.0313  0.1730 -0.1350
   82MOL   C25139293   6.284   5.578   6.160  0.4936  0.4222  0.3565
   82MOL   C25239294   6.357   5.616   6.274  0.1838  0.5738 -0.3739
   82MOL   C25339295   6.364   5.529   6.387 -0.4514 -0.5778 -0.2570
   82MOL   C25439296   6.290   5.409   6.383 -0.4050 -0.4701  0.2681
   82MOL   C25539297   6.210   5.376   6.267  0.0373  0.0028 -0.2873
   82MOL   C25639298   6.217   5.457   6.156 -0.7287 -0.3709  0.3160
   82MOL   O25739299   6.273   5.323   6.487  0.4989 -0.0130 -0.2807
   82MOL   H25839300   6.124   6.133   6.143  0.6803  1.1211 -2.2479
   82MOL   H25939301   6.103   5.909   6.128 -2.3600  2.2709 -5.6571
   82MOL   H26039302   6.502   5.852   5.970  2.0883 -0.7772  3.8783
   82MOL   H26139303   6.535   6.099   6.001 -0.4945  1.4542  1.0811
   82MOL   H26239304   6.399   5.715   6.272  0.2222  0.5385 -2.8038
   82MOL   H26339305   6.420   5.557   6.475  1.7144 -2.2653 -1.0502
   82MOL   H26439306   6.143   5.291   6.264 -0.1269  0.1826 -1.9751
   82MOL   H26539307   6.157   5.429   6.070 -0.8463 -1.7321  0.8206
   82MOL   C26639308   6.365   5.404   6.698 -0.1859  0.0046 -0.0568
   82MOL   C26739309   6.457   5.378   6.805  0.1359 -0.2924 -0.3358
   82MOL   C26839310   6.553   5.273   6.791  0.3622 -0.1104 -0.0911
   82MOL   C26939311   6.560   5.188   6.686  0.2794  0.0414  0.4883
   82MOL   C27039312   6.460   5.200   6.588 -0.8674 -0.1962  0.2678
   82MOL   C27139313   6.365   5.310   6.591 -0.3453 -0.5387 -0.6465
   82MOL   S27239314   6.677   5.237   6.921  0.3449 -0.0417 -0.0493
   82MOL   O27339315   6.729   5.098   6.897 -0.1704 -0.0197  0.2207
   82MOL   O27439316   6.612   5.270   7.051 -0.1056 -0.3137 -0.0547
   82MOL   C27539317   6.817   5.354   6.899 -0.4691 -0.0972  0.1437
   82MOL   C27639318   6.863   5.377   6.773 -0.5017 -0.4966 -0.1967
   82MOL   C27739319   6.976   5.462   6.748 -0.8405  0.3214 -0.0354
   82MOL   C27839320   7.042   5.511   6.858 -0.7255  0.8809 -0.1741
   82MOL   C27939321   7.007   5.484   6.991  0.0774 -0.3488  0.9977
   82MOL   C28039322   6.884   5.409   7.013 -0.3278 -0.1497 -0.6741
   82MOL   O28139323   7.154   5.591   6.852 -0.2257 -0.5612  0.1003
   82MOL   H28239324   6.296   5.486   6.708 -1.0337 -0.7398  0.2836
   82MOL   H28339325   6.469   5.449   6.886 -0.4788  2.0514 -2.2638
   82MOL   H28439326   6.633   5.109   6.687  0.8981  0.5797 -1.0159
   82MOL   H28539327   6.459   5.136   6.500  1.4119  0.2175 -0.0858
   82MOL   H28639328   6.804   5.339   6.690  0.5716 -1.5928 -0.4764
   82MOL   H28739329   7.004   5.496   6.649 -0.2852  0.6394  0.2254
   82MOL   H28839330   7.058   5.537   7.071  0.1566  1.3712 -0.1619
   82MOL   H28939331   6.846   5.403   7.113  2.4510 -1.6130  0.3628
   82MOL   C29039332   7.314   5.609   6.670 -0.7006  0.4282  0.2215
   82MOL   C29139333   7.342   5.659   6.545  0.2508 -0.8198  0.9302
   82MOL   C29239334   7.267   5.768   6.496  0.4482  0.8024  0.6590
   82MOL   C29339335   7.160   5.823   6.567  0.5101 -0.7920  0.3290
   82MOL   C29439336   7.127   5.763   6.690 -0.1624 -0.0616 -0.2915
   82MOL   C29539337   7.199   5.652   6.738  0.5605 -0.6603  0.4901
   82MOL   S29639338   7.313   5.834   6.334 -0.1868  0.2005  0.3167
   82MOL   O29739339   7.279   5.974   6.342 -0.3327 -0.3024  0.0442
   82MOL   O29839340   7.268   5.737   6.233  0.3687  0.2065  0.1820
   82MOL   C29939341   7.491   5.832   6.335 -0.9358  0.0973  0.3013
   82MOL   C30039342   7.558   5.803   6.215 -0.3075 -0.3570  0.1805
   82MOL   C30139343   7.698   5.807   6.208 -0.2714  0.2392  0.1385
   82MOL   C30239344   7.770   5.848   6.321 -0.7798  0.0561 -0.8852
   82MOL   C30339345   7.704   5.883   6.442  0.2582 -0.5118  0.6142
   82MOL   C30439346   7.566   5.870   6.449  0.3795  0.2333  0.2657
   82MOL   O30539347   7.902   5.872   6.312  0.2267 -0.1682 -0.7994
   82MOL   H30639348   7.362   5.523   6.715  1.0816  1.6562  0.7309
   82MOL   H30739349   7.424   5.618   6.489  1.1697 -1.1864  2.5158
   82MOL   H30839350   7.109   5.913   6.535  2.4894 -0.2971 -1.5591
   82MOL   H30939351   7.041   5.786   6.751 -0.8064 -1.2385 -0.7402
   82MOL   H31039352   7.502   5.779   6.125 -1.3778 -1.5359  1.1411
   82MOL   H31139353   7.750   5.781   6.117  0.2173  0.5023  0.3346
   82MOL   H31239354   7.760   5.926   6.524  1.9256 -1.4805 -0.0061
   82MOL   H31339355   7.510   5.917   6.529  0.0977  1.0897 -0.4309
   82MOL   C31439356   8.007   5.966   6.121 -0.3735 -0.2248 -0.1350
   82MOL   C31539357   8.021   6.069   6.033  0.6134  0.0849 -0.2540
   82MOL   C31639358   7.976   6.196   6.069 -0.6128  0.5003 -0.0389
   82MOL   C31739359   7.907   6.216   6.192 -0.1578 -0.5898  0.7397
   82MOL   C31839360   7.873   6.110   6.269 -0.3189  0.2461 -0.1113
   82MOL   C31939361   7.941   5.986   6.245 -0.2366 -0.2957  0.6655
   82MOL   S32039362   8.007   6.328   5.958  0.0093 -0.0333  0.6174
   82MOL   O32139363   7.878   6.353   5.884 -0.1919 -0.0455  0.2047
   82MOL   O32239364   8.124   6.291   5.880 -0.5375 -0.2166 -0.5754
   82MOL   C32339365   8.045   6.467   6.062 -0.3188  0.4372 -0.1185
   82MOL   C32439366   8.002   6.590   6.022  0.3200 -0.2808 -0.0514
   82MOL   C32539367   8.010   6.694   6.117 -0.4484 -0.2398 -0.2414
   82MOL   C32639368   8.078   6.677   6.241 -0.6913 -0.3037 -0.0122
   82MOL   C32739369   8.128   6.548   6.275 -0.6255 -0.1013  0.3463
   82MOL   C32839370   8.112   6.443   6.185  0.6834  0.0214  0.1397
   82MOL   O32939371   8.089   6.783   6.320  0.0776  0.0097  0.3840
   82MOL   H33039372   8.033   5.865   6.091 -0.1390 -0.2168  0.0399
   82MOL   H33139373   8.061   6.048   5.934 -0.7910  1.5106 -1.1599
   82MOL   H33239374   7.862   6.310   6.221 -1.7892 -1.2059  0.2303
   82MOL   H33339375   7.808   6.115   6.355  1.4500  2.1220  1.1752
   82MOL   H33439376   7.968   6.609   5.921  2.4777  1.5721 -0.4822
   82MOL   H33539377   7.989   6.795   6.084 -0.1338 -0.4381 -1.0390
   82MOL   H33639378   8.174   6.531   6.371 -1.8175  0.5580  1.0415
   82MOL   H33739379   8.151   6.345   6.209 -0.4825 -0.6614 -0.6796
   82MOL   C33839380   7.876   6.798   6.435 -0.0927 -0.2318  0.6392
   82MOL   C33939381   7.798   6.790   6.551 -0.3194  0.6842 -1.3977
   82MOL   C34039382   7.853   6.755   6.673 -0.0017 -0.2750 -0.1104
   82MOL   C34139383   7.996   6.742   6.678 -0.6924 -0.4140  0.6578
   82MOL   C34239384   8.078   6.751   6.562 -0.1875  0.0366  0.0605
   82MOL   C34339385   8.016   6.781   6.438 -0.2340 -0.3384  0.1435
   82MOL   S34439386   7.740   6.723   6.811  0.1550 -0.2446  0.1626
   82MOL   O34539387   7.629   6.815   6.794 -0.1404 -0.1899  0.1958
   82MOL   O34639388   7.827   6.731   6.931  0.2791 -0.0079 -0.1417
   82MOL   C34739389   7.678   6.550   6.801 -0.5864 -0.0654 -0.6744
   82MOL   C34839390   7.703   6.473   6.685  0.5773 -0.1207  0.5431
   82MOL   C34939391   7.633   6.346   6.664 -0.1783  0.5077  0.2060
   82MOL   C35039392   7.546   6.307   6.763  0.8437  0.2276 -0.4027
   82MOL   C35139393   7.526   6.382   6.880 -0.0407  0.3402 -0.2057
   82MOL   C35239394   7.599   6.495   6.901 -0.7314  0.6961  0.1205
   82MOL   O35339395   7.467   6.201   6.739 -0.3801 -0.1221  0.2429
   82MOL   H35439396   7.832   6.808   6.337 -2.1144 -0.2938  1.5197
   82MOL   H35539397   7.691   6.778   6.541 -0.1375 -0.9048 -1.5051
   82MOL   H35639398   8.031   6.723   6.778 -1.5080 -1.5673  0.7403
   82MOL   H35739399   8.186   6.744   6.568 -0.2470 -0.1151  0.9828
   82MOL   H35839400   7.777   6.496   6.610  0.1454  1.2081  0.5170
   82MOL   H35939401   7.652   6.288   6.575 -3.5177 -0.6839  0.1849
   82MOL   H36039402   7.460   6.345   6.958  0.0094 -0.6436 -0.6114
   82MOL   H36139403   7.574   6.543   6.995  1.2312 -1.0967  1.5878
   82MOL   C36239404   7.318   6.188   6.548 -0.0884  0.2075 -0.3853
   82MOL   C36339405   7.188   6.213   6.494 -0.5581 -0.6757 -0.6113
   82MOL   C36439406   7.084   6.262   6.575  0.1737  0.3095 -0.2009
   82MOL   C36539407   7.110   6.287   6.712 -0.5430 -0.4324 -0.1994
   82MOL   C36639408   7.238   6.276   6.765  0.2124 -0.3677  0.0347
   82MOL   C36739409   7.344   6.223   6.681 -0.3961  0.3938 -0.6199
   82MOL   S36839410   6.921   6.297   6.510  0.2690 -0.1087 -0.0394
   82MOL   O36939411   6.830   6.280   6.623 -0.6824 -0.2576  0.0515
   82MOL   O37039412   6.900   6.213   6.387 -0.0527  0.2927  0.1921
   82MOL   C37139413   6.923   6.468   6.471  0.1077 -0.4255 -0.3888
   82MOL   C37239414   6.850   6.562   6.543 -0.5617 -0.5292  0.6083
   82MOL   C37339415   6.851   6.699   6.506  0.0235 -0.1081 -0.2860
   82MOL   C37439416   6.912   6.742   6.385  0.6689  0.3887  0.5439
   82MOL   C37539417   6.989   6.647   6.319  0.4045  0.3435  0.6527
   82MOL   C37639418   6.996   6.518   6.359  0.0479 -0.0370  0.2055
   82MOL   O37739419   6.913   6.870   6.339 -0.5432 -0.2012 -0.1048
   82MOL   H37839420   7.405   6.153   6.494  0.7429  1.3564  0.1906
   82MOL   H37939421   7.159   6.182   6.395  0.1100 -0.4241 -0.8870
   82MOL   H38039422   7.036   6.329   6.778 -0.4156  0.1826 -0.4425
   82MOL   H38139423   7.252   6.303   6.868 -2.4581  0.7140  0.1709
   82MOL   H38239424   6.808   6.528   6.637 -1.2527  1.4888  1.0680
   82MOL   H38339425   6.813   6.782   6.564  1.6324  1.0456 -0.8450
   82MOL   H38439426   7.033   6.679   6.226 -1.7428  0.9034 -0.2172
   82MOL   H38539427   7.062   6.455   6.301 -0.0261 -0.1316  0.2250
   82MOL   C38639428   6.813   7.027   6.499  0.3088  0.3247 -0.5219
   82MOL   C38739429   6.699   7.084   6.549  0.2445  0.2203  0.1063
   82MOL   C38839430   6.584   7.100   6.468  0.3127 -0.7032  0.2107
   82MOL   C38939431   6.580   7.054   6.339  0.0412 -0.3384 -0.6860
   82MOL   C39039432   6.692   6.974   6.300 -0.2337  0.0050  0.4044
   82MOL   C39139433   6.811   6.957   6.374 -0.1399 -0.0800 -0.2838
   82MOL   S39239434   6.441   7.184   6.546  0.0418  0.0381 -0.1350
   82MOL   O39339435   6.423   7.322   6.495 -0.7528 -0.6558  1.0367
   82MOL   O39439436   6.452   7.177   6.694  0.6697  0.1572  0.1399
   82MOL   C39539437   6.295   7.089   6.499  0.5142  0.1222 -0.2023
   82MOL   C39639438   6.172   7.156   6.501  0.2978 -0.4990 -0.0943
   82MOL   C39739439   6.056   7.078   6.478 -0.1781  0.4516  0.3982
   82MOL   C39839440   6.061   6.944   6.428  0.6951  0.4273  0.2519
   82MOL   C39939441   6.183   6.884   6.424  0.1063 -0.4116  0.5054
   82MOL   C40039442   6.302   6.955   6.456  0.4267  0.3328  0.3572
   82MOL   O40139443   5.952   6.866   6.403  0.4129  0.3908 -0.1259
   82MOL   H40239444   6.902   7.014   6.558 -0.5615  1.4214  1.0405
   82MOL   H40339445   6.698   7.131   6.646 -0.3528 -1.4548  0.9355
   82MOL   H40439446   6.498   7.080   6.274 -0.5732 -0.7388 -0.0625
   82MOL   H40539447   6.695   6.925   6.204  2.8476  0.3495  0.2650
   82MOL   H40639448   6.157   7.256   6.539 -2.6291 -1.7775  2.3271
   82MOL   H40739449   5.959   7.126   6.487 -0.7401 -0.6555  0.3880
   82MOL   H40839450   6.181   6.781   6.392 -0.2635 -0.1793 -0.2220
   82MOL   H40939451   6.392   6.895   6.465 -0.6844 -1.2477  1.2661
   82MOL   C41039452   5.847   6.753   6.590 -0.7787 -0.7314 -0.5233
   82MOL   C41139453   5.745   6.749   6.687  0.3389 -0.4411  0.4604
   82MOL   C41239454   5.655   6.851   6.700 -0.6127  0.4609 -0.2015
   82MOL   C41339455   5.659   6.959   6.613  0.4202  0.5925 -0.0215
   82MOL   C41439456   5.754   6.963   6.509 -0.1207  0.2962  0.0444
   82MOL   C41539457   5.856   6.865   6.503 -0.1921  0.0005 -0.7981
   82MOL   S41639458   5.525   6.854   6.821  0.2524  0.2732  0.0436
   82MOL   O41739459   5.572   6.777   6.936 -0.1223 -0.0498 -0.3065
   82MOL   O41839460   5.395   6.827   6.762  0.1928  0.2482 -0.0512
   82MOL   C41939461   5.513   7.023   6.886 -0.1572  0.0423 -0.6225
   82MOL   C42039462   5.618   7.080   6.957 -0.6237  0.2880  0.8108
   82MOL   C42139463   5.611   7.216   6.983  0.3289 -0.2130  0.4862
   82MOL   C42239464   5.494   7.290   6.943 -0.3130 -0.4008 -0.1308
   82MOL   C42339465   5.387   7.229   6.878  0.6632  0.7459 -0.1886
   82MOL   C42439466   5.400   7.097   6.850  0.5362  0.3555 -0.4125
   82MOL   O42539467   5.490   7.423   6.965  0.4467 -0.4676  0.1997
   82MOL   H42639468   5.930   6.684   6.585  0.8373  1.1786 -1.0150
   82MOL   H42739469   5.727   6.665   6.753 -0.1041  0.8173  1.9870
   82MOL   H42839470   5.582   7.034   6.618 -0.3093 -0.0696 -0.9911
   82MOL   H42939471   5.737   7.037   6.431 -1.2112  0.6653  0.6164
   82MOL   H43039472   5.710   7.027   6.976  0.1252  1.3839  0.3567
   82MOL   H43139473   5.690   7.276   7.025  0.6588 -0.2075 -0.1361
   82MOL   H43239474   5.300   7.280   6.841 -1.3441 -1.2430  1.6642
   82MOL   H43339475   5.315   7.060   6.795  0.0945 -1.1764  1.2650
   82MOL   C43439476   5.408   7.607   7.095 -0.3099 -0.0585 -1.0551
   82MOL   C43539477   5.379   7.669   7.215  0.1694 -0.0350  0.8843
   82MOL   C43639478   5.390   7.602   7.335 -0.7510  0.3936  0.5060
   82MOL   C43739479   5.420   7.463   7.332  0.2554 -0.2956 -0.2192
   82MOL   C43839480   5.460   7.399   7.209 -0.7340 -0.2641 -1.0742
   82MOL   C43939481   5.457   7.475   7.090  0.4412 -0.0681  0.2257
   82MOL   S44039482   5.349   7.689   7.488 -0.0737 -0.0439  0.0365
   82MOL   O44139483   5.432   7.810   7.479 -0.2819 -0.0768  0.0497
   82MOL   O44239484   5.374   7.597   7.605  0.5103  0.0375  0.7138
   82MOL   C44339485   5.176   7.728   7.480 -0.0676 -0.7140  0.6095
   82MOL   C44439486   5.092   7.695   7.590  0.4650  0.0853  0.1757
   82MOL   C44539487   4.960   7.750   7.597  0.0034 -0.3971 -0.2860
   82MOL   C44639488   4.913   7.841   7.500  0.1879 -0.0930  0.1748
   82MOL   C44739489   5.004   7.877   7.395  0.3471  0.2034 -0.5142
   82MOL   C44839490   5.131   7.827   7.384  0.0772  0.2533  0.1172
   82MOL   O44939491   4.795   7.907   7.517  0.4539 -0.2100  0.1742
   82MOL   H45039492   5.396   7.645   6.994 -0.6974 -2.5259 -1.9632
   82MOL   H45139493   5.364   7.776   7.214 -1.0433 -0.2070 -0.6997
   82MOL   H45239494   5.425   7.402   7.421  1.8272 -0.1868 -0.2165
   82MOL   H45339495   5.476   7.292   7.211  0.7187 -0.0505 -0.2783
   82MOL   H45439496   5.133   7.633   7.668 -1.6577  1.3005  2.3445
   82MOL   H45539497   4.891   7.735   7.678  0.0031  1.0807  0.0111
   82MOL   H45639498   4.973   7.955   7.327  1.1312 -0.0463 -1.1676
   82MOL   H45739499   5.206   7.873   7.321 -2.0750  1.7425 -1.4441
   82MOL   C45839500   4.633   7.990   7.368  0.1439  0.1929 -0.2076
   82MOL   C45939501   4.523   7.972   7.281 -0.1582 -0.0928  0.3021
   82MOL   C46039502   4.489   7.841   7.249  0.0212  0.7641  0.3141
   82MOL   C46139503   4.558   7.732   7.308  0.4314 -0.3071  0.1044
   82MOL   C46239504   4.662   7.755   7.398  0.2981  0.1975 -0.2577
   82MOL   C46339505   4.697   7.884   7.431 -0.3079  0.3503  0.1297
   82MOL   S46439506   4.362   7.811   7.130 -0.0048  0.4790  0.4788
   82MOL   O46539507   4.320   7.941   7.078 -0.0405  0.2752  0.0842
   82MOL   O46639508   4.264   7.732   7.202  0.2995 -0.0466  0.1155
   82MOL   C46739509   4.445   7.711   7.002  0.0340 -0.1889 -0.6538
   82MOL   C46839510   4.425   7.572   7.000  0.0829  0.0104  1.0688
   82MOL   C46939511   4.501   7.489   6.920 -0.7863  0.0624  0.1149
   82MOL   C47039512   4.588   7.547   6.819  0.1529  0.2103  0.1854
   82MOL   C47139513   4.610   7.685   6.827 -0.5393  0.2951  0.3944
   82MOL   C47239514   4.544   7.767   6.921  0.2197  0.3681 -1.2810
   82MOL   O47339515   4.650   7.473   6.726  0.1187 -0.2144  0.8612
   82MOL   H47439516   4.669   8.092   7.376  0.1785  0.1543  0.1087
   82MOL   H47539517   4.473   8.057   7.238  0.4472 -0.0429 -0.3042
   82MOL   H47639518   4.531   7.632   7.277 -1.1869  0.5659 -1.4161
   82MOL   H47739519   4.709   7.662   7.429  0.9101  1.0312  1.3540
   82MOL   H47839520   4.358   7.527   7.072  0.0318 -0.9883  0.4155
   82MOL   H47939521   4.475   7.385   6.928  1.9564 -0.7587 -1.0959
   82MOL   H48039522   4.662   7.733   6.746 -1.0336  2.0773  1.1261
   82MOL   H48139523   4.567   7.873   6.913 -0.6866  0.5224 -1.7946
   82MOL   H48239524   4.611   7.387   6.718 -0.9652  0.3771 -0.2578
   83MOL     C139525   3.927   3.076   5.872  0.2485 -0.0482 -0.0267
   83MOL     C239526   3.791   3.100   5.919 -0.1372  0.8613 -0.2773
   83MOL     C339527   3.711   3.193   5.856  0.5989 -0.4241 -0.1303
   83MOL     C439528   3.761   3.280   5.757 -0.2858  0.4234  0.4525
   83MOL     C539529   3.897   3.274   5.718  0.0865  0.7583  0.1955
   83MOL     C639530   3.979   3.164   5.772 -0.1145  0.3428  0.1567
   83MOL     S739531   3.541   3.212   5.906  0.1648  0.0287  0.2159
   83MOL     O839532   3.523   3.353   5.943  0.2626 -0.3932 -0.3401
   83MOL     O939533   3.507   3.109   6.007 -0.0644 -0.6385  0.5978
   83MOL    C1039534   3.444   3.172   5.758  0.5872 -0.0303 -0.1598
   83MOL    C1139535   3.449   3.041   5.698  0.0927  0.2045 -0.3558
   83MOL    C1239536   3.396   3.021   5.568  0.0089  0.6634 -0.4555
   83MOL    C1339537   3.326   3.126   5.503 -0.5947  0.4683 -0.1872
   83MOL    C1439538   3.314   3.248   5.572 -0.3068  0.5314 -0.0652
   83MOL    C1539539   3.378   3.273   5.694  0.3674  0.2918 -0.0449
   83MOL    O1639540   3.275   3.101   5.378  0.4007 -0.6794  0.8030
   83MOL    H1739541   3.990   2.999   5.914  0.8203  0.5820  0.2831
   83MOL    H1839542   3.745   3.041   5.996 -0.2607  2.5510  0.9602
   83MOL    H1939543   3.697   3.360   5.721 -2.5017 -0.7286  1.6967
   83MOL    H2039544   3.938   3.321   5.630  0.6077  1.2651  0.7048
   83MOL    H2139545   3.498   2.956   5.743  0.9822  0.5449 -0.6568
   83MOL    H2239546   3.418   2.928   5.517 -1.1215  0.6269 -0.9090
   83MOL    H2339547   3.251   3.330   5.541  0.7810  1.8067  1.0429
   83MOL    H2439548   3.377   3.370   5.742 -1.2332 -0.2415  1.0582
   83MOL    H2539549   4.081   3.151   5.738 -0.1674  0.6506 -0.1254
   83MOL    C2639550   3.239   3.248   5.187 -0.7844 -0.5546  0.0227
   83MOL    C2739551   3.163   3.351   5.122  0.1064  0.5802 -0.3508
   83MOL    C2839552   3.045   3.398   5.188 -0.0279 -0.0297 -0.5043
   83MOL    C2939553   2.993   3.338   5.303 -0.8113  0.3517  0.5443
   83MOL    C3039554   3.071   3.235   5.365 -0.3454 -0.0341  0.2712
   83MOL    C3139555   3.196   3.192   5.309  0.4234 -0.2452 -0.2852
   83MOL    S3239556   2.976   3.548   5.127  0.2036  0.1993  0.0030
   83MOL    O3339557   2.859   3.513   5.047 -0.0383 -0.3063  0.7439
   83MOL    O3439558   3.076   3.628   5.060  0.0024 -0.0435  0.1168
   83MOL    C3539559   2.911   3.635   5.268 -0.1509 -0.4046  0.0755
   83MOL    C3639560   2.801   3.582   5.335  0.3130 -0.2890  0.0525
   83MOL    C3739561   2.739   3.644   5.449 -0.6075  1.1440 -0.4582
   83MOL    C3839562   2.801   3.762   5.501  0.6980  0.6189 -0.3226
   83MOL    C3939563   2.915   3.812   5.435  0.6015 -0.3075  0.7893
   83MOL    C4039564   2.971   3.746   5.320 -0.3241  0.0518  0.5973
   83MOL    O4139565   2.764   3.817   5.623  0.1773 -0.8417 -0.7334
   83MOL    H4239566   3.334   3.217   5.145  0.1754 -1.6915  2.9294
   83MOL    H4339567   3.202   3.403   5.035 -0.3462  1.0279 -0.2903
   83MOL    H4439568   2.896   3.373   5.337 -0.7631 -0.2415  1.3242
   83MOL    H4539569   3.030   3.194   5.456  0.9539 -1.0999  0.3972
   83MOL    H4639570   2.747   3.501   5.287 -0.2779  0.6227 -0.8622
   83MOL    H4739571   2.649   3.601   5.491 -0.4394 -1.4508 -2.6016
   83MOL    H4839572   2.971   3.896   5.474 -1.9138  0.3005  3.2536
   83MOL    H4939573   3.058   3.788   5.272  0.1671  0.6444  1.9603
   83MOL    C5039574   2.641   3.743   5.818 -0.5260  0.2046 -0.2335
   83MOL    C5139575   2.515   3.725   5.884 -0.5452 -0.1104 -0.4270
   83MOL    C5239576   2.397   3.757   5.815  0.0007 -0.4999  0.2168
   83MOL    C5339577   2.400   3.801   5.685 -0.4426  0.0031  0.5484
   83MOL    C5439578   2.519   3.820   5.618  0.0877  0.3757  0.0984
   83MOL    C5539579   2.641   3.792   5.683 -0.2936 -0.6027  0.6428
   83MOL    S5639580   2.233   3.740   5.892  0.0696  0.4256 -0.1858
   83MOL    O5739581   2.164   3.627   5.826  0.5722 -0.3764 -0.3872
   83MOL    O5839582   2.176   3.876   5.892  0.1168  0.2917 -0.5339
   83MOL    C5939583   2.262   3.686   6.061  0.1666  0.2479  0.7464
   83MOL    C6039584   2.246   3.771   6.174 -0.2957 -0.0081  0.3182
   83MOL    C6139585   2.288   3.738   6.301 -0.1307  0.8007  0.3902
   83MOL    C6239586   2.344   3.614   6.321  0.1303  0.4339 -0.9598
   83MOL    C6339587   2.360   3.526   6.219 -0.3473  0.7247  0.4856
   83MOL    C6439588   2.311   3.558   6.092 -0.5322  0.4227  0.2895
   83MOL    O6539589   2.381   3.584   6.448  0.1411 -0.3670  0.5881
   83MOL    H6639590   2.730   3.730   5.878 -2.7291 -1.5645  2.7614
   83MOL    H6739591   2.516   3.714   5.991  1.2541  2.2081 -0.1741
   83MOL    H6839592   2.306   3.822   5.636 -0.2832  0.0387  0.2561
   83MOL    H6939593   2.509   3.870   5.523  0.6269 -0.4529 -0.3952
   83MOL    H7039594   2.183   3.856   6.151  0.3580  0.6667  1.0001
   83MOL    H7139595   2.260   3.808   6.378 -1.2170 -0.1687  0.9028
   83MOL    H7239596   2.385   3.421   6.230  2.3325  1.1152 -1.2950
   83MOL    H7339597   2.299   3.484   6.015  0.4128  1.1561 -0.5680
   83MOL    C7439598   2.173   3.470   6.515 -0.3190 -0.1431  0.2260
   83MOL    C7539599   2.107   3.381   6.599 -0.0420 -0.8654 -1.0429
   83MOL    C7639600   2.177   3.304   6.693 -0.4818  0.2074 -0.1833
   83MOL    C7739601   2.321   3.307   6.690 -0.5460 -1.0446  0.3253
   83MOL    C7839602   2.388   3.396   6.602 -0.2168  1.7994 -0.1549
   83MOL    C7939603   2.314   3.479   6.510  0.4047  0.4267 -0.4731
   83MOL    S8039604   2.087   3.191   6.794 -0.3571  0.1113  0.2914
   83MOL    O8139605   1.948   3.186   6.755  0.6109  0.3072  0.0185
   83MOL    O8239606   2.117   3.219   6.936 -0.2365 -0.7232  0.5246
   83MOL    C8339607   2.166   3.037   6.746 -0.7181 -0.2119 -0.5063
   83MOL    C8439608   2.105   2.949   6.650 -0.2613  0.6955 -0.1391
   83MOL    C8539609   2.171   2.824   6.619  0.0050 -0.5533 -0.3474
   83MOL    C8639610   2.302   2.791   6.666  0.1896 -0.6491  0.0412
   83MOL    C8739611   2.364   2.884   6.758 -0.1647  0.2152 -0.5143
   83MOL    C8839612   2.291   2.998   6.800 -0.3160  0.3172 -0.4439
   83MOL    O8939613   2.350   2.664   6.649 -0.8074  0.3532  0.2273
   83MOL    H9039614   2.110   3.536   6.457 -1.4990 -2.5202 -1.3020
   83MOL    H9139615   2.000   3.372   6.610  0.2492 -0.6063  2.4414
   83MOL    H9239616   2.369   3.245   6.764 -0.4706 -1.3986 -0.0163
   83MOL    H9339617   2.496   3.403   6.600 -0.1920  1.3220 -1.4070
   83MOL    H9439618   2.004   2.976   6.622  0.7680  2.9809 -1.7398
   83MOL    H9539619   2.131   2.758   6.543  2.0970 -0.4253 -1.6241
   83MOL    H9639620   2.465   2.868   6.791 -0.2717 -0.4648 -0.5078
   83MOL    H9739621   2.323   3.068   6.875  1.3997 -1.8668  0.9124
   83MOL    C9839622   2.331   2.491   6.494 -0.5568  0.3439  0.0876
   83MOL    C9939623   2.347   2.445   6.362 -0.6494  0.6591  0.1580
   83MOL   C10039624   2.396   2.529   6.256 -0.6309 -0.5760  0.0629
   83MOL   C10139625   2.430   2.661   6.294 -0.0531  0.4846  0.8431
   83MOL   C10239626   2.421   2.709   6.424  0.1792 -0.0748  0.1326
   83MOL   C10339627   2.364   2.621   6.521 -0.2580 -0.3185  0.8529
   83MOL   S10439628   2.411   2.464   6.089  0.1326  0.2292 -0.3301
   83MOL   O10539629   2.305   2.359   6.073 -0.2302  0.2510 -0.4158
   83MOL   O10639630   2.555   2.431   6.072  0.1586 -0.1179 -0.1745
   83MOL   C10739631   2.367   2.591   5.971  0.5267 -0.3870 -0.1183
   83MOL   C10839632   2.284   2.699   6.011  0.4364  0.8979  0.7357
   83MOL   C10939633   2.239   2.790   5.912  0.6391  0.2831 -0.1187
   83MOL   C11039634   2.268   2.776   5.779  0.2297  0.2379 -0.1296
   83MOL   C11139635   2.357   2.670   5.742 -0.0076  0.2056  0.7767
   83MOL   C11239636   2.406   2.571   5.836 -0.0763  0.0987  0.2495
   83MOL   O11339637   2.221   2.864   5.688 -0.9076  0.4997  0.2868
   83MOL   H11439638   2.288   2.425   6.568  0.5459  0.0783  0.5149
   83MOL   H11539639   2.314   2.347   6.332 -0.9248  1.0207 -0.7415
   83MOL   H11639640   2.471   2.720   6.214  0.0862  0.0071  0.5579
   83MOL   H11739641   2.445   2.813   6.440 -0.3337 -0.1402  1.3982
   83MOL   H11839642   2.246   2.715   6.110 -1.4899  0.1941  0.1360
   83MOL   H11939643   2.172   2.871   5.934 -1.2829 -1.2035 -0.3406
   83MOL   H12039644   2.394   2.664   5.641 -1.8251  1.2397  0.0430
   83MOL   H12139645   2.464   2.491   5.792 -0.9754 -0.9493  0.9493
   83MOL   C12239646   2.427   2.988   5.657 -0.2935  0.2649 -0.0587
   83MOL   C12339647   2.498   3.108   5.624 -0.1368  0.0302 -1.2021
   83MOL   C12439648   2.423   3.224   5.630  0.0077 -0.3804  0.3722
   83MOL   C12539649   2.286   3.224   5.659 -0.6858 -0.0090 -0.4637
   83MOL   C12639650   2.214   3.104   5.678 -0.6058  0.1570  0.0620
   83MOL   C12739651   2.288   2.983   5.683  0.0638 -0.0066 -0.3028
   83MOL   S12839652   2.507   3.376   5.592  0.5623  0.1498  0.3397
   83MOL   O12939653   2.643   3.343   5.546 -0.4018 -0.4199 -0.8025
   83MOL   O13039654   2.484   3.462   5.707 -0.0867  0.4542 -0.0054
   83MOL   C13139655   2.418   3.442   5.452 -0.3582  0.8382  0.0338
   83MOL   C13239656   2.335   3.549   5.472 -0.5813  0.0486 -0.5044
   83MOL   C13339657   2.288   3.621   5.364 -0.0895 -0.5711  0.8651
   83MOL   C13439658   2.315   3.575   5.234  0.0474  0.1470  1.0114
   83MOL   C13539659   2.401   3.465   5.215  0.5824 -0.7228  0.4346
   83MOL   C13639660   2.459   3.403   5.327 -0.2802 -0.3985 -0.4683
   83MOL   O13739661   2.268   3.640   5.123 -0.3913 -0.2697  0.5392
   83MOL   H13839662   2.483   2.897   5.667  0.4898  0.8960  1.3792
   83MOL   H13939663   2.604   3.111   5.603  0.1182  3.5514  0.3287
   83MOL   H14039664   2.223   3.311   5.653 -1.1957 -0.2220  1.4169
   83MOL   H14139665   2.109   3.105   5.704 -0.5801 -1.2786  0.2813
   83MOL   H14239666   2.306   3.565   5.574  0.6265  2.6344 -0.5350
   83MOL   H14339667   2.227   3.708   5.386 -0.8912 -0.6113 -1.0668
   83MOL   H14439668   2.417   3.429   5.115 -0.2729  1.2948 -0.4627
   83MOL   H14539669   2.533   3.325   5.314  0.4483  0.0326  0.9716
   83MOL   C14639670   2.136   3.521   4.961 -0.2994 -0.1386 -0.2631
   83MOL   C14739671   2.008   3.488   4.900 -0.3311 -0.2135  0.3715
   83MOL   C14839672   1.890   3.545   4.951 -0.4322 -0.7381  0.0983
   83MOL   C14939673   1.901   3.634   5.054  0.4768  0.4693  0.0308
   83MOL   C15039674   2.027   3.664   5.115 -0.1995 -0.6070  0.0514
   83MOL   C15139675   2.148   3.607   5.071 -0.4575 -0.2703 -0.5644
   83MOL   S15239676   1.726   3.501   4.885  0.0493 -0.2863  0.1024
   83MOL   O15339677   1.627   3.511   4.994 -0.4970 -0.2768 -0.4602
   83MOL   O15439678   1.742   3.370   4.820  0.0829  0.4601 -0.9736
   83MOL   C15539679   1.692   3.618   4.763  0.5994 -0.7411 -0.0539
   83MOL   C15639680   1.604   3.732   4.787  0.0910  0.3594  0.1638
   83MOL   C15739681   1.567   3.815   4.682 -1.3112 -0.2811  0.4350
   83MOL   C15839682   1.628   3.795   4.556 -0.0090  0.7104  0.9773
   83MOL   C15939683   1.726   3.693   4.535  0.4775 -0.5033 -0.1023
   83MOL   C16039684   1.753   3.606   4.635 -0.1447  0.1528 -0.0337
   83MOL   O16139685   1.594   3.877   4.455  0.1855 -0.2539 -0.3862
   83MOL   H16239686   2.227   3.479   4.919  0.0989  1.8691 -1.4955
   83MOL   H16339687   1.991   3.419   4.819 -1.5114  0.5364 -0.0357
   83MOL   H16439688   1.815   3.690   5.089 -0.1129  0.0342 -0.7181
   83MOL   H16539689   2.038   3.740   5.191  1.0949 -2.6595  2.0282
   83MOL   H16639690   1.565   3.746   4.887 -0.4056 -0.3660  0.0751
   83MOL   H16739691   1.508   3.904   4.702  0.5337  0.7833  1.2987
   83MOL   H16839692   1.770   3.666   4.440 -1.2080 -1.2935 -0.6641
   83MOL   H16939693   1.823   3.526   4.618  0.0577  0.4754 -0.7203
   83MOL   C17039694   1.625   3.900   4.221 -0.8277  0.5896  0.6330
   83MOL   C17139695   1.614   3.855   4.088 -0.0302 -0.7031  0.0842
   83MOL   C17239696   1.556   3.730   4.056 -0.5403 -0.0099 -0.3573
   83MOL   C17339697   1.513   3.647   4.166 -0.2549 -0.4239  0.1378
   83MOL   C17439698   1.511   3.702   4.303  0.1556 -0.4707  0.1278
   83MOL   C17539699   1.574   3.826   4.330  0.5166  0.2612 -0.0439
   83MOL   S17639700   1.568   3.648   3.895  0.5186 -0.3634  0.6111
   83MOL   O17739701   1.484   3.530   3.889 -0.3406  0.4158  0.4289
   83MOL   O17839702   1.707   3.634   3.850 -0.4370  0.2842  0.1998
   83MOL   C17939703   1.489   3.761   3.775 -0.1738  0.3953 -0.1482
   83MOL   C18039704   1.374   3.833   3.805  1.0211  0.0905 -0.4388
   83MOL   C18139705   1.320   3.928   3.720  0.7311  0.2733 -0.5325
   83MOL   C18239706   1.383   3.947   3.597 -1.1485  0.2135 -0.1143
   83MOL   C18339707   1.492   3.867   3.567 -0.2427  0.1570  0.5805
   83MOL   C18439708   1.554   3.780   3.651  0.7614 -0.4842 -0.8633
   83MOL   O18539709   1.348   4.051   3.515  0.4641 -0.3329 -0.0001
   83MOL   H18639710   1.672   3.996   4.241 -0.5419  1.1363 -2.4365
   83MOL   H18739711   1.666   3.905   4.008  0.3653  0.3935  1.0233
   83MOL   H18839712   1.475   3.548   4.150 -0.9075  0.1337 -1.8488
   83MOL   H18939713   1.473   3.630   4.373 -2.0255 -0.0544 -0.6026
   83MOL   H19039714   1.332   3.822   3.904  0.4490 -1.0287 -0.7942
   83MOL   H19139715   1.233   3.991   3.735  0.6482 -0.2511  1.3336
   83MOL   H19239716   1.529   3.873   3.466 -1.9038 -2.2986 -0.2188
   83MOL   H19339717   1.632   3.710   3.625 -0.4800 -1.6309 -1.5454
   83MOL   C19439718   1.534   4.204   3.528  0.6329 -0.4986 -0.1233
   83MOL   C19539719   1.621   4.286   3.457 -0.4081 -0.6533 -0.4289
   83MOL   C19639720   1.624   4.294   3.315  0.1386 -0.1991 -0.0244
   83MOL   C19739721   1.527   4.221   3.245  0.5158 -0.2396  0.8426
   83MOL   C19839722   1.435   4.133   3.313  0.4271  0.0865 -0.3038
   83MOL   C19939723   1.438   4.131   3.455 -0.6591  0.2520  0.6486
   83MOL   S20039724   1.753   4.396   3.243 -0.2122  0.0469 -0.1529
   83MOL   O20139725   1.861   4.307   3.198  0.6104 -0.1518  0.7988
   83MOL   O20239726   1.790   4.499   3.339  0.5716 -0.0035  0.5042
   83MOL   C20339727   1.669   4.467   3.097 -0.3568 -0.2868  0.0813
   83MOL   C20439728   1.582   4.581   3.113 -0.6538  0.0404 -0.3706
   83MOL   C20539729   1.518   4.644   3.005 -0.1758  0.2756  0.5580
   83MOL   C20639730   1.533   4.581   2.878  0.1561  0.6676 -0.3542
   83MOL   C20739731   1.623   4.471   2.861 -0.1323  0.0194 -0.0765
   83MOL   C20839732   1.694   4.416   2.966  0.0854  0.6944 -0.3982
   83MOL   O20939733   1.472   4.634   2.764  0.2064 -0.3900 -0.2863
   83MOL   H21039734   1.537   4.194   3.635  0.6566  0.7337 -0.0108
   83MOL   H21139735   1.703   4.332   3.509  0.2873 -0.7862 -1.3972
   83MOL   H21239736   1.522   4.231   3.137 -0.1819  1.1100  0.9800
   83MOL   H21339737   1.351   4.083   3.267  1.1536 -2.5130  1.1003
   83MOL   H21439738   1.578   4.625   3.212  1.4412  0.3219 -0.3976
   83MOL   H21539739   1.455   4.732   3.012  0.6919  0.9727 -0.1942
   83MOL   H21639740   1.654   4.431   2.766 -0.9014  0.9128 -0.7150
   83MOL   H21739741   1.770   4.339   2.957 -0.1355  0.5796 -1.2930
   83MOL   C21839742   1.291   4.487   2.668 -0.1517 -0.0665  0.4288
   83MOL   C21939743   1.159   4.448   2.657  0.4509  0.6592 -0.0571
   83MOL   C22039744   1.063   4.507   2.745 -0.3172  0.3641  0.0853
   83MOL   C22139745   1.108   4.616   2.828 -0.1534 -0.0389 -0.5674
   83MOL   C22239746   1.244   4.660   2.829  0.2457  0.5575  0.1769
   83MOL   C22339747   1.336   4.595   2.748  0.4006 -0.0433 -0.3814
   83MOL   S22439748   0.882   4.474   2.745 -0.0312 -0.1092 -0.0740
   83MOL   O22539749   0.810   4.602   2.737  0.3697 -0.4621  0.3500
   83MOL   O22639750   0.857   4.380   2.852  0.1964 -0.1028 -0.3120
   83MOL   C22739751   0.853   4.395   2.597 -0.0429  0.1255  0.2712
   83MOL   C22839752   0.788   4.461   2.492  0.4121 -0.6360  0.0996
   83MOL   C22939753   0.759   4.387   2.373 -0.3807  0.1941  0.4766
   83MOL   C23039754   0.804   4.255   2.365 -0.7184  0.4536 -0.3508
   83MOL   C23139755   0.864   4.184   2.469 -0.2132 -0.2246 -0.9603
   83MOL   C23239756   0.886   4.256   2.588  0.1431  0.9823  0.5956
   83MOL   O23339757   0.782   4.188   2.246  0.1378 -0.3918  0.1965
   83MOL   H23439758   1.365   4.431   2.612 -0.2504  1.3068 -1.1059
   83MOL   H23539759   1.120   4.376   2.586 -0.8010  1.2730 -0.0034
   83MOL   H23639760   1.035   4.669   2.887  0.9078  1.4619 -0.5776
   83MOL   H23739761   1.289   4.730   2.898 -3.4587 -0.3903  3.7913
   83MOL   H23839762   0.763   4.565   2.500  1.2340 -0.2754 -1.7290
   83MOL   H23939763   0.701   4.434   2.295 -4.0290 -0.8886  2.4283
   83MOL   H24039764   0.892   4.081   2.454  0.2495 -0.2576  0.1358
   83MOL   H24139765   0.932   4.217   2.677  0.2689 -0.0005  0.1008
   83MOL   C24239766   1.003   4.148   2.175  0.1508  0.3075 -0.0262
   83MOL   C24339767   1.097   4.157   2.072 -0.6753  0.6965  0.9790
   83MOL   C24439768   1.077   4.227   1.952  0.4244  0.1561 -0.0783
   83MOL   C24539769   0.949   4.282   1.925 -0.0596  0.1941  0.0394
   83MOL   C24639770   0.850   4.277   2.027  0.1372  0.8986  0.5031
   83MOL   C24739771   0.874   4.206   2.151  0.4253  0.0495  0.5409
   83MOL   S24839772   1.187   4.211   1.811 -0.1436 -0.2258  0.0184
   83MOL   O24939773   1.215   4.346   1.759  0.8111  0.0197 -0.6208
   83MOL   O25039774   1.122   4.113   1.730 -0.1116 -0.4519 -0.2075
   83MOL   C25139775   1.338   4.134   1.869 -0.2092  0.1162 -0.1213
   83MOL   C25239776   1.412   4.196   1.978 -0.1760  0.1002 -0.5404
   83MOL   C25339777   1.528   4.133   2.018  0.3226  0.1048  1.1377
   83MOL   C25439778   1.554   4.001   1.983  0.0387 -0.4565  0.1336
   83MOL   C25539779   1.480   3.935   1.889 -0.5275 -0.5360  0.2400
   83MOL   C25639780   1.371   4.005   1.828 -0.4697 -0.1889 -0.0442
   83MOL   O25739781   1.671   3.949   2.034 -0.4296 -0.3713  0.6782
   83MOL   H25839782   1.034   4.109   2.270  0.1955 -0.0193 -0.1747
   83MOL   H25939783   1.192   4.109   2.088 -0.1885 -0.1506 -3.6855
   83MOL   H26039784   0.924   4.331   1.832  0.2717  0.4158  0.0650
   83MOL   H26139785   0.759   4.332   2.008  0.3344  0.5851 -1.4693
   83MOL   H26239786   1.380   4.294   2.010 -0.6645 -0.2050 -0.0731
   83MOL   H26339787   1.599   4.183   2.083  1.4782  0.1448 -0.1373
   83MOL   H26439788   1.507   3.833   1.865  0.4868 -0.5096  1.2464
   83MOL   H26539789   1.311   3.941   1.766 -0.0608  1.8835 -2.6500
   83MOL   C26639790   1.572   3.771   2.167 -0.4033 -0.6870 -0.3139
   83MOL   C26739791   1.549   3.709   2.294 -0.2709 -0.8592 -0.2601
   83MOL   C26839792   1.615   3.763   2.404  0.3084 -0.0624 -0.2069
   83MOL   C26939793   1.709   3.869   2.392  0.4295  0.1087 -0.1860
   83MOL   C27039794   1.728   3.930   2.271  0.2145  0.2281 -0.5449
   83MOL   C27139795   1.652   3.886   2.153 -0.3713 -0.2612  0.4372
   83MOL   S27239796   1.563   3.697   2.566 -0.0593 -0.1982  0.3959
   83MOL   O27339797   1.419   3.661   2.558 -0.3770  0.0154  0.0313
   83MOL   O27439798   1.608   3.790   2.673 -0.8338 -0.3897 -0.5126
   83MOL   C27539799   1.660   3.547   2.582  0.3592 -0.4319 -0.7580
   83MOL   C27639800   1.594   3.433   2.631 -0.2708 -0.8071 -0.7143
   83MOL   C27739801   1.669   3.319   2.653  0.8255 -0.0153 -0.5115
   83MOL   C27839802   1.808   3.318   2.632  0.6784  1.2874  0.4916
   83MOL   C27939803   1.867   3.428   2.574  1.0186  0.9599 -0.4678
   83MOL   C28039804   1.793   3.545   2.548 -1.1269  0.6214  0.0338
   83MOL   O28139805   1.883   3.206   2.660  0.0559  0.4922 -0.1045
   83MOL   H28239806   1.509   3.735   2.087  0.1006  0.6362 -1.3163
   83MOL   H28339807   1.471   3.637   2.313 -0.7110  0.0246  1.4629
   83MOL   H28439808   1.757   3.901   2.483 -2.4133 -1.3660  1.9264
   83MOL   H28539809   1.804   4.007   2.266  0.1977  0.3015  0.2666
   83MOL   H28639810   1.488   3.434   2.652 -0.1788 -0.4554 -0.2807
   83MOL   H28739811   1.623   3.233   2.700 -3.0274  2.7442  0.9724
   83MOL   H28839812   1.974   3.417   2.561  0.8552 -0.1579 -0.8976
   83MOL   H28939813   1.840   3.639   2.524  2.8940 -1.0759  0.6762
   83MOL   C29039814   1.819   3.073   2.468 -0.0919 -0.2149  0.2605
   83MOL   C29139815   1.854   2.986   2.363 -0.0466 -0.2286  0.4907
   83MOL   C29239816   1.989   2.953   2.345  0.3143 -0.1521  0.5912
   83MOL   C29339817   2.093   3.016   2.416 -0.6600  0.1658 -0.5960
   83MOL   C29439818   2.059   3.103   2.520 -0.8558  0.0040  0.4554
   83MOL   C29539819   1.922   3.132   2.547 -0.1354 -0.0147  0.9232
   83MOL   S29639820   2.015   2.824   2.224 -0.0836  0.0302  0.2580
   83MOL   O29739821   2.149   2.767   2.248 -0.5707 -0.4469  0.1638
   83MOL   O29839822   1.977   2.882   2.092 -0.5984 -0.2920 -0.7527
   83MOL   C29939823   1.900   2.700   2.258 -0.2996 -0.0995  0.2832
   83MOL   C30039824   1.773   2.703   2.197  0.2153  0.3887  0.0113
   83MOL   C30139825   1.678   2.613   2.247  0.0045  0.0312  0.1213
   83MOL   C30239826   1.709   2.509   2.338  1.0040  0.6059 -0.5181
   83MOL   C30339827   1.837   2.504   2.392 -1.0074 -0.3248  0.4610
   83MOL   C30439828   1.934   2.595   2.352  0.2924 -0.1440  0.4614
   83MOL   O30539829   1.615   2.416   2.374 -0.0721  0.7073  1.0738
   83MOL   H30639830   1.715   3.087   2.490 -0.5965  0.2577 -2.2524
   83MOL   H30739831   1.776   2.936   2.307  0.4578  1.1887 -1.5120
   83MOL   H30839832   2.195   2.995   2.387 -0.6871  1.1931 -1.4693
   83MOL   H30939833   2.139   3.138   2.583 -0.1690  0.7664 -0.8239
   83MOL   H31039834   1.750   2.788   2.135  0.8805 -0.3337 -1.2531
   83MOL   H31139835   1.578   2.624   2.208 -0.6034  2.2421  2.1327
   83MOL   H31239836   1.873   2.428   2.460  1.1632  0.5101  0.2859
   83MOL   H31339837   2.031   2.582   2.396  0.0342 -2.1562  0.4806
   83MOL   C31439838   1.676   2.188   2.341 -0.5852 -0.2344  0.0035
   83MOL   C31539839   1.687   2.078   2.255 -0.0781  0.3354  0.7289
   83MOL   C31639840   1.639   2.074   2.121 -0.0972  0.2551 -0.4558
   83MOL   C31739841   1.570   2.193   2.084  0.5870 -0.0525  0.1844
   83MOL   C31839842   1.559   2.305   2.164  0.0284 -0.5160 -0.8020
   83MOL   C31939843   1.610   2.302   2.296  0.4396  0.0598 -0.4532
   83MOL   S32039844   1.673   1.941   2.010 -0.0413 -0.2002  0.2822
   83MOL   O32139845   1.558   1.850   2.009 -0.4411 -0.3059  0.0267
   83MOL   O32239846   1.804   1.885   2.049  0.4554 -0.2715 -0.3190
   83MOL   C32339847   1.686   2.018   1.852 -0.0578 -0.4770  0.0920
   83MOL   C32439848   1.607   1.975   1.744  0.4183  0.0663  0.3138
   83MOL   C32539849   1.624   2.030   1.616 -0.0294 -0.1965 -0.0711
   83MOL   C32639850   1.714   2.135   1.603 -0.1254  0.0011  0.4893
   83MOL   C32739851   1.789   2.188   1.712 -0.6886  0.1304  0.3782
   83MOL   C32839852   1.777   2.122   1.839 -0.7509 -0.3231 -0.4157
   83MOL   O32939853   1.751   2.162   1.478 -0.2848  0.3323 -0.0330
   83MOL   H33039854   1.719   2.192   2.440 -0.1420  0.8796 -0.2236
   83MOL   H33139855   1.749   1.997   2.292 -0.6474 -0.2313  0.4534
   83MOL   H33239856   1.521   2.198   1.987  1.5456 -1.4329 -0.3852
   83MOL   H33339857   1.525   2.396   2.118 -0.1387 -0.4841 -0.6173
   83MOL   H33439858   1.533   1.898   1.762  1.4041 -0.7313  1.0152
   83MOL   H33539859   1.561   1.983   1.542 -0.2683 -0.6462  0.4146
   83MOL   H33639860   1.861   2.267   1.692  1.8817 -2.0036  0.8823
   83MOL   H33739861   1.833   2.160   1.923  0.5968  0.3721 -1.6025
   83MOL   C33839862   1.906   2.325   1.414 -0.2221  0.0215 -0.7267
   83MOL   C33939863   1.930   2.443   1.344  0.1048 -0.8509 -0.1666
   83MOL   C34039864   1.823   2.531   1.308  0.2570 -0.0468 -0.1241
   83MOL   C34139865   1.690   2.503   1.342  0.0272  0.0731 -0.5190
   83MOL   C34239866   1.666   2.385   1.413 -1.0415 -0.5914 -0.7287
   83MOL   C34339867   1.773   2.291   1.444  0.0054  0.0872 -0.1139
   83MOL   S34439868   1.855   2.657   1.192 -0.0510 -0.2103 -0.2407
   83MOL   O34539869   2.000   2.669   1.172 -0.0566  0.1240 -0.4602
   83MOL   O34639870   1.778   2.774   1.237  0.2820  0.2570  0.1839
   83MOL   C34739871   1.802   2.612   1.027  0.6606  0.3092 -0.3908
   83MOL   C34839872   1.799   2.479   0.982 -0.0693 -0.7175 -0.1907
   83MOL   C34939873   1.756   2.441   0.857  0.1532  0.4055  0.7493
   83MOL   C35039874   1.729   2.544   0.760  0.5127  0.5546 -0.0054
   83MOL   C35139875   1.739   2.678   0.805  0.1143 -0.0629  0.2295
   83MOL   C35239876   1.781   2.710   0.936  0.5179  0.6586  1.0485
   83MOL   O35339877   1.702   2.513   0.631 -0.7245 -0.4538  0.4446
   83MOL   H35439878   1.990   2.262   1.442 -1.9994 -1.4385  1.5367
   83MOL   H35539879   2.031   2.469   1.315 -0.5387  0.7984 -0.9408
   83MOL   H35639880   1.615   2.577   1.322  0.7090  0.9914  0.2524
   83MOL   H35739881   1.563   2.353   1.420 -1.2238 -0.0138 -0.7873
   83MOL   H35839882   1.834   2.408   1.055  1.8070 -1.1813 -1.5167
   83MOL   H35939883   1.747   2.341   0.819 -0.4624  1.0828 -0.9256
   83MOL   H36039884   1.711   2.755   0.735  0.9596 -0.0453 -0.0981
   83MOL   H36139885   1.779   2.814   0.964  1.2943  0.4991  1.6970
   83MOL   C36239886   1.482   2.419   0.583 -0.1813  0.0069 -0.3033
   83MOL   C36339887   1.355   2.441   0.528 -0.1307  0.0299 -0.4484
   83MOL   C36439888   1.321   2.562   0.475  0.3163  0.2055 -0.7471
   83MOL   C36539889   1.413   2.668   0.471 -0.3444  0.3900 -0.7875
   83MOL   C36639890   1.541   2.653   0.529 -0.2874  0.6851 -0.1138
   83MOL   C36739891   1.574   2.528   0.584  0.6589 -0.9490 -0.0417
   83MOL   S36839892   1.154   2.584   0.400 -0.2715 -0.0715 -0.2186
   83MOL   O36939893   1.076   2.472   0.455  0.1112 -0.2572  0.0428
   83MOL   O37039894   1.174   2.587   0.255  0.3249 -0.4178  0.1007
   83MOL   C37139895   1.080   2.745   0.464 -1.1335  0.4050 -0.2436
   83MOL   C37239896   1.073   2.858   0.386 -0.1559  0.6150  0.1779
   83MOL   C37339897   1.023   2.975   0.433 -0.2823  0.1166  0.5515
   83MOL   C37439898   0.970   2.982   0.567  0.1563 -0.2298 -0.6800
   83MOL   C37539899   0.999   2.876   0.646  0.0637  0.0471  0.0655
   83MOL   C37639900   1.042   2.752   0.600  0.4334 -0.1950  0.3641
   83MOL   O37739901   0.907   3.086   0.626  0.4624  0.8241  0.3354
   83MOL   H37839902   1.516   2.323   0.619 -0.8769 -0.6386 -1.3687
   83MOL   H37939903   1.278   2.366   0.539 -0.0560  0.2134  1.6591
   83MOL   H38039904   1.389   2.765   0.431 -2.7608  0.1145 -0.0961
   83MOL   H38139905   1.619   2.727   0.520  0.1550 -0.0446 -2.5682
   83MOL   H38239906   1.110   2.845   0.286  0.3313 -0.1110  0.4478
   83MOL   H38339907   1.008   3.045   0.353 -0.7488 -1.2665 -0.5995
   83MOL   H38439908   0.970   2.883   0.750  0.3029  3.0610 -0.0235
   83MOL   H38539909   1.049   2.672   0.672 -3.0619 -0.1833  0.7899
   83MOL   C38639910   0.905   3.289   0.505  0.3357 -0.6110  0.7581
   83MOL   C38739911   0.955   3.419   0.486 -0.1733 -0.6226 -0.4616
   83MOL   C38839912   1.060   3.471   0.568 -0.0692 -1.0514  0.2540
   83MOL   C38939913   1.112   3.391   0.673  0.1583  0.0360 -0.2830
   83MOL   C39039914   1.052   3.265   0.698  0.0159  0.3329  0.0418
   83MOL   C39139915   0.955   3.211   0.610 -0.1168  0.2245 -0.1437
   83MOL   S39239916   1.140   3.633   0.548 -0.2508 -0.1218  0.1922
   83MOL   O39339917   1.058   3.701   0.449 -0.6708  0.3094  0.3786
   83MOL   O39439918   1.284   3.617   0.523  0.0853 -0.3930 -0.2803
   83MOL   C39539919   1.119   3.726   0.702  0.1641 -0.9958 -0.6096
   83MOL   C39639920   1.223   3.807   0.756  0.5715  0.4153  0.7876
   83MOL   C39739921   1.210   3.886   0.873 -0.4106 -0.5741  0.4765
   83MOL   C39839922   1.081   3.881   0.940 -0.2820 -0.4374 -0.0455
   83MOL   C39939923   0.977   3.803   0.893 -0.0193  1.0264  0.5264
   83MOL   C40039924   0.994   3.730   0.773 -0.0545  0.1961 -0.5995
   83MOL   O40139925   1.079   3.958   1.055  0.1333  0.0415  0.0858
   83MOL   H40239926   0.829   3.234   0.450 -0.7728 -1.0207  2.6652
   83MOL   H40339927   0.921   3.481   0.403  0.9122 -0.3761 -0.7330
   83MOL   H40439928   1.186   3.418   0.746 -0.4178 -0.7286  0.6015
   83MOL   H40539929   1.091   3.208   0.781 -1.2660  1.4097  1.4125
   83MOL   H40639930   1.318   3.809   0.704  0.3294  4.0242  0.3101
   83MOL   H40739931   1.289   3.946   0.917  1.0026 -1.7299 -0.4547
   83MOL   H40839932   0.880   3.803   0.940 -0.6562  2.9674 -0.7095
   83MOL   H40939933   0.916   3.663   0.741 -0.9399  1.5185 -1.2212
   83MOL   C41039934   0.900   4.112   1.085  0.2783  0.5969  0.2695
   83MOL   C41139935   0.778   4.143   1.145  0.1395  0.5910  1.0600
   83MOL   C41239936   0.720   4.058   1.238 -0.2455 -0.3284 -0.0942
   83MOL   C41339937   0.779   3.932   1.261  0.1307 -0.4233  0.0364
   83MOL   C41439938   0.903   3.899   1.198  0.2336  0.5241  0.4708
   83MOL   C41539939   0.958   3.989   1.109  0.6305 -0.3560 -0.1747
   83MOL   S41639940   0.576   4.105   1.343  0.5638 -0.1357 -0.1204
   83MOL   O41739941   0.467   4.015   1.309  0.5851  0.4787 -0.4148
   83MOL   O41839942   0.548   4.253   1.336  0.5177 -0.7035  0.3305
   83MOL   C41939943   0.625   4.068   1.512  0.1174  0.1751 -0.0996
   83MOL   C42039944   0.531   4.013   1.604 -0.2732 -0.2081 -0.0025
   83MOL   C42139945   0.560   3.997   1.740  0.1494 -0.2402  0.3134
   83MOL   C42239946   0.690   4.035   1.785  1.3633  1.0068 -0.1088
   83MOL   C42339947   0.780   4.095   1.690  0.1841 -0.5353  0.0108
   83MOL   C42439948   0.748   4.113   1.556  0.2851  0.3433  1.0468
   83MOL   O42539949   0.720   4.016   1.917  0.7581  0.9689 -0.0138
   83MOL   H42639950   0.949   4.184   1.021 -0.4480 -0.7787 -1.9071
   83MOL   H42739951   0.732   4.240   1.138  0.6619  0.7988  0.3774
   83MOL   H42839952   0.725   3.859   1.319 -1.5580  3.4172  3.5825
   83MOL   H42939953   0.946   3.801   1.209 -1.7742 -0.9114 -3.3231
   83MOL   H43039954   0.434   3.985   1.566 -0.2977  0.4654 -0.4540
   83MOL   H43139955   0.490   3.943   1.803  2.0108 -0.1528  2.5516
   83MOL   H43239956   0.877   4.129   1.724 -0.5249  0.7419  0.7797
   83MOL   H43339957   0.824   4.150   1.489 -0.6859  1.5947  0.6186
   83MOL   C43439958   0.767   3.833   2.069 -0.0691 -1.4088  0.1819
   83MOL   C43539959   0.860   3.738   2.121  0.1522 -0.3944 -0.4518
   83MOL   C43639960   0.984   3.715   2.062 -0.3441 -0.0308  0.4703
   83MOL   C43739961   1.023   3.791   1.950 -0.5167  0.5074  0.1551
   83MOL   C43839962   0.932   3.886   1.894 -0.1198 -0.0659 -0.2124
   83MOL   C43939963   0.809   3.914   1.958 -0.6146  0.1374  0.0017
   83MOL   S44039964   1.111   3.600   2.124 -0.1615  0.1857  0.1371
   83MOL   O44139965   1.068   3.518   2.235  0.2521 -0.0527  0.0494
   83MOL   O44239966   1.229   3.680   2.150 -0.3633  0.1745 -0.7352
   83MOL   C44339967   1.157   3.495   1.989 -0.1620 -0.2322  0.5469
   83MOL   C44439968   1.271   3.523   1.911  0.1776 -0.0372  0.3241
   83MOL   C44539969   1.311   3.436   1.807  0.0309 -0.8860  0.3810
   83MOL   C44639970   1.235   3.322   1.783  0.2377  0.3725  0.9556
   83MOL   C44739971   1.112   3.305   1.845  0.2087  0.5242 -0.1720
   83MOL   C44839972   1.075   3.389   1.952 -0.4968  0.6650 -0.3843
   83MOL   O44939973   1.293   3.233   1.691 -0.4882  0.0674 -0.2948
   83MOL   H45039974   0.682   3.866   2.127 -0.2691 -2.6273  0.5903
   83MOL   H45139975   0.836   3.692   2.215  0.7625 -0.8044 -0.4927
   83MOL   H45239976   1.125   3.789   1.915  0.0766 -0.3570  1.8739
   83MOL   H45339977   0.971   3.934   1.805 -1.4955  2.0656  0.3020
   83MOL   H45439978   1.334   3.603   1.948 -0.7544  1.0668 -0.4107
   83MOL   H45539979   1.406   3.459   1.762  0.1736 -0.5766  0.8308
   83MOL   H45639980   1.054   3.217   1.820 -0.9558  0.9091  1.0785
   83MOL   H45739981   0.990   3.365   2.015  1.5013 -1.8796  1.4388
   83MOL   C45839982   1.123   3.209   1.520 -0.8189 -0.1354 -0.2519
   83MOL   C45939983   1.092   3.211   1.378  0.2290  0.2447 -0.1287
   83MOL   C46039984   1.192   3.258   1.288  0.2824 -0.0173  0.0057
   83MOL   C46139985   1.315   3.301   1.329  0.2541 -0.0075 -0.5500
   83MOL   C46239986   1.349   3.278   1.463 -0.3622 -0.7351 -0.3776
   83MOL   C46339987   1.256   3.239   1.558 -0.0513  0.0776 -0.4676
   83MOL   S46439988   1.144   3.255   1.112 -0.2387 -0.0345  0.3983
   83MOL   O46539989   1.200   3.378   1.054 -0.1593  0.4571  0.1978
   83MOL   O46639990   0.999   3.232   1.114 -0.1064  0.3319  0.4265
   83MOL   C46739991   1.240   3.116   1.053 -0.1698 -0.6028 -0.3145
   83MOL   C46839992   1.378   3.098   1.070 -0.4441 -1.0881 -0.7612
   83MOL   C46939993   1.446   2.989   1.013  0.1528  0.1556  0.1561
   83MOL   C47039994   1.375   2.897   0.931  0.8131  1.0330  0.0367
   83MOL   C47139995   1.234   2.912   0.920 -0.6438 -0.3154 -0.7120
   83MOL   C47239996   1.166   3.020   0.985 -0.2027 -0.7923  0.2895
   83MOL   O47339997   1.442   2.802   0.872 -0.0564  0.0668  0.0564
   83MOL   H47439998   1.053   3.160   1.586 -0.1157 -0.2831  0.3865
   83MOL   H47539999   0.999   3.173   1.338  1.7270 -0.9257 -2.5920
   83MOL   H47640000   1.393   3.337   1.263  2.1528 -0.7824  1.2230
   83MOL   H47740001   1.452   3.293   1.491 -0.2388  4.1496 -2.8811
   83MOL   H47840002   1.437   3.162   1.134  0.0660 -0.5256 -1.7714
   83MOL   H47940003   1.552   2.971   1.025 -0.0493 -1.2095  0.0362
   83MOL   H48040004   1.184   2.841   0.855  1.2125 -1.1974 -1.2089
   83MOL   H48140005   1.059   3.027   0.978  0.1035  0.6917 -4.0641
   83MOL   H48240006   1.393   2.733   0.830  0.7250  1.1235 -2.7079
   84MOL     C140007   7.514   6.138   3.057  0.0188 -0.0115 -0.6774
   84MOL     C240008   7.440   6.016   3.077 -0.7629 -0.5474  0.5212
   84MOL     C340009   7.446   5.942   3.200  0.2107  0.1549  0.0765
   84MOL     C440010   7.527   5.988   3.306  0.6676 -0.3522 -0.6593
   84MOL     C540011   7.594   6.111   3.288 -0.0347  0.4577  0.0642
   84MOL     C640012   7.595   6.179   3.165  0.6271  0.2677  1.0648
   84MOL     S740013   7.329   5.819   3.230 -0.3960 -0.4377 -0.0960
   84MOL     O840014   7.306   5.841   3.376  0.2106 -0.6082 -1.0411
   84MOL     O940015   7.373   5.689   3.186 -0.1755 -0.2160  0.6361
   84MOL    C1040016   7.183   5.868   3.131  0.4182  0.4601 -0.2983
   84MOL    C1140017   7.108   5.986   3.144 -0.1225 -0.6186  0.9129
   84MOL    C1240018   6.981   5.995   3.089 -0.3112  0.0539  0.2407
   84MOL    C1340019   6.924   5.896   3.007 -0.0609 -0.3752  0.6563
   84MOL    C1440020   7.002   5.780   2.979  0.5396 -0.3586 -0.2653
   84MOL    C1540021   7.130   5.769   3.041  0.2101  0.2102  0.1895
   84MOL    O1640022   6.798   5.912   2.953  0.0980 -0.0744 -0.0037
   84MOL    H1740023   7.521   6.186   2.960  0.2928  1.4033  0.0314
   84MOL    H1840024   7.380   5.989   2.992  0.5885 -1.0121 -0.2980
   84MOL    H1940025   7.524   5.934   3.399 -0.1916 -0.5182 -0.7813
   84MOL    H2040026   7.661   6.142   3.367  0.6368 -0.1426 -0.2632
   84MOL    H2140027   7.138   6.059   3.217  0.0234  0.7724 -0.5100
   84MOL    H2240028   6.918   6.077   3.117 -0.6206 -1.1269  3.1807
   84MOL    H2340029   6.975   5.702   2.910 -0.7440 -1.0318  0.9870
   84MOL    H2440030   7.188   5.679   3.023 -2.8427 -1.8326  0.1220
   84MOL    H2540031   7.659   6.264   3.146  1.3861 -0.7228 -1.0593
   84MOL    C2640032   6.700   5.717   2.873  0.4582 -0.7663  0.5954
   84MOL    C2740033   6.603   5.618   2.875  0.3974  0.2175 -0.9157
   84MOL    C2840034   6.512   5.610   2.984 -0.5207 -0.1153 -0.2440
   84MOL    C2940035   6.523   5.702   3.088 -0.3663  0.2072 -0.5677
   84MOL    C3040036   6.619   5.810   3.080  0.1270  0.8107  0.4646
   84MOL    C3140037   6.713   5.811   2.974  0.0693  0.5436  0.4138
   84MOL    S3240038   6.387   5.490   2.993  0.0243  0.5225  0.2652
   84MOL    O3340039   6.392   5.420   2.863  0.6802 -0.1242  0.6852
   84MOL    O3440040   6.263   5.550   3.036  0.0332 -0.0676  0.2495
   84MOL    C3540041   6.451   5.368   3.105 -0.4000  0.7790  0.7479
   84MOL    C3640042   6.587   5.338   3.104 -0.3801  0.2767 -0.6260
   84MOL    C3740043   6.636   5.262   3.211 -0.1084 -0.7772  0.4759
   84MOL    C3840044   6.548   5.194   3.292  0.4491 -0.8676  0.1568
   84MOL    C3940045   6.410   5.222   3.294 -0.4537  0.5478 -0.1869
   84MOL    C4040046   6.363   5.312   3.197  0.4369  0.0712 -0.8988
   84MOL    O4140047   6.588   5.090   3.381 -0.0469  0.2305 -0.4828
   84MOL    H4240048   6.760   5.725   2.784 -0.7000 -1.6732 -0.2881
   84MOL    H4340049   6.599   5.550   2.791  3.5421  0.9728 -1.7491
   84MOL    H4440050   6.464   5.701   3.179 -0.9339  0.4734 -0.9327
   84MOL    H4540051   6.629   5.887   3.154  0.1295  1.1352  0.1282
   84MOL    H4640052   6.660   5.393   3.046 -1.4595  1.1359 -1.1869
   84MOL    H4740053   6.742   5.245   3.221 -0.2385 -0.7453  1.9940
   84MOL    H4840054   6.342   5.171   3.361 -0.1694  0.6869  0.2101
   84MOL    H4940055   6.256   5.328   3.198  0.4197 -0.0517 -0.6915
   84MOL    C5040056   6.655   4.867   3.442 -0.0071  0.0482  1.1075
   84MOL    C5140057   6.662   4.728   3.411  0.3595  0.0308 -0.3403
   84MOL    C5240058   6.632   4.683   3.280  0.0828 -0.3712  0.0058
   84MOL    C5340059   6.605   4.777   3.181  0.3116 -0.1473 -0.5166
   84MOL    C5440060   6.591   4.916   3.209 -0.7751  0.6969 -0.3112
   84MOL    C5540061   6.613   4.962   3.343  0.0665  0.0469  0.0699
   84MOL    S5640062   6.643   4.511   3.243 -0.5104 -0.4710  0.1008
   84MOL    O5740063   6.644   4.503   3.097  0.5338 -0.6303  0.3584
   84MOL    O5840064   6.542   4.437   3.314 -0.2618 -0.0006 -0.2593
   84MOL    C5940065   6.810   4.457   3.292 -0.1414  0.2741  0.0507
   84MOL    C6040066   6.918   4.514   3.224  0.2727 -0.3310  0.0632
   84MOL    C6140067   7.050   4.477   3.258 -0.3508 -0.0439 -0.4380
   84MOL    C6240068   7.069   4.369   3.341  0.3487  0.4593 -0.4449
   84MOL    C6340069   6.960   4.299   3.401  0.0119 -0.0407 -0.1783
   84MOL    C6440070   6.830   4.352   3.385  1.3049  0.2424  0.1112
   84MOL    O6540071   7.202   4.347   3.363 -0.5679 -0.7449  0.3180
   84MOL    H6640072   6.678   4.907   3.539  2.1097 -0.5706  0.8940
   84MOL    H6740073   6.682   4.652   3.485  0.5979 -1.2977 -1.7416
   84MOL    H6840074   6.577   4.740   3.084  0.2955  0.0317 -0.5790
   84MOL    H6940075   6.559   4.986   3.132  0.6841  0.9896 -0.6657
   84MOL    H7040076   6.902   4.596   3.156 -0.0800  1.0448  1.7594
   84MOL    H7140077   7.137   4.532   3.226 -0.5471 -0.1523 -1.1638
   84MOL    H7240078   6.966   4.220   3.475  1.2203  0.3386  0.1393
   84MOL    H7340079   6.745   4.307   3.434  1.1176  2.1138  1.5474
   84MOL    C7440080   7.246   4.115   3.385 -0.1148  0.1046  0.4616
   84MOL    C7540081   7.257   4.004   3.473 -0.1160 -0.1370 -0.0061
   84MOL    C7640082   7.277   4.020   3.612  0.8811 -0.1107 -0.5517
   84MOL    C7740083   7.275   4.149   3.666 -0.0268 -0.3891  0.3543
   84MOL    C7840084   7.247   4.263   3.586  0.0700 -0.0787 -0.0916
   84MOL    C7940085   7.232   4.246   3.447  0.5498  0.5113  0.6008
   84MOL    S8040086   7.303   3.867   3.713 -0.1598 -0.3055 -0.1934
   84MOL    O8140087   7.407   3.789   3.642  0.2201  0.0060 -0.3661
   84MOL    O8240088   7.180   3.792   3.742  0.3185 -0.2135 -0.2752
   84MOL    C8340089   7.371   3.923   3.873  0.4534  0.0107  0.3674
   84MOL    C8440090   7.509   3.953   3.875 -0.2534 -0.3773 -0.1533
   84MOL    C8540091   7.575   4.017   3.985  0.1915  0.0147 -0.1512
   84MOL    C8640092   7.502   4.026   4.102  0.0770 -0.3982 -0.4125
   84MOL    C8740093   7.365   3.976   4.104 -0.0765  0.2574 -0.5283
   84MOL    C8840094   7.299   3.927   3.990 -0.4622  1.0434  0.1810
   84MOL    O8940095   7.552   4.073   4.223  0.2567 -0.1689  0.0599
   84MOL    H9040096   7.244   4.098   3.278 -0.2132  0.1373  0.4573
   84MOL    H9140097   7.262   3.903   3.434 -0.4617  0.1895 -0.9069
   84MOL    H9240098   7.292   4.165   3.771 -0.3314  0.8883  0.2232
   84MOL    H9340099   7.238   4.362   3.626 -0.9145 -0.9124  1.8234
   84MOL    H9440100   7.565   3.929   3.786 -0.2801 -0.3344 -0.1814
   84MOL    H9540101   7.679   4.045   3.991  0.6530 -1.4705 -0.9887
   84MOL    H9640102   7.306   3.979   4.194 -2.9607 -0.6813 -2.3081
   84MOL    H9740103   7.192   3.912   3.991  0.1569 -4.6278 -2.5734
   84MOL    C9840104   7.695   3.887   4.278 -0.0646 -0.2745  0.8914
   84MOL    C9940105   7.807   3.843   4.364  0.3241 -0.1779  0.5028
   84MOL   C10040106   7.853   3.932   4.469  0.7893  0.6431 -0.4723
   84MOL   C10140107   7.813   4.068   4.472 -0.1991  0.6625  0.3431
   84MOL   C10240108   7.716   4.114   4.385 -0.4095 -0.6284 -0.0393
   84MOL   C10340109   7.656   4.024   4.291  0.2449  0.0154  0.0323
   84MOL   S10440110   7.978   3.879   4.594  0.1159 -0.2846  0.1673
   84MOL   O10540111   7.922   3.876   4.731 -0.1373 -0.1691  0.3133
   84MOL   O10640112   8.104   3.960   4.576  0.1387  0.2156  0.0176
   84MOL   C10740113   8.024   3.709   4.560  0.4178 -0.3718 -0.3864
   84MOL   C10840114   8.125   3.695   4.459  0.0455 -1.0832  0.0386
   84MOL   C10940115   8.160   3.562   4.423  0.2130 -0.4935 -0.1286
   84MOL   C11040116   8.108   3.452   4.491 -0.4724  0.4955 -0.1195
   84MOL   C11140117   8.015   3.465   4.596  0.5139 -0.4955 -0.2598
   84MOL   C11240118   7.973   3.598   4.631  0.4090  0.8422 -0.4448
   84MOL   O11340119   8.157   3.323   4.455 -0.4142 -0.5853 -0.1097
   84MOL   H11440120   7.638   3.830   4.207  0.8678  1.5027 -1.3563
   84MOL   H11540121   7.846   3.743   4.367  0.9095 -0.0227 -1.3239
   84MOL   H11640122   7.856   4.130   4.550  3.2947 -1.2240  0.0470
   84MOL   H11740123   7.676   4.214   4.381  0.5396 -0.2753 -1.0767
   84MOL   H11840124   8.165   3.785   4.415  3.0805 -1.8683  1.0990
   84MOL   H11940125   8.229   3.546   4.342 -1.6092  1.3301 -2.1305
   84MOL   H12040126   7.986   3.378   4.654  1.9120 -1.3846 -0.8655
   84MOL   H12140127   7.914   3.616   4.719  0.4352 -0.1580 -0.2234
   84MOL   C12240128   8.164   3.114   4.579  0.2875 -0.3135 -0.1312
   84MOL   C12340129   8.114   2.992   4.625 -0.4939 -0.0249  0.1822
   84MOL   C12440130   7.986   2.960   4.577 -0.1355  0.2199 -0.2456
   84MOL   C12540131   7.917   3.049   4.489 -0.0751  0.3547 -0.4870
   84MOL   C12640132   7.976   3.166   4.440  0.1149  0.3211 -0.7134
   84MOL   C12740133   8.100   3.201   4.492 -0.8030 -0.2779 -0.4709
   84MOL   S12840134   7.900   2.810   4.626 -0.3810 -0.0571  0.3705
   84MOL   O12940135   7.985   2.742   4.726 -0.7326 -0.5966  0.4834
   84MOL   O13040136   7.855   2.744   4.502 -0.9320 -0.2947  0.1746
   84MOL   C13140137   7.752   2.872   4.710  0.5049  0.1455  0.5249
   84MOL   C13240138   7.633   2.906   4.638  0.1314  0.2323 -0.2352
   84MOL   C13340139   7.516   2.952   4.707  0.5521  0.3560 -0.6461
   84MOL   C13440140   7.515   2.955   4.847 -0.3895 -1.0353 -0.3564
   84MOL   C13540141   7.632   2.917   4.916  0.1477 -0.9578  1.0346
   84MOL   C13640142   7.752   2.883   4.849 -0.4085  0.1076  0.0026
   84MOL   O13740143   7.405   2.991   4.918  0.4550 -0.1423 -0.7525
   84MOL   H13840144   8.256   3.145   4.626  1.3410 -1.2744 -1.5187
   84MOL   H13940145   8.171   2.937   4.699 -0.0285  0.1561 -0.0391
   84MOL   H14040146   7.817   3.021   4.459 -0.6567  0.0591  1.6366
   84MOL   H14140147   7.914   3.226   4.375 -2.3571 -2.2056 -0.7846
   84MOL   H14240148   7.636   2.887   4.532 -2.0704 -1.3709 -0.0601
   84MOL   H14340149   7.427   2.965   4.647 -0.4423 -1.3868  0.4234
   84MOL   H14440150   7.638   2.934   5.023  0.3597 -0.0810  0.8918
   84MOL   H14540151   7.842   2.850   4.899 -1.4138 -2.7111  0.0198
   84MOL   C14640152   7.411   3.231   4.927  0.1726  0.3488 -0.1171
   84MOL   C14740153   7.435   3.349   5.001 -0.1849 -0.2354 -0.4062
   84MOL   C14840154   7.473   3.339   5.137  0.2383 -0.2181 -0.3895
   84MOL   C14940155   7.477   3.216   5.203  1.2839 -0.4025 -0.0735
   84MOL   C15040156   7.461   3.097   5.127 -0.7896  0.5837 -0.2954
   84MOL   C15140157   7.429   3.109   4.989 -0.3541  0.3599  0.3591
   84MOL   S15240158   7.516   3.487   5.230 -0.1024 -0.3836  0.1493
   84MOL   O15340159   7.623   3.544   5.154 -0.3575  0.3730 -0.1794
   84MOL   O15440160   7.532   3.453   5.370  0.3191 -0.0235 -0.4194
   84MOL   C15540161   7.377   3.591   5.205 -0.0273  0.0938  0.1892
   84MOL   C15640162   7.369   3.680   5.096 -0.3313  0.0891 -0.1186
   84MOL   C15740163   7.259   3.765   5.078  2.0943 -0.1695 -0.0856
   84MOL   C15840164   7.161   3.759   5.173  0.2327 -0.4750 -0.5453
   84MOL   C15940165   7.153   3.660   5.270  0.7347 -0.5370 -0.8137
   84MOL   C16040166   7.270   3.575   5.295  0.5745  0.1324  0.0172
   84MOL   O16140167   7.046   3.844   5.163 -0.2935  0.6167 -0.4658
   84MOL   H16240168   7.389   3.225   4.822  1.3113  0.3708 -0.3645
   84MOL   H16340169   7.428   3.447   4.956 -3.5510  0.2412  0.9771
   84MOL   H16440170   7.505   3.212   5.307 -1.2096  0.3016  0.6664
   84MOL   H16540171   7.478   2.998   5.167  2.9234  1.5972  0.7774
   84MOL   H16640172   7.453   3.682   5.028  0.6414  1.3154  1.0947
   84MOL   H16740173   7.259   3.840   5.000  0.2854 -0.6915 -0.6002
   84MOL   H16840174   7.072   3.658   5.342  1.4996  1.5951  0.1448
   84MOL   H16940175   7.266   3.500   5.373 -0.1484 -0.3724 -0.4966
   84MOL   C17040176   6.824   3.750   5.168 -0.9007  0.3130  0.1660
   84MOL   C17140177   6.716   3.700   5.093 -0.3979 -0.1150 -0.1051
   84MOL   C17240178   6.715   3.709   4.951 -0.5130 -0.1621  0.4804
   84MOL   C17340179   6.819   3.770   4.884 -0.3384 -0.7198 -0.1901
   84MOL   C17440180   6.929   3.811   4.954  0.1661  0.5767 -0.2281
   84MOL   C17540181   6.935   3.796   5.094  0.7461  0.6224  0.2862
   84MOL   S17640182   6.581   3.633   4.856 -0.2211  0.0813 -0.0926
   84MOL   O17740183   6.576   3.679   4.715  0.9507 -0.1558 -0.0390
   84MOL   O17840184   6.459   3.647   4.941 -0.4305 -0.7939  0.3325
   84MOL   C17940185   6.615   3.452   4.847 -0.4513  0.0436  0.3282
   84MOL   C18040186   6.592   3.365   4.952 -0.3362 -0.0254 -0.3820
   84MOL   C18140187   6.629   3.232   4.954  0.4807  0.3632  0.2635
   84MOL   C18240188   6.695   3.178   4.847  0.2456  0.3119  0.0307
   84MOL   C18340189   6.722   3.265   4.737  0.0502  0.3670  0.0322
   84MOL   C18440190   6.679   3.400   4.729  0.4291 -0.6087  0.5666
   84MOL   O18540191   6.734   3.046   4.846 -0.1341  0.0380  0.1544
   84MOL   H18640192   6.829   3.747   5.276  0.3883  2.4576  0.1988
   84MOL   H18740193   6.627   3.654   5.133  0.9023 -2.3304  0.3378
   84MOL   H18840194   6.817   3.781   4.777  2.6656 -0.6996 -0.2733
   84MOL   H18940195   7.016   3.851   4.904  0.0488  0.8713 -0.1984
   84MOL   H19040196   6.554   3.411   5.042 -0.6939 -0.7382 -0.1683
   84MOL   H19140197   6.615   3.173   5.043  1.9714 -0.5825 -0.1097
   84MOL   H19240198   6.783   3.231   4.654  1.7869  2.3017  0.4519
   84MOL   H19340199   6.709   3.469   4.652 -0.2839 -0.5795  0.3068
   84MOL   C19440200   6.629   2.903   4.682  0.8148 -0.0147 -0.8256
   84MOL   C19540201   6.526   2.816   4.650  0.0301 -0.3424  0.7640
   84MOL   C19640202   6.439   2.759   4.747 -0.8522 -0.4242  0.3279
   84MOL   C19740203   6.453   2.810   4.878  0.4472 -0.1169 -0.1580
   84MOL   C19840204   6.549   2.906   4.917  0.4278 -0.4101  0.1942
   84MOL   C19940205   6.638   2.954   4.817  0.1886  0.2534  0.0242
   84MOL   S20040206   6.353   2.614   4.707 -0.3736 -0.1965  0.2941
   84MOL   O20140207   6.447   2.504   4.676  0.7977 -0.6771 -0.2210
   84MOL   O20240208   6.251   2.657   4.611 -0.2860  0.2608  0.0511
   84MOL   C20340209   6.273   2.575   4.864 -0.1221  0.0173 -0.1222
   84MOL   C20440210   6.335   2.485   4.953  0.3892 -0.0065  0.2958
   84MOL   C20540211   6.280   2.460   5.082  0.1336 -0.3735  0.1198
   84MOL   C20640212   6.167   2.530   5.118 -0.6224 -0.0641  0.3756
   84MOL   C20740213   6.094   2.609   5.026 -0.0976  0.5604 -0.1412
   84MOL   C20840214   6.148   2.631   4.901 -0.5501 -0.4074 -0.1509
   84MOL   O20940215   6.118   2.523   5.242  0.4796 -0.1791  0.1284
   84MOL   H21040216   6.702   2.932   4.608  2.2461  1.3765  1.0783
   84MOL   H21140217   6.510   2.775   4.551 -1.1024  0.1357  0.7336
   84MOL   H21240218   6.399   2.767   4.961  1.9116 -1.3345  0.1813
   84MOL   H21340219   6.549   2.931   5.022  2.4313 -1.2240  0.4140
   84MOL   H21440220   6.428   2.437   4.926 -1.0245 -2.1605 -0.8780
   84MOL   H21540221   6.332   2.394   5.150  0.3692 -1.8046 -1.4113
   84MOL   H21640222   6.007   2.657   5.069 -1.3259 -0.8671 -1.0062
   84MOL   H21740223   6.084   2.685   4.833 -2.6062 -1.2699  1.0312
   84MOL   C21840224   6.165   2.554   5.473  0.0808 -0.4493  0.4852
   84MOL   C21940225   6.222   2.635   5.573 -0.0555  0.0259  0.0243
   84MOL   C22040226   6.278   2.757   5.544  0.4472 -0.0490  0.3730
   84MOL   C22140227   6.281   2.809   5.414  0.7778 -0.1514  0.6232
   84MOL   C22240228   6.225   2.726   5.315 -0.2815 -0.1168 -0.3174
   84MOL   C22340229   6.174   2.598   5.340 -0.3232  0.9316 -0.0006
   84MOL   S22440230   6.359   2.852   5.670 -0.0110  0.3630 -0.3220
   84MOL   O22540231   6.255   2.934   5.732  0.0396 -0.2087  0.0887
   84MOL   O22640232   6.477   2.914   5.609  0.1005  0.2569 -0.2032
   84MOL   C22740233   6.433   2.749   5.796 -0.5882 -0.7307  0.0366
   84MOL   C22840234   6.439   2.808   5.920  0.3579  0.2438  0.3164
   84MOL   C22940235   6.483   2.734   6.037  0.1255 -0.3459  0.5761
   84MOL   C23040236   6.520   2.597   6.028 -0.2422 -0.1801 -0.4671
   84MOL   C23140237   6.511   2.540   5.898 -0.0930  0.5990 -0.9062
   84MOL   C23240238   6.474   2.615   5.784 -0.2865 -0.0505  0.5537
   84MOL   O23340239   6.570   2.530   6.141 -0.0171 -0.3470 -0.0097
   84MOL   H23440240   6.117   2.462   5.503  2.3598 -1.9762 -0.3335
   84MOL   H23540241   6.212   2.603   5.676 -0.8827 -1.8397 -0.6219
   84MOL   H23640242   6.317   2.909   5.394  0.6253 -0.1548  0.3207
   84MOL   H23740243   6.232   2.764   5.214 -1.2914  0.0788 -0.3182
   84MOL   H23840244   6.413   2.912   5.920  0.9326  0.4094 -1.7310
   84MOL   H23940245   6.497   2.786   6.131 -0.5781  0.3092  0.3256
   84MOL   H24040246   6.537   2.436   5.885 -3.5454 -0.0167 -3.7123
   84MOL   H24140247   6.477   2.561   5.690  0.0783 -1.8082  1.5346
   84MOL   C24240248   6.804   2.599   6.137 -0.3356 -0.4875  0.0257
   84MOL   C24340249   6.942   2.562   6.142  0.2749 -0.1554 -0.1399
   84MOL   C24440250   6.970   2.425   6.165 -0.1079  0.5908 -0.3273
   84MOL   C24540251   6.868   2.323   6.174 -0.6157 -0.0505 -0.0509
   84MOL   C24640252   6.735   2.365   6.171 -0.3248 -0.1431 -0.3649
   84MOL   C24740253   6.706   2.501   6.142 -0.3479  0.5127 -0.1197
   84MOL   S24840254   7.145   2.374   6.188 -0.3427  0.2786 -0.3993
   84MOL   O24940255   7.226   2.444   6.094 -0.1816  0.0097  0.5094
   84MOL   O25040256   7.156   2.230   6.194 -0.5582  0.2434  0.4679
   84MOL   C25140257   7.172   2.436   6.352  0.5143 -0.2425 -0.6032
   84MOL   C25240258   7.191   2.573   6.388 -0.5592 -0.0194  0.5820
   84MOL   C25340259   7.225   2.608   6.517 -0.3385  0.0590 -0.5095
   84MOL   C25440260   7.220   2.509   6.617 -0.1264  0.5780 -0.0067
   84MOL   C25540261   7.194   2.379   6.583  0.5141 -0.3692 -0.0660
   84MOL   C25640262   7.176   2.336   6.454  0.3773 -0.0842  0.3529
   84MOL   O25740263   7.230   2.535   6.749 -0.1800  0.9334 -0.1060
   84MOL   H25840264   6.770   2.701   6.126 -1.4754 -0.7399  1.1431
   84MOL   H25940265   7.030   2.624   6.140  0.7474 -0.8498 -1.5290
   84MOL   H26040266   6.905   2.222   6.188  0.0131  0.3500  1.2426
   84MOL   H26140267   6.652   2.298   6.154 -1.6673  0.5810  2.9486
   84MOL   H26240268   7.184   2.645   6.308 -2.2039  1.0307  1.6406
   84MOL   H26340269   7.240   2.709   6.552  0.1977  0.5586 -2.1494
   84MOL   H26440270   7.196   2.304   6.661 -1.3716  1.3321  1.6908
   84MOL   H26540271   7.165   2.230   6.443  0.4668  0.0846 -1.5062
   84MOL   C26640272   7.422   2.689   6.796  0.7044 -0.7389  0.3312
   84MOL   C26740273   7.530   2.720   6.875 -0.3083 -1.2817 -0.0189
   84MOL   C26840274   7.587   2.621   6.956  0.0543 -0.1496 -0.4301
   84MOL   C26940275   7.530   2.488   6.974  0.3996  0.1685 -0.5469
   84MOL   C27040276   7.418   2.461   6.895  0.3796  0.2537 -0.6229
   84MOL   C27140277   7.357   2.559   6.808  1.0460 -0.1124 -0.8761
   84MOL   S27240278   7.717   2.669   7.065  0.3700 -0.0536  0.1257
   84MOL   O27340279   7.803   2.762   6.983 -0.3703  0.4706 -0.5528
   84MOL   O27440280   7.780   2.555   7.131 -0.6787 -0.3580  0.1656
   84MOL   C27540281   7.636   2.763   7.189 -0.4105  0.0046  0.6493
   84MOL   C27640282   7.500   2.747   7.211 -0.0354 -0.8082 -0.0964
   84MOL   C27740283   7.435   2.824   7.309  0.1030 -0.2273  0.0916
   84MOL   C27840284   7.502   2.930   7.366 -0.1541  0.1664  0.5136
   84MOL   C27940285   7.645   2.936   7.359  0.3262  0.3924  0.2914
   84MOL   C28040286   7.710   2.855   7.266  0.6000  0.2995 -0.0822
   84MOL   O28140287   7.432   3.024   7.441 -0.2608 -0.0512 -0.2531
   84MOL   H28240288   7.381   2.759   6.724  0.9838 -2.9879 -2.0851
   84MOL   H28340289   7.579   2.816   6.881 -1.3525 -0.5520 -2.6650
   84MOL   H28440290   7.579   2.427   7.048  0.9676  2.4421  0.9885
   84MOL   H28540291   7.369   2.366   6.910  0.7980  0.1413  0.0413
   84MOL   H28640292   7.438   2.671   7.165 -2.2873  1.3093 -0.6992
   84MOL   H28740293   7.330   2.809   7.329  0.6949 -1.8615  2.1921
   84MOL   H28840294   7.702   3.007   7.417  0.5137 -0.0378  0.6307
   84MOL   H28940295   7.817   2.864   7.252  0.6267  1.7634  0.8827
   84MOL   C29040296   7.315   3.123   7.253  0.0905 -0.4279 -0.5618
   84MOL   C29140297   7.199   3.164   7.191  0.4981 -0.1409 -0.4744
   84MOL   C29240298   7.080   3.188   7.263  0.2130  0.0952 -0.0640
   84MOL   C29340299   7.078   3.154   7.398  0.0596 -0.4878  0.1967
   84MOL   C29440300   7.197   3.109   7.464  0.0725  0.2561  0.0018
   84MOL   C29540301   7.313   3.081   7.385  0.4976 -0.8249  0.5965
   84MOL   S29640302   6.936   3.265   7.190  0.2273  0.3513  0.2628
   84MOL   O29740303   6.887   3.363   7.286  0.7766  0.2476 -0.0215
   84MOL   O29840304   6.846   3.162   7.136 -0.2618 -0.0871  0.0003
   84MOL   C29940305   7.002   3.360   7.045  0.2214 -0.4537 -0.3964
   84MOL   C30040306   7.027   3.499   7.062  0.2905  0.0696 -0.2295
   84MOL   C30140307   7.068   3.582   6.960  0.3206  0.2771  0.3059
   84MOL   C30240308   7.067   3.528   6.830  0.2060  0.1539 -0.1632
   84MOL   C30340309   7.026   3.396   6.803 -0.5582 -0.1336 -0.5580
   84MOL   C30440310   7.001   3.310   6.913 -0.2055 -0.4888  0.2506
   84MOL   O30540311   7.113   3.606   6.728 -0.2075  0.4343 -0.1579
   84MOL   H30640312   7.402   3.109   7.192  0.6023 -0.1700  0.0961
   84MOL   H30740313   7.210   3.175   7.084  0.5506 -0.7280 -0.5302
   84MOL   H30840314   6.982   3.165   7.448  0.5997  2.2604  0.7083
   84MOL   H30940315   7.206   3.087   7.569 -2.2125 -2.9847 -0.4030
   84MOL   H31040316   7.009   3.527   7.165  0.2432  0.7147 -0.4141
   84MOL   H31140317   7.098   3.682   6.985 -3.0292  0.9755  1.7872
   84MOL   H31240318   7.026   3.363   6.700  0.7085  1.3169 -1.0465
   84MOL   H31340319   6.958   3.212   6.899 -2.1693  0.4738 -0.7400
   84MOL   C31440320   7.291   3.749   6.752 -0.0217 -0.2030  0.2966
   84MOL   C31540321   7.424   3.781   6.762  0.6153 -0.3332 -0.2664
   84MOL   C31640322   7.516   3.678   6.727  0.0982 -0.0409 -0.5574
   84MOL   C31740323   7.473   3.545   6.674 -0.3087 -0.7962 -0.0630
   84MOL   C31840324   7.337   3.515   6.686  0.3059 -0.2449  0.0126
   84MOL   C31940325   7.247   3.621   6.718  0.5261 -0.0127 -0.1333
   84MOL   S32040326   7.694   3.714   6.725 -0.1071  0.0228 -0.1605
   84MOL   O32140327   7.757   3.617   6.822  0.1309  0.5323  0.1622
   84MOL   O32240328   7.719   3.857   6.733 -0.6500  0.3611 -0.1911
   84MOL   C32340329   7.749   3.666   6.566 -0.3007 -0.7996 -0.4221
   84MOL   C32440330   7.666   3.682   6.451  0.2647  0.0809 -0.3335
   84MOL   C32540331   7.719   3.646   6.326  0.3977 -0.3820  0.3094
   84MOL   C32640332   7.849   3.593   6.317 -0.4704  0.1159 -0.7122
   84MOL   C32740333   7.934   3.586   6.432  0.4095  0.0610  0.0184
   84MOL   C32840334   7.885   3.625   6.560 -0.0780  0.3854  0.1152
   84MOL   O32940335   7.898   3.546   6.193  0.4982  0.4064  0.0441
   84MOL   H33040336   7.223   3.831   6.765  1.7792  1.2645  0.6293
   84MOL   H33140337   7.457   3.879   6.792  0.5229 -0.6585  0.9220
   84MOL   H33240338   7.554   3.478   6.649  0.1552  0.3351 -1.6643
   84MOL   H33340339   7.294   3.419   6.663  1.5992 -0.3904 -1.8803
   84MOL   H33440340   7.563   3.715   6.451  0.1621 -0.2298  0.0845
   84MOL   H33540341   7.657   3.666   6.240 -1.1258 -0.7176  1.3035
   84MOL   H33640342   8.025   3.529   6.417 -0.5478 -1.3580 -0.5446
   84MOL   H33740343   7.939   3.608   6.652  0.7361  0.6937 -0.3022
   84MOL   C33840344   8.033   3.352   6.178  0.1112  0.2279  0.3106
   84MOL   C33940345   8.049   3.211   6.160 -0.0620  0.4684 -0.5337
   84MOL   C34040346   7.940   3.129   6.128 -0.1327  0.2753 -0.2440
   84MOL   C34140347   7.816   3.188   6.121  0.2393 -0.2949  0.7415
   84MOL   C34240348   7.801   3.323   6.141 -0.5054  0.3444 -0.1170
   84MOL   C34340349   7.908   3.410   6.178 -0.5415  0.4406 -0.3478
   84MOL   S34440350   7.943   2.951   6.114 -0.0537 -0.1042  0.2916
   84MOL   O34540351   8.080   2.907   6.127  0.3063 -0.2894 -0.2996
   84MOL   O34640352   7.869   2.923   5.987 -0.0600  0.0876 -0.1367
   84MOL   C34740353   7.844   2.871   6.247 -0.0943  0.1114 -0.1753
   84MOL   C34840354   7.835   2.730   6.246  0.2575  0.3334 -0.4374
   84MOL   C34940355   7.756   2.661   6.339  0.0673 -1.1683  0.3969
   84MOL   C35040356   7.681   2.731   6.436 -0.1848 -0.1330 -0.8565
   84MOL   C35140357   7.695   2.868   6.436 -0.0230 -0.2713  0.1412
   84MOL   C35240358   7.772   2.943   6.343 -0.0525  0.5689 -0.1825
   84MOL   O35340359   7.607   2.675   6.536  0.3999  1.0233 -0.0770
   84MOL   H35440360   8.122   3.410   6.198  0.3192  0.0084  0.0362
   84MOL   H35540361   8.144   3.163   6.175 -0.9607 -1.0024  0.5505
   84MOL   H35640362   7.732   3.127   6.089 -0.1040  0.5391  0.0342
   84MOL   H35740363   7.703   3.368   6.128 -0.9939 -0.6219  0.2081
   84MOL   H35840364   7.894   2.681   6.170  1.3800 -0.8221  1.1291
   84MOL   H35940365   7.766   2.554   6.353 -3.4101 -1.4830  0.8034
   84MOL   H36040366   7.625   2.926   6.494 -0.2477  1.4094 -1.7971
   84MOL   H36140367   7.775   3.051   6.338 -0.1938  0.4931 -2.4306
   84MOL   C36240368   7.558   2.445   6.528  0.1293  0.0744 -0.1754
   84MOL   C36340369   7.578   2.311   6.570  0.5568 -0.1829  0.3868
   84MOL   C36440370   7.663   2.296   6.681 -0.3132  0.4196  0.0198
   84MOL   C36540371   7.740   2.406   6.737 -0.6729  0.6853 -0.5748
   84MOL   C36640372   7.724   2.531   6.683 -0.6265 -0.4708  0.4653
   84MOL   C36740373   7.630   2.552   6.581  0.2402  0.2004  0.4752
   84MOL   S36840374   7.678   2.135   6.764 -0.5267  0.0299  0.4331
   84MOL   O36940375   7.813   2.128   6.825  0.3268  0.2175  0.1561
   84MOL   O37040376   7.634   2.028   6.668 -0.2794  0.0140  0.3766
   84MOL   C37140377   7.555   2.126   6.888  0.0262  0.5410 -0.2661
   84MOL   C37240378   7.595   2.121   7.020 -0.2673 -0.5467 -0.2968
   84MOL   C37340379   7.501   2.100   7.126 -0.4702  0.0232  0.3652
   84MOL   C37440380   7.361   2.085   7.087 -0.1162 -1.0109 -0.3109
   84MOL   C37540381   7.323   2.096   6.950 -0.3152 -0.7096  0.0646
   84MOL   C37640382   7.421   2.111   6.850  0.3179  0.0332 -0.0318
   84MOL   O37740383   7.266   2.061   7.179 -0.2726 -0.1251  0.1834
   84MOL   H37840384   7.496   2.472   6.444 -0.1173  0.7164  0.2066
   84MOL   H37940385   7.532   2.220   6.534  0.7375 -0.3356  0.5417
   84MOL   H38040386   7.817   2.388   6.810 -0.0641  4.0096 -0.2886
   84MOL   H38140387   7.784   2.611   6.723  0.4736 -1.6844  1.2986
   84MOL   H38240388   7.699   2.136   7.045 -0.1660  0.0852 -1.0638
   84MOL   H38340389   7.528   2.098   7.230 -2.2560 -2.6455  0.8273
   84MOL   H38440390   7.224   2.097   6.908 -0.3208 -1.5990  0.0621
   84MOL   H38540391   7.395   2.111   6.745  1.0005 -0.2676 -0.1981
   84MOL   C38640392   7.165   2.280   7.196  0.2338 -0.2576  0.1844
   84MOL   C38740393   7.106   2.384   7.274 -0.2863  1.0446  0.0106
   84MOL   C38840394   7.101   2.373   7.414  0.7493  0.2824 -0.5055
   84MOL   C38940395   7.173   2.269   7.473  0.3153 -0.2510 -0.0956
   84MOL   C39040396   7.236   2.165   7.394 -0.2688  0.1005 -0.0921
   84MOL   C39140397   7.227   2.167   7.253  0.3656  0.3686 -0.7839
   84MOL   S39240398   7.029   2.500   7.513  0.1357 -0.2147 -0.1420
   84MOL   O39340399   7.094   2.618   7.453  0.6533 -0.0249 -0.3598
   84MOL   O39440400   7.040   2.471   7.657 -0.6839  0.0256  0.6846
   84MOL   C39540401   6.849   2.493   7.469  0.2996 -0.6034 -0.1232
   84MOL   C39640402   6.792   2.616   7.429  1.1762 -0.3566  0.0711
   84MOL   C39740403   6.660   2.604   7.381 -0.1790  0.1381 -0.5627
   84MOL   C39840404   6.584   2.480   7.381  0.0332 -0.4254  0.3487
   84MOL   C39940405   6.655   2.364   7.420 -0.4936 -0.0020 -0.0850
   84MOL   C40040406   6.784   2.374   7.472 -0.1901  0.8688  0.3125
   84MOL   O40140407   6.458   2.472   7.343 -0.1993  0.1406 -0.0099
   84MOL   H40240408   7.151   2.280   7.089 -1.0995  1.0668  0.3406
   84MOL   H40340409   7.046   2.460   7.226 -0.2182 -0.4296 -2.5083
   84MOL   H40440410   7.170   2.254   7.580 -1.3627 -0.8104 -0.1998
   84MOL   H40540411   7.293   2.088   7.442  2.5336  1.1505 -1.6278
   84MOL   H40640412   6.846   2.710   7.428 -2.6508  1.9614  1.2718
   84MOL   H40740413   6.613   2.695   7.346 -0.9062 -0.8115 -2.1034
   84MOL   H40840414   6.595   2.275   7.405  0.3794 -0.4592 -0.9569
   84MOL   H40940415   6.842   2.290   7.508  0.9359 -0.0754 -3.4523
   84MOL   C41040416   6.331   2.273   7.395  0.5924 -0.8095 -0.6189
   84MOL   C41140417   6.242   2.200   7.479  0.1316  0.3659  0.2640
   84MOL   C41240418   6.178   2.272   7.585  0.0409  0.1236  0.2566
   84MOL   C41340419   6.213   2.404   7.609  0.1855  0.6154 -0.6998
   84MOL   C41440420   6.308   2.475   7.533  0.3297  0.3285  0.0936
   84MOL   C41540421   6.366   2.411   7.421  0.2533  0.8709  0.3589
   84MOL   S41640422   6.048   2.185   7.679 -0.2328 -0.1374 -0.0663
   84MOL   O41740423   5.999   2.074   7.591 -0.2435  0.2985  0.1514
   84MOL   O41840424   5.955   2.287   7.723 -0.3459  0.3936  0.3264
   84MOL   C41940425   6.133   2.116   7.827  0.4220  0.0258  0.1773
   84MOL   C42040426   6.274   2.116   7.836 -0.0018  0.2381  0.2221
   84MOL   C42140427   6.338   2.054   7.941  0.5427  0.4076 -0.3767
   84MOL   C42240428   6.264   1.994   8.045 -0.2704 -0.5236  0.4854
   84MOL   C42340429   6.117   1.989   8.032 -0.0305 -0.5859 -0.2023
   84MOL   C42440430   6.052   2.048   7.921 -0.2337  0.1410  0.5306
   84MOL   O42540431   6.329   1.941   8.157  0.8234  0.2905  0.4090
   84MOL   H42640432   6.366   2.219   7.308 -2.2862  0.7335 -2.8376
   84MOL   H42740433   6.231   2.094   7.460  3.0528 -0.2484  1.7533
   84MOL   H42840434   6.169   2.452   7.695 -0.2427 -1.5069  0.2864
   84MOL   H42940435   6.325   2.577   7.564  0.5607  0.0395  0.9180
   84MOL   H43040436   6.336   2.170   7.766  0.1366 -0.4269 -0.1751
   84MOL   H43140437   6.445   2.047   7.950  0.3126 -0.7268  1.6924
   84MOL   H43240438   6.057   1.943   8.109 -2.0154  1.2015 -0.6140
   84MOL   H43340439   5.947   2.042   7.897  0.5031 -0.4658 -2.8204
   84MOL   C43440440   6.349   1.745   8.302  0.2051  0.8144 -0.0182
   84MOL   C43540441   6.357   1.606   8.313  0.0657  0.6726  0.0875
   84MOL   C43640442   6.366   1.531   8.200  0.8785 -0.2308  1.2329
   84MOL   C43740443   6.369   1.587   8.070  0.0053  0.1826 -0.1038
   84MOL   C43840444   6.358   1.728   8.058  0.4067 -0.1355  0.2078
   84MOL   C43940445   6.340   1.805   8.171 -0.6954 -0.5593  0.3890
   84MOL   S44040446   6.358   1.351   8.206  0.1997  0.6845 -0.7002
   84MOL   O44140447   6.436   1.305   8.092 -0.4549 -0.3669  0.4239
   84MOL   O44240448   6.217   1.313   8.215  0.1154  0.1707 -0.3524
   84MOL   C44340449   6.439   1.297   8.357  0.2030  0.2859 -0.5680
   84MOL   C44440450   6.390   1.183   8.417 -0.0292  0.4902  0.3484
   84MOL   C44540451   6.473   1.114   0.084  0.0397  0.0499 -0.2494
   84MOL   C44640452   6.607   1.147   0.109 -0.2064 -0.1309  0.0645
   84MOL   C44740453   6.657   1.267   0.044 -0.5686  0.2124  0.1493
   84MOL   C44840454   6.572   1.346   8.392  0.0437 -0.1360 -0.0878
   84MOL   O44940455   6.692   1.077   0.187  0.1170 -0.7948 -0.1597
   84MOL   H45040456   6.346   1.807   8.390 -1.8580  2.7322 -1.3845
   84MOL   H45140457   6.348   1.561   8.411  0.2941 -1.1569 -0.7102
   84MOL   H45240458   6.366   1.518   7.987 -1.8253  2.4667 -2.0043
   84MOL   H45340459   6.344   1.771   7.959  0.8164 -0.4518  0.0109
   84MOL   H45440460   6.286   1.163   8.398  0.5770 -3.2601  0.5533
   84MOL   H45540461   6.432   1.025   0.129  1.7716  0.1488  1.6403
   84MOL   H45640462   6.763   1.288   0.044 -0.6877  0.8394  0.2884
   84MOL   H45740463   6.615   1.429   8.338 -0.9063 -0.2467 -1.0396
   84MOL   C45840464   6.646   1.197   0.398  0.2183  0.2507  0.3462
   84MOL   C45940465   6.641   1.188   0.538  0.4752 -0.2908  0.6243
   84MOL   C46040466   6.672   1.067   0.609 -0.4140 -0.5690 -0.1696
   84MOL   C46140467   6.693   0.950   0.527 -0.7027 -0.1943 -0.0595
   84MOL   C46240468   6.698   0.959   0.387 -0.6032  0.5247 -0.9816
   84MOL   C46340469   6.676   1.079   0.321 -0.6633 -0.8436  0.3434
   84MOL   S46440470   6.675   1.055   0.786  0.1645 -0.3367  0.3032
   84MOL   O46540471   6.686   1.193   0.843  0.5839 -0.1955 -0.7171
   84MOL   O46640472   6.786   0.961   0.815 -0.0520 -0.0815 -0.0428
   84MOL   C46740473   6.519   0.973   0.842  0.3859 -0.2758  0.0363
   84MOL   C46840474   6.410   1.052   0.887 -0.3872 -0.1093 -0.8144
   84MOL   C46940475   6.288   0.993   0.925  0.4966 -0.0219 -0.0211
   84MOL   C47040476   6.281   0.848   0.922  0.2867  0.2697  0.2361
   84MOL   C47140477   6.394   0.772   0.891 -0.1595  0.1638 -0.6021
   84MOL   C47240478   6.513   0.831   0.848  0.4214 -0.1432 -0.1511
   84MOL   O47340479   6.168   0.785   0.951 -0.4147  0.2483 -0.9051
   84MOL   H47440480   6.634   1.292   0.349  1.6681 -0.2983 -1.1336
   84MOL   H47540481   6.627   1.278   0.597  4.1615  0.5609  0.3207
   84MOL   H47640482   6.726   0.863   0.581  2.9345  1.7336  0.9936
   84MOL   H47740483   6.720   0.865   0.339 -0.4370 -0.9998  1.9588
   84MOL   H47840484   6.415   1.160   0.880 -1.4944 -0.0937 -1.4200
   84MOL   H47940485   6.209   1.058   0.960  1.9653  0.5163  2.4783
   84MOL   H48040486   6.386   0.665   0.882  1.1791 -0.0078  0.1732
   84MOL   H48140487   6.599   0.774   0.817  1.9079  0.8233  1.9894
   84MOL   H48240488   6.178   0.694   0.927  1.7381 -0.3809  2.0730
   85MOL     C140489   0.324   0.760   1.805 -0.3169  0.8591  0.2754
   85MOL     C240490   0.363   0.664   1.905 -1.6164  0.8102 -0.4465
   85MOL     C340491   0.399   0.535   1.865 -0.3030  0.5229 -1.1850
   85MOL     C440492   0.402   0.502   1.732 -0.7244  0.2296  0.0260
   85MOL     C540493   0.369   0.589   1.627  0.1493 -0.4226  0.2975
   85MOL     C640494   0.320   0.716   1.666 -0.3858 -0.3942 -0.4012
   85MOL     S740495   0.451   0.413   1.981  0.1962 -0.3533 -0.3235
   85MOL     O840496   0.581   0.461   2.028  0.8157 -0.3835 -1.1956
   85MOL     O940497   0.441   0.283   1.920 -0.2903 -0.1679 -0.5313
   85MOL    C1040498   0.327   0.427   2.107 -0.2648 -0.3387 -1.0065
   85MOL    C1140499   0.367   0.431   2.245 -0.3956 -0.0206 -0.0343
   85MOL    C1240500   0.273   0.438   2.347 -0.0036  0.1769  0.5085
   85MOL    C1340501   0.135   0.447   2.318 -0.8325 -0.1173  0.1872
   85MOL    C1440502   0.093   0.436   2.187  0.1156 -0.2439 -0.3008
   85MOL    C1540503   0.192   0.432   2.082  0.1528 -0.3528 -0.2700
   85MOL    O1640504   0.045   0.452   2.422 -0.7405 -0.2190 -0.1598
   85MOL    H1740505   0.303   0.860   1.841  0.0505  1.3498 -0.8524
   85MOL    H1840506   0.371   0.697   2.008 -0.4464  0.3541 -0.3854
   85MOL    H1940507   0.434   0.402   1.706  2.3959  1.3400 -0.5101
   85MOL    H2040508   0.367   0.555   1.525  0.7344 -2.2206  0.8675
   85MOL    H2140509   0.473   0.434   2.266 -0.5376  0.8181  0.5953
   85MOL    H2240510   0.322   0.446   2.443  0.3355  2.4349  0.1809
   85MOL    H2340511   8.413   0.441   2.165 -0.5668 -2.9508  2.0436
   85MOL    H2440512   0.162   0.433   1.978 -0.0916  0.7072 -0.2024
   85MOL    H2540513   0.282   0.788   1.595 -1.2916  0.7100  1.1665
   85MOL    C2640514   0.089   0.690   2.471  0.0115  0.0975  0.0055
   85MOL    C2740515   0.117   0.791   2.561  0.6035  0.1825 -0.2545
   85MOL    C2840516   0.092   0.772   2.699 -0.1573  0.2903 -0.0489
   85MOL    C2940517   0.052   0.646   2.745  0.7264  0.2451 -0.3073
   85MOL    C3040518   0.036   0.538   2.658 -0.5707 -0.0533  0.6262
   85MOL    C3140519   0.061   0.555   2.513  0.9954 -0.5377 -0.0466
   85MOL    S3240520   0.135   0.903   2.817  0.5124 -0.1244 -0.3115
   85MOL    O3340521   0.270   0.944   2.782 -0.1586 -0.7092 -0.0388
   85MOL    O3440522   0.116   0.854   2.956 -0.1954 -0.1027  0.5086
   85MOL    C3540523   0.024   1.044   2.794 -0.0496  0.3858 -0.9572
   85MOL    C3640524   0.066   1.163   2.732 -0.6325 -0.0558 -0.1315
   85MOL    C3740525   8.399   1.271   2.728  0.8662  0.1656  0.6630
   85MOL    C3840526   8.264   1.257   2.774  0.1387  0.0077  0.0031
   85MOL    C3940527   8.229   1.135   2.840 -0.2869 -0.2607  0.4914
   85MOL    C4040528   8.323   1.035   2.854 -0.3987 -0.4934  0.1503
   85MOL    O4140529   8.170   1.355   2.747  0.1107  0.5104 -0.3009
   85MOL    H4240530   0.097   0.708   2.365  0.0875  1.7986  0.2922
   85MOL    H4340531   0.136   0.893   2.529  1.9364 -0.3175 -1.1300
   85MOL    H4440532   0.051   0.628   2.851 -0.2567  0.3161 -0.3001
   85MOL    H4540533   0.015   0.437   2.691 -1.2591  0.6787  2.5087
   85MOL    H4640534   0.163   1.162   2.684  0.3781  0.4529  1.8140
   85MOL    H4740535   0.014   1.366   2.694  1.2360 -0.8381 -1.8875
   85MOL    H4840536   8.135   1.119   2.891 -0.9701  0.4492 -0.5259
   85MOL    H4940537   8.288   0.948   2.907  2.3961 -1.6723  0.1128
   85MOL    C5040538   8.159   1.533   2.907  0.2179 -0.0798  0.1263
   85MOL    C5140539   8.177   1.663   2.942 -0.6857 -0.1781  0.4493
   85MOL    C5240540   8.223   1.751   2.848 -0.1734 -0.1400 -0.1817
   85MOL    C5340541   8.251   1.716   2.717 -0.0468 -0.1314  0.4169
   85MOL    C5440542   8.236   1.581   2.682  0.0262  0.4215 -0.4783
   85MOL    C5540543   8.191   1.488   2.783  0.9301 -0.2195  0.2488
   85MOL    S5640544   8.262   1.917   2.895  0.1576 -0.1849  0.0995
   85MOL    O5740545   8.255   1.925   3.041  0.1169 -0.0089  0.2760
   85MOL    O5840546   8.175   2.012   2.817 -0.1899 -0.3516  0.1479
   85MOL    C5940547   0.016   1.948   2.851 -0.0719 -0.0436 -0.4928
   85MOL    C6040548   0.044   2.050   2.756  0.4168 -0.1232  0.0339
   85MOL    C6140549   0.181   2.069   2.720 -0.5729  0.2419 -0.1861
   85MOL    C6240550   0.281   1.987   2.782  0.6269 -0.5096 -0.6335
   85MOL    C6340551   0.248   1.892   2.877 -0.7192 -0.2782  0.7852
   85MOL    C6440552   0.111   1.860   2.906 -0.7752 -0.3965 -0.1100
   85MOL    O6540553   0.406   2.016   2.753  0.1971  0.3469 -0.8990
   85MOL    H6640554   8.116   1.471   2.984  0.8179 -1.1811 -0.4204
   85MOL    H6740555   8.167   1.696   3.045 -0.7679  4.6800 -0.9701
   85MOL    H6840556   8.278   1.791   2.644 -0.3715 -0.6976 -0.2955
   85MOL    H6940557   8.264   1.555   2.581  1.7698 -0.6533  0.2498
   85MOL    H7040558   8.387   2.102   2.708  2.1490  2.6074 -0.0661
   85MOL    H7140559   0.214   2.142   2.648  0.3782 -0.7201 -0.7431
   85MOL    H7240560   0.319   1.830   2.928  0.4282 -1.9497 -2.6817
   85MOL    H7340561   0.086   1.782   2.977  2.6891  0.7152  2.4820
   85MOL    C7440562   0.462   1.914   2.541 -0.0985 -0.7440  0.2471
   85MOL    C7540563   0.542   1.831   2.464 -1.0329 -0.4509 -0.2310
   85MOL    C7640564   0.654   1.765   2.522  0.5821 -0.3199  0.0793
   85MOL    C7740565   0.677   1.781   2.658  0.2051 -0.0445  0.1298
   85MOL    C7840566   0.582   1.848   2.740  0.1512  0.7024 -0.1572
   85MOL    C7940567   0.479   1.922   2.680  0.7156  0.2165 -0.3195
   85MOL    S8040568   0.748   1.656   2.417  0.1384 -0.1201  0.1012
   85MOL    O8140569   0.659   1.623   2.308  0.2925  0.3647 -0.2667
   85MOL    O8240570   0.798   1.555   2.516  0.0711  0.4230 -0.0907
   85MOL    C8340571   0.890   1.730   2.358 -0.3785  0.3189  0.3782
   85MOL    C8440572   1.006   1.653   2.343  0.3156  0.3676  0.2737
   85MOL    C8540573   1.130   1.706   2.293  0.4828 -0.5079 -0.3487
   85MOL    C8640574   1.133   1.845   2.255 -0.5685  0.4165  0.1178
   85MOL    C8740575   1.015   1.923   2.278 -0.2843  0.1424 -0.7452
   85MOL    C8840576   0.893   1.862   2.323  0.3604  0.5883  0.3835
   85MOL    O8940577   1.247   1.899   2.199  0.1457 -0.4678  0.1090
   85MOL    H9040578   0.386   1.974   2.493  0.3983  0.8523  1.4030
   85MOL    H9140579   0.522   1.820   2.359 -0.6852  1.2979 -0.5075
   85MOL    H9240580   0.761   1.739   2.711 -0.5383 -1.9071 -0.1380
   85MOL    H9340581   0.593   1.851   2.848 -1.9929  1.5483  0.0706
   85MOL    H9440582   0.995   1.552   2.378  0.9114  0.2801  0.2121
   85MOL    H9540583   1.210   1.635   2.281  1.7410  0.6077  1.3861
   85MOL    H9640584   1.022   2.028   2.251 -1.7582  0.8184  1.4011
   85MOL    H9740585   0.800   1.916   2.332 -0.9041 -1.3333 -0.9143
   85MOL    C9840586   1.261   1.826   1.971  0.3298  0.2157 -0.2114
   85MOL    C9940587   1.269   1.848   1.830 -0.3959 -0.2619 -0.0461
   85MOL   C10040588   1.248   1.980   1.782 -0.3590  0.1018 -0.3824
   85MOL   C10140589   1.239   2.088   1.879 -0.1828  0.3352  0.1635
   85MOL   C10240590   1.229   2.060   2.017  0.1161 -0.4299 -0.4335
   85MOL   C10340591   1.246   1.926   2.065 -0.5113 -0.1271 -0.1463
   85MOL   S10440592   1.250   2.027   1.607 -0.4066  0.2418 -0.2153
   85MOL   O10540593   1.321   1.925   1.533  0.5085  0.3510 -0.1475
   85MOL   O10640594   1.288   2.170   1.603 -0.1053 -0.1520 -0.6135
   85MOL   C10740595   1.072   2.018   1.578 -0.0008  0.0747  0.5318
   85MOL   C10840596   0.997   2.119   1.642  0.4082 -0.3559  0.3721
   85MOL   C10940597   0.856   2.108   1.628  0.2271 -0.3079 -0.1225
   85MOL   C11040598   0.800   2.025   1.531 -0.2942  0.6583  0.2314
   85MOL   C11140599   0.878   1.935   1.459 -0.5760  0.3118 -0.6723
   85MOL   C11240600   1.013   1.927   1.480 -0.1708 -1.3639 -0.1426
   85MOL   O11340601   0.667   2.027   1.506  0.4977 -0.1564  0.6171
   85MOL   H11440602   1.253   1.722   2.000  0.3216  0.0443 -0.8223
   85MOL   H11540603   1.266   1.778   1.748  1.2232 -0.9380  0.4445
   85MOL   H11640604   1.224   2.190   1.847  1.2153  0.4312 -0.2400
   85MOL   H11740605   1.213   2.143   2.085  0.3976 -0.4019 -0.4034
   85MOL   H11840606   1.048   2.192   1.703 -0.1039  0.5967 -0.3333
   85MOL   H11940607   0.796   2.184   1.676 -0.5432 -1.5805  0.9311
   85MOL   H12040608   0.843   1.883   1.371  2.9350 -0.3466 -1.7725
   85MOL   H12140609   1.066   1.854   1.421  2.8601  0.8159 -0.2541
   85MOL   C12240610   0.494   2.072   1.675  0.0415 -0.4558 -0.3686
   85MOL   C12340611   0.428   2.036   1.796  0.2250 -0.6484  0.1460
   85MOL   C12440612   0.464   1.914   1.859  0.1185 -0.5661  0.3205
   85MOL   C12540613   0.561   1.834   1.803  0.7126  0.6898  0.0327
   85MOL   C12640614   0.625   1.868   1.683  0.8223  0.2276  0.4961
   85MOL   C12740615   0.593   1.993   1.622  0.2286  0.2628 -0.0987
   85MOL   S12840616   0.387   1.855   2.013  0.2239  0.1074 -0.1814
   85MOL   O12940617   0.250   1.913   2.010 -0.2567 -0.6831 -0.4005
   85MOL   O13040618   0.480   1.883   2.117  0.0973  0.1946 -0.3843
   85MOL   C13140619   0.360   1.683   1.988 -0.1693 -0.2812  0.9901
   85MOL   C13240620   0.409   1.588   2.073 -0.1225 -0.6080  0.1684
   85MOL   C13340621   0.394   1.454   2.044  0.4722 -0.2930 -0.1291
   85MOL   C13440622   0.338   1.411   1.932 -0.4415 -0.0544  0.3357
   85MOL   C13540623   0.290   1.504   1.835  0.4185  0.3259  0.1862
   85MOL   C13640624   0.300   1.644   1.864 -0.1820  0.3310  0.3861
   85MOL   O13740625   0.307   1.278   1.926  0.9944  0.0961  0.4771
   85MOL   H13840626   0.476   2.163   1.619  4.5508  0.2553 -0.8602
   85MOL   H13940627   0.349   2.100   1.831  1.3437  1.2272 -0.6933
   85MOL   H14040628   0.577   1.745   1.862 -0.0120  2.0153  2.3160
   85MOL   H14140629   0.686   1.798   1.628  1.7365  2.7951 -1.8736
   85MOL   H14240630   0.457   1.611   2.168  0.3688 -0.1022 -0.1969
   85MOL   H14340631   0.425   1.374   2.110  0.1690 -0.5119 -0.2488
   85MOL   H14440632   0.248   1.469   1.741 -2.7544 -0.7522  1.9128
   85MOL   H14540633   0.269   1.727   1.803  0.7330  0.0071 -0.5293
   85MOL   C14640634   0.198   1.131   1.774  0.5018 -0.1455  0.9039
   85MOL   C14740635   0.095   1.077   1.698  0.3365 -0.0277 -0.2509
   85MOL   C14840636   8.394   1.134   1.720 -0.1712  0.6074  1.1315
   85MOL   C14940637   8.380   1.245   1.812 -0.1614 -0.1265 -0.2096
   85MOL   C15040638   0.065   1.298   1.884 -0.1650 -0.0911  0.6177
   85MOL   C15140639   0.191   1.236   1.869 -0.1360 -0.0242  0.3147
   85MOL   S15240640   8.250   1.085   1.636  0.4872  0.1496  0.2568
   85MOL   O15340641   8.161   1.020   1.732  0.0156 -0.0334  0.2045
   85MOL   O15440642   8.281   1.007   1.515 -0.2184 -0.5022 -0.3147
   85MOL   C15540643   8.168   1.241   1.588  0.6743 -0.3436  0.2915
   85MOL   C15640644   8.204   1.292   1.462  0.1723 -0.0543 -0.2535
   85MOL   C15740645   8.141   1.411   1.427  0.0205  0.2964  0.3451
   85MOL   C15840646   8.054   1.487   1.515 -1.0331  0.0091 -0.0683
   85MOL   C15940647   8.010   1.427   1.635 -0.8748 -0.3726  0.1248
   85MOL   C16040648   8.070   1.303   1.669  0.8078  0.3743 -0.1336
   85MOL   O16140649   8.009   1.608   1.473 -0.5274 -0.1187  0.3942
   85MOL   H16240650   0.295   1.088   1.752  0.5032  0.9575 -1.2792
   85MOL   H16340651   0.119   1.005   1.622 -0.8156 -3.3747  2.4482
   85MOL   H16440652   8.282   1.289   1.828  0.5620  2.0452 -1.5827
   85MOL   H16540653   0.051   1.387   1.943  1.1845  0.6375 -0.1372
   85MOL   H16640654   8.275   1.245   1.396  1.3783 -1.2896  1.8421
   85MOL   H16740655   8.178   1.457   1.337  0.5578 -0.6675  0.0710
   85MOL   H16840656   7.941   1.471   1.705 -0.8337 -1.0468  0.5981
   85MOL   H16940657   8.049   1.237   1.752  1.8044 -0.5950 -0.6360
   85MOL   C17040658   8.227   1.720   1.509 -0.7673  0.6209 -0.3845
   85MOL   C17140659   8.290   1.834   1.559  0.4238 -0.1655  0.1474
   85MOL   C17240660   8.223   1.939   1.608  1.0163 -0.3422 -0.1323
   85MOL   C17340661   8.080   1.938   1.598  0.6016  0.1891  0.1342
   85MOL   C17440662   8.007   1.827   1.545  0.0306  0.2223 -0.1017
   85MOL   C17540663   8.086   1.716   1.513  0.4143 -0.7280  0.8582
   85MOL   S17640664   8.307   2.079   1.676  0.1170  0.2590  0.4427
   85MOL   O17740665   8.225   2.195   1.640 -0.3824 -0.0324 -0.6020
   85MOL   O17840666   0.019   2.078   1.628 -0.4793  0.2052  0.1373
   85MOL   C17940667   8.309   2.056   1.858  0.1827 -0.7190 -0.0798
   85MOL   C18040668   8.367   1.937   1.914  0.1647  0.4084  0.1376
   85MOL   C18140669   8.385   1.922   2.053  0.2496  0.5417 -0.1997
   85MOL   C18240670   8.349   2.022   2.138 -0.1842  0.3718  0.7142
   85MOL   C18340671   8.287   2.143   2.089 -0.6363 -0.1677  0.2466
   85MOL   C18440672   8.266   2.156   1.946 -0.4450  0.6780 -0.6554
   85MOL   O18540673   8.384   2.007   2.271 -0.2377 -0.2603 -0.0541
   85MOL   H18640674   8.277   1.638   1.460  0.7559  0.8962  0.6486
   85MOL   H18740675   8.397   1.834   1.566  0.5290 -0.7158 -1.2417
   85MOL   H18840676   8.026   2.018   1.647 -0.5311  0.7508 -1.9678
   85MOL   H18940677   7.899   1.822   1.542 -0.0179  0.6189  0.8711
   85MOL   H19040678   8.397   1.858   1.847 -1.9562 -0.0423 -0.3398
   85MOL   H19140679   0.013   1.839   2.096 -1.4444 -0.4070  0.0809
   85MOL   H19240680   8.247   2.221   2.151 -2.5614  1.4327 -2.8924
   85MOL   H19340681   8.215   2.240   1.901 -2.4494  0.0492  0.4013
   85MOL   C19440682   8.181   1.915   2.373  0.3607  0.4739  0.0261
   85MOL   C19540683   8.076   1.940   2.460  0.3676 -0.1339 -1.2773
   85MOL   C19640684   8.060   2.057   2.536 -0.3625  1.1808 -0.5754
   85MOL   C19740685   8.152   2.156   2.518 -0.5900 -0.3519 -0.0155
   85MOL   C19840686   8.269   2.135   2.435  0.2836 -0.0087 -0.3284
   85MOL   C19940687   8.280   2.013   2.363 -0.5576  0.1681  0.5710
   85MOL   S20040688   7.903   2.090   2.628  0.0886  0.0014 -0.1662
   85MOL   O20140689   7.841   1.960   2.667 -0.5581 -0.5578  0.0374
   85MOL   O20240690   7.835   2.195   2.549  0.0877 -0.0965  0.3772
   85MOL   C20340691   7.929   2.182   2.781 -0.8662  0.0884  0.2320
   85MOL   C20440692   7.961   2.320   2.781  0.5989 -0.2313 -0.3931
   85MOL   C20540693   7.996   2.385   2.903 -0.0064 -0.0724 -0.1512
   85MOL   C20640694   7.991   2.311   3.027 -0.1648  0.0534 -0.0350
   85MOL   C20740695   7.955   2.173   3.029  0.7431  0.8251 -0.5396
   85MOL   C20840696   7.920   2.113   2.907  0.0432  0.0917  0.2074
   85MOL   O20940697   8.018   2.367   3.144  0.1034  0.0529  0.1602
   85MOL   H21040698   8.188   1.827   2.310 -0.9786 -0.0365  0.5790
   85MOL   H21140699   7.995   1.869   2.474  1.3301 -1.1259 -0.6454
   85MOL   H21240700   8.132   2.253   2.562  0.9772 -1.0449  2.3044
   85MOL   H21340701   8.333   2.222   2.430 -0.6033  0.7251  0.5989
   85MOL   H21440702   7.954   2.379   2.691 -1.9816  0.0520 -0.0316
   85MOL   H21540703   8.011   2.492   2.899 -3.3186  0.3872 -4.1835
   85MOL   H21640704   7.936   2.124   3.124 -3.8972 -0.2442 -1.8805
   85MOL   H21740705   7.884   2.012   2.904 -0.8732  0.4172 -0.1370
   85MOL   C21840706   8.249   2.299   3.169 -0.0941  0.4288  0.0705
   85MOL   C21940707   8.378   2.325   3.219 -0.5980  0.1039  0.4620
   85MOL   C22040708   8.409   2.454   3.267  0.7020  0.6517 -0.3726
   85MOL   C22140709   8.308   2.549   3.276 -0.0780 -0.2052 -0.2225
   85MOL   C22240710   8.178   2.516   3.232  0.1646 -0.0532 -0.0792
   85MOL   C22340711   8.144   2.394   3.178  0.0434 -0.0777 -0.2140
   85MOL   S22440712   0.153   2.490   3.335 -0.2336 -0.7826  0.2097
   85MOL   O22540713   0.157   2.628   3.377 -0.2028  0.0320  0.3193
   85MOL   O22640714   0.247   2.452   3.221 -0.0107  0.0095 -0.2106
   85MOL   C22740715   0.166   2.382   3.474  0.2331 -0.3066 -0.1938
   85MOL   C22840716   0.059   2.341   3.546  0.4254 -0.1644 -0.3928
   85MOL   C22940717   0.078   2.272   3.664  0.0812  0.5760  0.1471
   85MOL   C23040718   0.200   2.245   3.719  0.1308  0.3377  0.2475
   85MOL   C23140719   0.313   2.293   3.650 -0.3775 -0.0801  0.9955
   85MOL   C23240720   0.295   2.366   3.528  0.0355 -0.1915 -0.3429
   85MOL   O23340721   0.207   2.158   3.826  0.7195  0.0376  0.1444
   85MOL   H23440722   8.233   2.201   3.127 -0.6700 -0.2143  1.7519
   85MOL   H23540723   0.027   2.247   3.221 -0.1313  0.5007 -0.7977
   85MOL   H23640724   8.328   2.641   3.328 -1.8850  0.9153 -1.4702
   85MOL   H23740725   8.100   2.591   3.239 -0.6416 -0.5602 -2.9751
   85MOL   H23840726   8.381   2.363   3.522  0.3256 -0.9358 -0.7237
   85MOL   H23940727   0.002   2.223   3.723  0.3809  0.7158  0.6605
   85MOL   H24040728   0.411   2.274   3.691 -0.4735 -3.1649 -0.1125
   85MOL   H24140729   0.384   2.410   3.484 -0.3013  2.0328  1.1298
   85MOL   C24240730   0.276   2.277   4.021  0.1904  0.4638  0.4126
   85MOL   C24340731   0.376   2.299   4.112  0.1277 -0.1869 -0.1448
   85MOL   C24440732   0.472   2.191   4.135 -0.0225 -0.0324  0.0214
   85MOL   C24540733   0.472   2.074   4.057 -0.3480  0.6148 -0.4552
   85MOL   C24640734   0.373   2.058   3.956  0.1790 -0.1945  0.6959
   85MOL   C24740735   0.282   2.167   3.934 -0.1660 -0.1062  0.3677
   85MOL   S24840736   0.584   2.208   4.274  0.2572  0.1478  0.0650
   85MOL   O24940737   0.652   2.076   4.284  0.0510  0.1685  0.3444
   85MOL   O25040738   0.507   2.256   4.391  0.1107 -0.4352 -0.6398
   85MOL   C25140739   0.705   2.334   4.231  0.3928 -0.8046 -0.4024
   85MOL   C25240740   0.732   2.357   4.091  0.1165 -0.4910  0.4967
   85MOL   C25340741   0.821   2.458   4.055 -0.2971 -0.3406 -0.0986
   85MOL   C25440742   0.883   2.531   4.159  0.6848  0.7918  0.1509
   85MOL   C25540743   0.855   2.504   4.295 -0.0213  0.9824  0.4846
   85MOL   C25640744   0.765   2.406   4.336 -0.3877 -0.1275  0.7145
   85MOL   O25740745   0.964   2.637   4.140  0.2271 -0.5467 -0.3356
   85MOL   H25840746   0.197   2.350   4.003 -1.0373 -0.4414  2.0440
   85MOL   H25940747   0.397   2.385   4.173  1.0024 -0.2934 -0.2797
   85MOL   H26040748   0.544   1.997   4.083  0.4748  1.8599  0.9882
   85MOL   H26140749   0.366   1.972   3.891 -0.9570 -0.8651  1.6895
   85MOL   H26240750   0.687   2.293   4.016 -0.7453 -0.2997  0.8577
   85MOL   H26340751   0.839   2.472   3.950  2.1174  1.4146  0.5213
   85MOL   H26440752   0.909   2.566   4.365  1.1020  0.4062  0.1478
   85MOL   H26540753   0.736   2.390   4.439  0.6414 -0.2604  0.9813
   85MOL   C26640754   0.857   2.764   3.969 -0.5729  0.7807 -0.6801
   85MOL   C26740755   0.862   2.823   3.841  0.5362  0.8165 -0.7429
   85MOL   C26840756   0.974   2.788   3.747 -0.2438 -0.6462 -0.0250
   85MOL   C26940757   1.081   2.705   3.785 -0.3578 -0.4793  0.3047
   85MOL   C27040758   1.078   2.656   3.915 -0.2298 -0.0161 -0.4139
   85MOL   C27140759   0.968   2.689   4.011 -1.1402  0.8614  0.4768
   85MOL   S27240760   0.986   2.864   3.580 -0.0069  0.0018 -0.1348
   85MOL   O27340761   0.879   2.793   3.503  0.2213 -0.3683 -0.2068
   85MOL   O27440762   1.126   2.890   3.534  0.8728  0.2741 -0.6777
   85MOL   C27540763   0.925   3.032   3.620  0.1748  0.0674 -0.1225
   85MOL   C27640764   0.801   3.083   3.570  0.0956 -0.0235  0.1602
   85MOL   C27740765   0.754   3.208   3.617  0.0964  0.6456 -0.2031
   85MOL   C27840766   0.829   3.287   3.707  0.6614  0.0180  0.5755
   85MOL   C27940767   0.951   3.237   3.761 -0.9630 -0.0030 -1.1080
   85MOL   C28040768   0.997   3.109   3.714  0.8425 -0.0574  0.6555
   85MOL   O28140769   0.790   3.415   3.741  0.4960  0.7139  0.5327
   85MOL   H28240770   0.773   2.786   4.032  0.6688 -1.8653  2.0585
   85MOL   H28340771   0.779   2.878   3.800 -0.5145 -0.3318 -0.1506
   85MOL   H28440772   1.164   2.687   3.720 -0.8915 -0.8060 -0.2928
   85MOL   H28540773   1.157   2.588   3.945 -1.6840 -0.2120  3.3182
   85MOL   H28640774   0.740   3.016   3.511 -1.3035 -0.7801  2.4087
   85MOL   H28740775   0.656   3.245   3.592 -0.7591 -1.0227  0.5830
   85MOL   H28840776   1.005   3.301   3.829  0.1442 -0.7862 -1.2343
   85MOL   H28940777   1.085   3.065   3.757 -0.2539 -0.2522  2.7203
   85MOL   C29040778   0.684   3.563   3.893 -0.5387  0.4157  0.2135
   85MOL   C29140779   0.641   3.594   4.023  0.2841 -0.4216 -0.0826
   85MOL   C29240780   0.654   3.499   4.127 -0.5573 -0.8352  0.0551
   85MOL   C29340781   0.715   3.372   4.095 -0.4554 -0.3931  0.1594
   85MOL   C29440782   0.759   3.339   3.969 -0.4426  0.1121  0.3458
   85MOL   C29540783   0.744   3.435   3.868 -0.5527  0.1002 -0.3715
   85MOL   S29640784   0.585   3.531   4.295 -0.0655  0.1273  0.1503
   85MOL   O29740785   0.680   3.469   4.388  0.7313  0.3244 -0.9638
   85MOL   O29840786   0.444   3.491   4.296  0.2522 -0.0397  0.1299
   85MOL   C29940787   0.592   3.706   4.315 -0.5155 -0.0264 -0.5406
   85MOL   C30040788   0.484   3.781   4.354 -0.4036 -0.0026 -0.2537
   85MOL   C30140789   0.490   3.923   4.349 -0.4757  0.9047 -0.5261
   85MOL   C30240790   0.615   3.984   4.325 -0.4748 -0.1363  0.1408
   85MOL   C30340791   0.728   3.910   4.314 -0.1458  0.2682  1.0109
   85MOL   C30440792   0.719   3.768   4.305 -0.3867 -0.9174  0.5830
   85MOL   O30540793   0.618   4.120   4.311  0.1184  0.1720 -0.2689
   85MOL   H30640794   0.674   3.639   3.818  3.2738  0.9080  0.0921
   85MOL   H30740795   0.601   3.691   4.047  1.4168  0.7836 -2.9306
   85MOL   H30840796   0.715   3.299   4.175  0.7854  1.5683  1.9948
   85MOL   H30940797   0.797   3.239   3.951  0.0440  0.4796 -0.7563
   85MOL   H31040798   0.388   3.731   4.362 -0.0469 -0.7671 -0.7581
   85MOL   H31140799   0.401   3.980   4.373 -1.2805  0.8684 -3.3318
   85MOL   H31240800   0.821   3.964   4.300 -0.5971  0.5118 -1.1025
   85MOL   H31340801   0.810   3.720   4.273  1.1553  0.8546  2.2600
   85MOL   C31440802   0.716   4.229   4.507  0.6231 -0.2435  0.0122
   85MOL   C31540803   0.711   4.332   4.598 -0.0288 -0.1865 -0.1253
   85MOL   C31640804   0.592   4.405   4.614  0.4194  0.4042 -0.5922
   85MOL   C31740805   0.475   4.369   4.550  0.0205  0.3404  0.1209
   85MOL   C31840806   0.488   4.268   4.453  0.2337 -0.1511 -0.4817
   85MOL   C31940807   0.606   4.197   4.422 -0.0727 -0.1638 -0.6984
   85MOL   S32040808   0.588   4.552   4.717  0.1318 -0.1730  0.2505
   85MOL   O32140809   0.513   4.657   4.644  0.1787 -0.2847  0.5766
   85MOL   O32240810   0.724   4.584   4.767 -0.0666 -0.0723 -0.2966
   85MOL   C32340811   0.496   4.527   4.864 -0.1074 -0.5375 -0.6168
   85MOL   C32440812   0.560   4.548   4.988 -0.4014  0.6706  0.5363
   85MOL   C32540813   0.481   4.531   5.106 -0.2994  0.5780  0.0784
   85MOL   C32640814   0.346   4.501   5.099 -0.2448 -0.3852 -0.2313
   85MOL   C32740815   0.286   4.490   4.971 -0.2938 -0.0168 -0.4590
   85MOL   C32840816   0.358   4.503   4.855  0.5454 -0.2141 -0.0168
   85MOL   O32940817   0.264   4.488   5.204 -0.3410 -0.5303  0.0729
   85MOL   H33040818   0.814   4.182   4.502  0.6052 -0.5267  1.7970
   85MOL   H33140819   0.806   4.359   4.641  0.8683 -0.3501 -1.9601
   85MOL   H33240820   0.390   4.426   4.583  1.8314  1.3765  3.2798
   85MOL   H33340821   0.400   4.236   4.399 -0.6466 -0.5235  1.1444
   85MOL   H33440822   0.664   4.576   4.996 -0.4314  0.9447  0.0100
   85MOL   H33540823   0.529   4.552   5.200  0.7421  1.1993 -0.5800
   85MOL   H33640824   0.179   4.483   4.962 -0.4032  2.4724 -1.2523
   85MOL   H33740825   0.297   4.505   4.766  0.1209  1.2472  0.2888
   85MOL   C33840826   0.301   4.263   5.283  0.8823  0.3879 -0.1492
   85MOL   C33940827   0.251   4.135   5.324 -0.2466  0.2378 -0.4113
   85MOL   C34040828   0.107   4.122   5.328 -0.4192 -0.1737  0.0558
   85MOL   C34140829   0.023   4.221   5.274 -0.3252 -0.1677 -0.1863
   85MOL   C34240830   0.080   4.339   5.221  0.5497  0.2329  0.0653
   85MOL   C34340831   0.216   4.363   5.226 -0.2144 -0.3808 -0.1062
   85MOL   S34440832   0.026   3.974   5.388 -0.2225 -0.0137  0.0868
   85MOL   O34540833   0.078   3.862   5.309 -0.4129 -0.1102 -0.8998
   85MOL   O34640834   8.306   4.000   5.402  0.5199 -0.3435  0.1207
   85MOL   C34740835   0.086   3.951   5.557  0.2788  0.2187 -0.2850
   85MOL   C34840836   0.118   4.063   5.641 -0.4268 -0.0679  0.3390
   85MOL   C34940837   0.178   4.042   5.766 -0.2988 -0.4376  0.0757
   85MOL   C35040838   0.200   3.907   5.806  0.2704  0.6921 -0.3699
   85MOL   C35140839   0.135   3.802   5.736 -0.0359  0.3168  0.3508
   85MOL   C35240840   0.087   3.822   5.609  0.0553  0.0682 -0.4110
   85MOL   O35340841   0.277   3.870   5.917 -0.0119 -0.0891 -0.3362
   85MOL   H35440842   0.405   4.289   5.291  0.7475  1.2009 -0.8814
   85MOL   H35540843   0.318   4.059   5.362 -2.3588 -1.5914 -0.2175
   85MOL   H35640844   8.342   4.206   5.287 -0.1483 -2.2694 -0.9805
   85MOL   H35740845   0.016   4.411   5.172  0.2138 -0.0209  0.1330
   85MOL   H35840846   0.103   4.167   5.614  2.2855  0.4427  0.6636
   85MOL   H35940847   0.211   4.127   5.823  1.8133 -0.4098 -1.1644
   85MOL   H36040848   0.138   3.704   5.779 -1.1740 -0.9883 -2.3827
   85MOL   H36140849   0.046   3.752   5.537  0.1435  0.8447 -1.2151
   85MOL   C36240850   0.495   3.955   5.829 -0.5227 -0.2613 -0.9811
   85MOL   C36340851   0.623   4.002   5.854 -0.1337 -0.4872 -0.4579
   85MOL   C36440852   0.662   4.020   5.986  0.9028 -0.3215 -1.1216
   85MOL   C36540853   0.578   3.986   6.097 -0.0868  0.0464  0.1333
   85MOL   C36640854   0.446   3.936   6.068 -1.2806 -0.1905 -0.6002
   85MOL   C36740855   0.403   3.922   5.935 -0.5755  0.5756 -0.2692
   85MOL   S36840856   0.815   4.082   6.027  0.4963 -0.0432  0.1847
   85MOL   O36940857   0.905   3.969   6.052  0.3484 -0.8426 -0.0916
   85MOL   O37040858   0.794   4.186   6.130 -0.2835 -0.0162 -0.0543
   85MOL   C37140859   0.877   4.170   5.883 -0.6983 -0.0577  0.7022
   85MOL   C37240860   0.812   4.284   5.835  0.2052 -0.2366 -0.7002
   85MOL   C37340861   0.859   4.342   5.713  0.4164 -0.1176 -1.0511
   85MOL   C37440862   0.972   4.291   5.646 -0.1953 -0.2605 -0.3509
   85MOL   C37540863   1.042   4.179   5.697  0.2607  0.3670  0.1244
   85MOL   C37640864   0.990   4.116   5.814  0.1098  0.0310  0.2340
   85MOL   O37740865   1.018   4.339   5.528  1.2154 -0.1809 -0.1679
   85MOL   H37840866   0.473   3.926   5.727 -2.5242 -2.8108  0.1011
   85MOL   H37940867   0.694   4.018   5.774  0.4420 -0.4683  0.0542
   85MOL   H38040868   0.600   4.001   6.201  0.8173 -1.6894  0.2059
   85MOL   H38140869   0.373   3.911   6.143 -0.5914 -0.3290  0.0286
   85MOL   H38240870   0.720   4.319   5.881  1.0721  0.7347  0.3462
   85MOL   H38340871   0.814   4.427   5.664  0.1213  1.2073  1.4609
   85MOL   H38440872   1.124   4.128   5.649  0.2791 -0.5124  1.0687
   85MOL   H38540873   1.039   4.029   5.855 -0.8967 -0.8962 -0.5028
   85MOL   C38640874   1.225   4.382   5.417 -0.0452 -0.2462 -0.1616
   85MOL   C38740875   1.338   4.475   5.387  1.1787 -0.0464 -0.5765
   85MOL   C38840876   1.356   4.588   5.470  0.0205  0.5720 -0.1414
   85MOL   C38940877   1.260   4.612   5.573 -0.4059 -0.3243 -0.2851
   85MOL   C39040878   1.148   4.531   5.590  1.0650  0.1198 -0.1245
   85MOL   C39140879   1.133   4.413   5.522 -0.1449 -0.5608 -0.3476
   85MOL   S39240880   1.483   4.710   5.450 -0.2848 -0.5530 -0.1644
   85MOL   O39340881   1.586   4.667   5.356  0.5298  0.4344  0.5426
   85MOL   O39440882   1.525   4.740   5.587 -0.3268  0.3501  0.0337
   85MOL   C39540883   1.415   4.861   5.388  0.1373 -0.1650  0.2403
   85MOL   C39640884   1.281   4.880   5.354  0.2875 -0.4988  0.2269
   85MOL   C39740885   1.240   4.995   5.290 -0.1941  0.1006  0.9663
   85MOL   C39840886   1.339   5.095   5.255 -0.2820 -0.2551  0.0693
   85MOL   C39940887   1.474   5.086   5.288  0.2445  0.0728  0.3376
   85MOL   C40040888   1.509   4.960   5.345 -0.1520 -0.2882  0.0047
   85MOL   O40140889   1.288   5.200   5.185 -0.0479 -0.3636  0.6317
   85MOL   H40240890   1.216   4.293   5.357 -0.3177  0.1250 -0.6735
   85MOL   H40340891   1.401   4.447   5.304  1.1215  0.5471 -0.8173
   85MOL   H40440892   1.273   4.703   5.631  3.4062  0.8393 -2.7569
   85MOL   H40540893   1.080   4.568   5.665 -1.0710  2.2233 -2.9917
   85MOL   H40640894   1.211   4.799   5.368 -0.8214  0.3358 -0.4904
   85MOL   H40740895   1.140   4.995   5.248 -0.4713  0.9865  1.6150
   85MOL   H40840896   1.546   5.164   5.270 -0.2257  0.3633 -0.3117
   85MOL   H40940897   1.612   4.934   5.363 -0.1536 -0.7149 -0.6074
   85MOL   C41040898   1.340   5.119   4.961  0.9016 -0.1816  0.6524
   85MOL   C41140899   1.371   5.151   4.822 -0.1651 -0.4679  0.0704
   85MOL   C41240900   1.389   5.288   4.786 -0.3004 -0.4081 -0.6505
   85MOL   C41340901   1.365   5.389   4.882  0.5493 -0.2620 -0.3358
   85MOL   C41440902   1.341   5.358   5.020 -0.0058  0.2874  0.2173
   85MOL   C41540903   1.327   5.226   5.056  0.1689  0.0152  0.0515
   85MOL   S41640904   1.423   5.339   4.617 -0.0039 -0.4564  0.4891
   85MOL   O41740905   1.446   5.482   4.619  0.0947  0.5701  0.3798
   85MOL   O41840906   1.313   5.289   4.538  0.0224 -0.0215 -0.3294
   85MOL   C41940907   1.573   5.252   4.575  0.5653 -0.0917  0.4823
   85MOL   C42040908   1.567   5.119   4.532 -0.1737  0.8425  0.0202
   85MOL   C42140909   1.692   5.053   4.505  0.1855  0.4908  0.1752
   85MOL   C42240910   1.815   5.122   4.522 -0.4829  1.0118  0.5978
   85MOL   C42340911   1.813   5.258   4.554 -0.3480 -0.1532 -0.1951
   85MOL   C42440912   1.695   5.321   4.577 -0.8286  0.2126 -0.0085
   85MOL   O42540913   1.927   5.057   4.484 -0.3394 -0.2220  0.7128
   85MOL   H42640914   1.334   5.019   5.001 -1.9485  0.5478  2.1765
   85MOL   H42740915   1.377   5.073   4.748 -0.2633 -0.6643  0.2708
   85MOL   H42840916   1.396   5.492   4.871  2.5374 -0.9033 -1.0634
   85MOL   H42940917   1.324   5.441   5.087 -1.2355 -0.6540  1.0808
   85MOL   H43040918   1.473   5.066   4.533  0.7740 -0.9019  2.1344
   85MOL   H43140919   1.686   4.948   4.480 -2.3422  0.0774  2.2749
   85MOL   H43240920   1.908   5.309   4.555  0.2074 -1.1569 -0.4548
   85MOL   H43340921   1.700   5.425   4.607 -3.8922  0.9632 -1.9048
   85MOL   C43440922   1.984   5.003   4.724 -0.0300  0.0306 -0.0849
   85MOL   C43540923   2.061   4.917   4.807  0.3296  0.4162 -0.5130
   85MOL   C43640924   2.140   4.812   4.757 -0.1567  0.2611  0.0018
   85MOL   C43740925   2.143   4.790   4.621  0.2303  0.1892  0.2467
   85MOL   C43840926   2.059   4.868   4.537 -0.0891 -0.0226  0.4409
   85MOL   C43940927   1.987   4.982   4.584 -0.2857  0.0106  0.2087
   85MOL   S44040928   2.219   4.701   4.876 -0.5414 -0.0114  0.1522
   85MOL   O44140929   2.340   4.643   4.813  0.8726 -0.2793  0.5500
   85MOL   O44240930   2.121   4.609   4.930 -0.2921 -0.0342 -0.2199
   85MOL   C44340931   2.265   4.797   5.023 -0.0816 -0.2705  1.3822
   85MOL   C44440932   2.394   4.852   5.030 -0.0697 -0.0105  0.1207
   85MOL   C44540933   2.430   4.938   5.137 -0.0846  0.5732  0.1147
   85MOL   C44640934   2.332   4.966   5.232 -0.0082 -0.1705 -0.1629
   85MOL   C44740935   2.199   4.919   5.221  0.7152  0.4648 -1.2372
   85MOL   C44840936   2.162   4.828   5.115 -0.3636 -0.1583 -0.2564
   85MOL   O44940937   2.362   5.038   5.341 -0.5390 -0.0980 -0.5022
   85MOL   H45040938   1.919   5.077   4.768 -0.5372 -1.7292  2.2106
   85MOL   H45140939   2.049   4.936   4.913  1.4611  1.1385 -0.5078
   85MOL   H45240940   2.208   4.709   4.590 -0.4234  0.3015 -1.4768
   85MOL   H45340941   2.065   4.848   4.431 -0.7696  0.1583  0.3689
   85MOL   H45440942   2.461   4.829   4.948  0.1718  1.7218 -0.1921
   85MOL   H45540943   2.534   4.967   5.137  0.2541 -0.5847  1.2536
   85MOL   H45640944   2.129   4.945   5.300 -0.8990  1.9987 -3.1218
   85MOL   H45740945   2.066   4.778   5.110  0.7489 -2.4688  0.3678
   85MOL   C45840946   2.364   5.276   5.298 -0.2793 -0.5456 -0.0355
   85MOL   C45940947   2.430   5.398   5.307 -0.1595 -0.4875 -0.0526
   85MOL   C46040948   2.563   5.401   5.344 -0.8822 -0.1374 -0.2443
   85MOL   C46140949   2.633   5.282   5.375  0.5461 -0.3675 -0.4021
   85MOL   C46240950   2.563   5.161   5.369 -0.0742 -0.1513  0.2813
   85MOL   C46340951   2.426   5.155   5.335 -0.0099  0.4418  0.2504
   85MOL   S46440952   2.657   5.552   5.340 -0.2537  0.3735 -0.2473
   85MOL   O46540953   2.585   5.643   5.251  0.5577 -0.1902 -0.3724
   85MOL   O46640954   2.798   5.522   5.312  0.2125 -0.2163 -0.3129
   85MOL   C46740955   2.635   5.619   5.505  0.7184  0.2044  0.2284
   85MOL   C46840956   2.739   5.615   5.601 -0.5755 -0.3423 -0.3141
   85MOL   C46940957   2.725   5.659   5.738 -0.2718 -0.1330 -0.1285
   85MOL   C47040958   2.603   5.711   5.775  0.2438 -0.1456  0.1428
   85MOL   C47140959   2.493   5.703   5.687 -0.4606  0.2440  0.0599
   85MOL   C47240960   2.511   5.655   5.558  0.0729  0.3839 -0.3856
   85MOL   O47340961   2.592   5.769   5.897  0.1625  0.3751  0.0189
   85MOL   H47440962   2.265   5.284   5.257 -0.2429  0.6282  0.0657
   85MOL   H47540963   2.379   5.488   5.275 -2.4259 -1.7730 -0.1972
   85MOL   H47640964   2.739   5.282   5.394  0.0939  0.3324  2.3375
   85MOL   H47740965   2.623   5.077   5.400  1.2912  1.1938  1.3830
   85MOL   H47840966   2.837   5.589   5.565  0.1023  2.8649 -0.8858
   85MOL   H47940967   2.809   5.650   5.806 -1.2091 -0.8180  0.9417
   85MOL   H48040968   2.398   5.723   5.735 -1.7232 -1.8245 -1.4776
   85MOL   H48140969   2.424   5.664   5.493 -0.0164 -1.4837 -0.5550
   85MOL   H48240970   2.672   5.765   5.948  0.9702 -0.1563 -1.2463
   86MOL     C140971   0.435   2.951   2.545  1.0717  0.0970  0.2396
   86MOL     C240972   0.430   3.089   2.567 -0.2029 -0.2318 -0.1060
   86MOL     C340973   0.380   3.142   2.683  0.7934  0.6126 -0.1828
   86MOL     C440974   0.334   3.054   2.788 -0.2540  0.4122 -0.3887
   86MOL     C540975   0.354   2.914   2.773  1.1504  0.2826 -0.1656
   86MOL     C640976   0.399   2.864   2.652 -0.5383 -0.0082 -0.8850
   86MOL     S740977   0.345   3.315   2.686  0.2604  0.3619 -0.4390
   86MOL     O840978   0.471   3.379   2.649 -0.2342  0.2658 -0.3222
   86MOL     O940979   0.282   3.340   2.815  0.3556 -0.3053  0.1626
   86MOL    C1040980   0.224   3.353   2.548 -0.6609 -0.2443 -0.1684
   86MOL    C1140981   0.171   3.486   2.550  0.0185  0.3247  0.1400
   86MOL    C1240982   0.080   3.529   2.450  0.3894  0.1387 -0.4120
   86MOL    C1340983   0.044   3.437   2.349  0.8427  0.3844 -0.7969
   86MOL    C1440984   0.092   3.304   2.346  0.5726 -0.5134 -0.1060
   86MOL    C1540985   0.179   3.263   2.447 -0.0984  0.5485  0.1020
   86MOL    O1640986   8.371   3.467   2.259 -0.3487  0.1994 -0.6321
   86MOL    H1740987   0.470   2.901   2.456  1.4536  0.7200  0.0348
   86MOL    H1840988   0.459   3.158   2.489 -3.4210  0.3335 -0.8781
   86MOL    H1940989   0.293   3.087   2.882 -0.5776  0.4322 -0.5372
   86MOL    H2040990   0.322   2.850   2.854  0.6427 -0.2830 -0.8067
   86MOL    H2140991   0.189   3.549   2.636 -1.2731  2.4221 -1.0889
   86MOL    H2240992   0.043   3.630   2.459 -0.6011 -0.3176  0.7492
   86MOL    H2340993   0.049   3.236   2.274  2.3282 -0.9724 -0.7521
   86MOL    H2440994   0.220   3.163   2.434  1.0339  1.1150 -0.8033
   86MOL    H2540995   0.405   2.756   2.641 -2.0317 -0.0987 -0.8868
   86MOL    C2640996   8.180   3.435   2.407  0.1877 -0.3005  0.2459
   86MOL    C2740997   8.060   3.370   2.438 -0.0076 -0.0706 -0.1599
   86MOL    C2840998   7.996   3.287   2.342  0.1852 -0.5821 -1.2371
   86MOL    C2940999   8.052   3.283   2.210  0.0960  0.3474 -0.1736
   86MOL    C3041000   8.184   3.337   2.190  0.0583  0.2449 -0.1749
   86MOL    C3141001   8.249   3.412   2.287  0.6383 -0.3980 -0.4087
   86MOL    S3241002   7.832   3.206   2.378  0.4490 -0.0362 -0.1159
   86MOL    O3341003   7.776   3.277   2.494  0.3447  0.2680 -0.4585
   86MOL    O3441004   7.858   3.060   2.392  0.6541 -0.1934  0.0941
   86MOL    C3541005   7.721   3.229   2.236  0.1573 -0.0048 -0.4325
   86MOL    C3641006   7.737   3.146   2.120  0.3011 -0.4532  0.5718
   86MOL    C3741007   7.647   3.162   2.011  0.1634 -0.0000 -0.1219
   86MOL    C3841008   7.539   3.254   2.022  0.2841 -0.5859  0.0768
   86MOL    C3941009   7.521   3.332   2.139 -0.0524  0.0176 -0.1438
   86MOL    C4041010   7.610   3.317   2.242 -0.1356 -0.0542  0.4445
   86MOL    O4141011   7.455   3.267   1.911  0.1385  0.0804 -0.2277
   86MOL    H4241012   8.222   3.495   2.486 -2.7508 -0.0485  1.7002
   86MOL    H4341013   8.009   3.387   2.531 -0.0328  0.9019 -0.3434
   86MOL    H4441014   8.000   3.244   2.124 -2.1487  1.7750  0.4964
   86MOL    H4541015   8.231   3.321   2.094 -1.9720  3.1215 -1.7289
   86MOL    H4641016   7.809   3.065   2.118  1.6273  0.6724  1.2301
   86MOL    H4741017   7.665   3.107   1.920  1.0099 -1.9309  1.1952
   86MOL    H4841018   7.434   3.397   2.148 -0.6111 -0.6797 -0.4360
   86MOL    H4941019   7.594   3.373   2.333  2.6539  0.7982  0.4756
   86MOL    C5041020   7.210   3.283   1.926  0.1389 -0.2190 -0.0176
   86MOL    C5141021   7.085   3.224   1.946 -0.1147  0.2747  0.9088
   86MOL    C5241022   7.078   3.082   1.958  0.8136  0.2152  0.2527
   86MOL    C5341023   7.195   3.008   1.956  0.3097 -0.0876  0.0551
   86MOL    C5441024   7.327   3.064   1.943  0.3484  0.0590  0.6317
   86MOL    C5541025   7.327   3.208   1.926 -0.7084  0.5310 -0.2475
   86MOL    S5641026   6.923   3.001   1.986  0.2835 -0.0916 -0.0313
   86MOL    O5741027   6.878   3.049   2.121  0.3219 -0.5917  0.3881
   86MOL    O5841028   6.948   2.863   1.965 -0.0395  0.3713  0.2949
   86MOL    C5941029   6.805   3.056   1.868  0.2380 -0.0502 -0.6944
   86MOL    C6041030   6.756   3.191   1.861  0.8803  0.7351 -0.5049
   86MOL    C6141031   6.649   3.223   1.764 -0.0934 -0.0667 -0.2837
   86MOL    C6241032   6.605   3.123   1.673 -0.0562 -0.3892 -0.3272
   86MOL    C6341033   6.661   2.992   1.682 -0.2408 -0.3072 -0.1486
   86MOL    C6441034   6.757   2.962   1.780 -1.0634 -0.0169  0.0255
   86MOL    O6541035   6.503   3.163   1.587  0.5591  0.0251  0.5644
   86MOL    H6641036   7.210   3.391   1.921  1.9824 -0.2733 -2.0054
   86MOL    H6741037   6.993   3.281   1.947  0.2858  0.9321  0.4633
   86MOL    H6841038   7.182   2.901   1.966 -0.7707 -0.1119 -1.3651
   86MOL    H6941039   7.412   3.000   1.923 -1.2152 -1.7962 -0.2362
   86MOL    H7041040   6.792   3.261   1.935  1.3879 -1.6705  1.6205
   86MOL    H7141041   6.608   3.323   1.763 -0.8587 -0.3686  0.2661
   86MOL    H7241042   6.626   2.915   1.616 -3.8822  1.7115 -0.7378
   86MOL    H7341043   6.808   2.868   1.771  1.5320  1.1353  1.9040
   86MOL    C7441044   6.371   3.093   1.398  0.2069  0.3642 -0.0613
   86MOL    C7541045   6.272   3.017   1.338  0.1193  0.4905 -0.1196
   86MOL    C7641046   6.201   2.926   1.416 -0.2562  0.2223  0.5254
   86MOL    C7741047   6.241   2.906   1.548  0.0101 -0.2987 -0.3551
   86MOL    C7841048   6.344   2.978   1.611  0.2629  0.0522  0.0524
   86MOL    C7941049   6.408   3.079   1.536  0.4838  1.0022  0.2686
   86MOL    S8041050   6.070   2.832   1.345  0.2657 -0.0639  0.3621
   86MOL    O8141051   6.030   2.731   1.443  0.4754  0.0648  0.2392
   86MOL    O8241052   6.107   2.804   1.208 -0.1783  0.3890 -0.6470
   86MOL    C8341053   5.940   2.954   1.347 -0.9749  0.2075 -0.0112
   86MOL    C8441054   5.874   2.973   1.226  0.0227 -0.0618 -0.2838
   86MOL    C8541055   5.791   3.088   1.228 -0.3251 -0.3528  0.0464
   86MOL    C8641056   5.766   3.175   1.335 -0.2161 -0.1451 -0.4330
   86MOL    C8741057   5.834   3.151   1.453 -0.1832  0.7156 -0.4403
   86MOL    C8841058   5.919   3.039   1.459  0.6181  0.2637 -0.5591
   86MOL    O8941059   5.680   3.289   1.329 -0.4048 -0.5535  0.1135
   86MOL    H9041060   6.417   3.164   1.332 -0.2983 -0.6288 -1.5101
   86MOL    H9141061   6.260   3.032   1.232  2.2554 -0.5133 -0.5378
   86MOL    H9241062   6.184   2.829   1.598 -3.2372  1.4875 -1.1579
   86MOL    H9341063   6.363   2.946   1.712  0.9645 -1.6476 -0.6106
   86MOL    H9441064   5.897   2.922   1.133 -2.0781  0.6271 -1.2026
   86MOL    H9541065   5.740   3.101   1.134  0.0870 -0.1278 -0.1480
   86MOL    H9641066   5.808   3.208   1.541 -1.2111 -0.3000 -0.0653
   86MOL    H9741067   5.968   3.012   1.552 -0.4379 -0.2273 -0.1382
   86MOL    C9841068   5.837   3.447   1.223 -0.1514  0.3701  0.3763
   86MOL    C9941069   5.898   3.574   1.219 -0.5866 -0.1669 -0.0512
   86MOL   C10041070   5.898   3.657   1.338  0.4146 -0.5025  0.0769
   86MOL   C10141071   5.829   3.612   1.451  0.4822 -0.7574  0.4261
   86MOL   C10241072   5.765   3.486   1.442 -0.5487  0.0546  0.4266
   86MOL   C10341073   5.758   3.403   1.327 -0.0844  0.0696 -0.1459
   86MOL   S10441074   6.017   3.785   1.361 -0.0856 -0.6332  0.1187
   86MOL   O10541075   5.954   3.879   1.455 -0.2336 -0.5924 -0.0429
   86MOL   O10641076   6.063   3.834   1.232  0.4275  0.7883  0.2547
   86MOL   C10741077   6.151   3.717   1.453 -0.3316 -0.7431 -0.2397
   86MOL   C10841078   6.213   3.806   1.549  0.7033  0.3459  0.7170
   86MOL   C10941079   6.320   3.757   1.632  0.6810  0.3719 -0.3124
   86MOL   C11041080   6.370   3.628   1.615  0.3140  0.4269 -0.0895
   86MOL   C11141081   6.312   3.544   1.513 -0.6717  0.3142 -0.1897
   86MOL   C11241082   6.197   3.584   1.445  0.5005 -0.3905 -0.5701
   86MOL   O11341083   6.467   3.579   1.689 -0.3059 -0.3249  0.0748
   86MOL   H11441084   5.841   3.385   1.134  1.6996  0.1924  0.5737
   86MOL   H11541085   5.963   3.596   1.136  0.0863 -1.3390  0.1505
   86MOL   H11641086   5.829   3.670   1.543  3.0978 -0.1525  0.1077
   86MOL   H11741087   5.711   3.447   1.527 -1.7949  0.1207 -0.3296
   86MOL   H11841088   6.185   3.909   1.559  0.7226  0.3939  0.2878
   86MOL   H11941089   6.361   3.813   1.715  1.9419 -2.2605  0.8941
   86MOL   H12041090   6.353   3.448   1.487 -2.0085 -0.1108 -0.7734
   86MOL   H12141091   6.161   3.510   1.375 -0.1575 -1.7060  1.1129
   86MOL   C12241092   6.652   3.692   1.797 -0.1535  0.1036 -0.4152
   86MOL   C12341093   6.761   3.782   1.792  0.0820 -0.8559  0.5813
   86MOL   C12441094   6.808   3.826   1.666  0.3575 -0.1668 -0.4966
   86MOL   C12541095   6.736   3.789   1.549  0.1187 -0.9333  0.3692
   86MOL   C12641096   6.628   3.703   1.556 -0.2145 -0.9306 -0.1902
   86MOL   C12741097   6.584   3.655   1.681 -0.2105  0.3005  0.3798
   86MOL   S12841098   6.958   3.935   1.659  0.1882 -0.1795  0.3543
   86MOL   O12941099   6.990   3.987   1.795  0.2396  0.0237  0.9142
   86MOL   O13041100   6.929   4.032   1.554  0.2365 -0.0417  0.6819
   86MOL   C13141101   7.084   3.826   1.607  0.5849  0.2605  0.0642
   86MOL   C13241102   7.154   3.836   1.485  0.7411 -0.2366  0.3963
   86MOL   C13341103   7.255   3.749   1.457 -0.0603 -0.1727  0.3496
   86MOL   C13441104   7.289   3.638   1.543 -0.5126  0.0266 -0.0418
   86MOL   C13541105   7.207   3.621   1.654  0.2601  0.1043 -0.1151
   86MOL   C13641106   7.101   3.708   1.687  0.5011  0.3086 -0.1017
   86MOL   O13741107   7.406   3.564   1.529 -0.5710 -0.1943  0.8626
   86MOL   H13841108   6.624   3.662   1.897  1.9939 -1.8279 -0.3549
   86MOL   H13941109   6.813   3.818   1.880  2.0788  0.8114 -1.2017
   86MOL   H14041110   6.762   3.831   1.453 -1.5892  0.8321  0.6607
   86MOL   H14141111   6.571   3.685   1.466 -3.4651 -4.3868  2.3599
   86MOL   H14241112   7.133   3.905   1.405 -2.8809  1.9323  3.0455
   86MOL   H14341113   7.318   3.765   1.371  0.7069 -1.5079  0.6400
   86MOL   H14441114   7.217   3.544   1.729 -0.8761  1.3565  1.3458
   86MOL   H14541115   7.044   3.695   1.777 -0.4450  0.1007 -0.7174
   86MOL   C14641116   7.572   3.705   1.621  0.3009 -0.6377 -0.1995
   86MOL   C14741117   7.686   3.717   1.702  0.6504  0.0605 -0.1957
   86MOL   C14841118   7.741   3.608   1.776  0.1262  0.5816  0.0918
   86MOL   C14941119   7.675   3.479   1.767 -0.1425  1.0012  0.1389
   86MOL   C15041120   7.554   3.465   1.688 -0.5855 -0.5548  0.4138
   86MOL   C15141121   7.516   3.578   1.609 -0.1824 -0.3625  0.8486
   86MOL   S15241122   7.869   3.631   1.894 -0.2121 -0.0658 -0.0906
   86MOL   O15341123   7.923   3.766   1.870  0.1498  0.3988  0.2710
   86MOL   O15441124   7.953   3.512   1.886  0.0306  0.5515  0.0167
   86MOL   C15541125   7.790   3.640   2.054  0.0288  0.9854 -0.4806
   86MOL   C15641126   7.687   3.736   2.072  0.6751 -0.7178  0.1249
   86MOL   C15741127   7.628   3.745   2.198  0.6814 -0.1716  0.2877
   86MOL   C15841128   7.670   3.667   2.307 -0.1075  0.1851  0.2822
   86MOL   C15941129   7.784   3.587   2.294 -0.2879  0.2117  0.6388
   86MOL   C16041130   7.844   3.571   2.165  0.1726  0.0206  0.3979
   86MOL   O16141131   7.621   3.689   2.427 -0.0840 -0.5234 -0.1896
   86MOL   H16241132   7.539   3.793   1.569  0.1804  0.2754  1.3999
   86MOL   H16341133   7.718   3.820   1.711  2.4817 -0.4695 -0.5486
   86MOL   H16441134   7.710   3.394   1.825 -0.1210  0.5565 -0.5283
   86MOL   H16541135   7.506   3.370   1.670 -1.2933 -0.0112 -0.6334
   86MOL   H16641136   7.641   3.799   1.998  3.0800  0.1425 -0.7082
   86MOL   H16741137   7.545   3.810   2.224  1.8672  1.0622  1.0095
   86MOL   H16841138   7.824   3.542   2.384 -1.3133 -1.4998  0.2558
   86MOL   H16941139   7.933   3.509   2.160 -0.0470 -0.2452 -0.1897
   86MOL   C17041140   7.398   3.619   2.366  0.1218 -0.7960 -0.0348
   86MOL   C17141141   7.273   3.578   2.408  0.1474 -0.5352 -0.2038
   86MOL   C17241142   7.236   3.577   2.546 -0.2378  0.6759 -0.7437
   86MOL   C17341143   7.333   3.620   2.642  0.6068  0.4416 -0.6010
   86MOL   C17441144   7.458   3.661   2.592  0.1313  1.1881  0.7669
   86MOL   C17541145   7.493   3.660   2.456 -0.1225  0.4780  0.2509
   86MOL   S17641146   7.063   3.532   2.581 -0.2730  0.1518 -0.3251
   86MOL   O17741147   6.987   3.565   2.461 -0.4431 -0.1693 -0.0852
   86MOL   O17841148   7.023   3.580   2.718  0.1497 -0.3550 -0.3517
   86MOL   C17941149   7.069   3.351   2.579 -0.2881 -0.5958 -0.0015
   86MOL   C18041150   7.024   3.280   2.692  0.3003  0.3114 -0.3024
   86MOL   C18141151   7.051   3.143   2.701 -0.0773 -0.4001 -0.2096
   86MOL   C18241152   7.096   3.071   2.585  0.4083  0.2453 -0.5266
   86MOL   C18341153   7.137   3.144   2.471 -0.4150 -0.2398 -0.4838
   86MOL   C18441154   7.123   3.284   2.465 -0.3977  0.3676 -0.5492
   86MOL   O18541155   7.100   2.931   2.587 -0.2721  0.8845 -0.0031
   86MOL   H18641156   7.426   3.616   2.262 -0.9978 -0.5459 -0.3499
   86MOL   H18741157   7.204   3.548   2.331  0.7966  0.8919 -1.3842
   86MOL   H18841158   7.312   3.636   2.747 -2.1691 -2.9735 -0.5472
   86MOL   H18941159   7.546   3.687   2.649  1.3143  0.3586 -0.6229
   86MOL   H19041160   6.967   3.339   2.763  1.3670  3.0115 -1.6259
   86MOL   H19141161   7.026   3.091   2.792 -1.9705 -2.4086 -1.8161
   86MOL   H19241162   7.173   3.095   2.382  0.2500  0.1553 -0.4315
   86MOL   H19341163   7.162   3.343   2.384  0.8929  1.7923  1.0745
   86MOL   C19441164   7.071   2.850   2.361  0.1103  0.2336 -0.0077
   86MOL   C19541165   6.989   2.784   2.263 -0.7405 -0.4831  0.0510
   86MOL   C19641166   6.867   2.730   2.300 -0.3660 -0.6147 -0.2393
   86MOL   C19741167   6.821   2.742   2.434 -0.1183  0.1470  0.2038
   86MOL   C19841168   6.898   2.813   2.529 -0.3813  0.4501 -0.5346
   86MOL   C19941169   7.023   2.860   2.496  0.3689  0.4502 -0.7210
   86MOL   S20041170   6.773   2.628   2.196  0.0253  0.0282  0.1646
   86MOL   O20141171   6.698   2.533   2.285  0.0789 -1.0076 -0.1438
   86MOL   O20241172   6.858   2.569   2.095 -0.3383 -0.0470 -0.1743
   86MOL   C20341173   6.648   2.734   2.116 -0.4106 -0.9069 -0.1634
   86MOL   C20441174   6.613   2.844   2.194 -0.0147  0.0587  0.3019
   86MOL   C20541175   6.525   2.937   2.138 -0.3896 -1.2448  0.6632
   86MOL   C20641176   6.478   2.915   2.006 -0.2781  0.2525 -0.1805
   86MOL   C20741177   6.521   2.803   1.928  0.1752 -0.1332 -0.0841
   86MOL   C20841178   6.602   2.704   1.985  0.6986  0.2594 -0.3347
   86MOL   O20941179   6.383   3.001   1.949 -0.1071 -0.0107 -0.2628
   86MOL   H21041180   7.170   2.879   2.328  0.3354  0.9290  1.2747
   86MOL   H21141181   7.041   2.768   2.169  1.8917  1.9212  1.0298
   86MOL   H21241182   6.721   2.704   2.449 -0.1824  0.4932  0.6440
   86MOL   H21341183   6.851   2.826   2.626 -1.7951  1.2573 -1.3184
   86MOL   H21441184   6.654   2.869   2.290  3.1845 -0.1387 -0.9714
   86MOL   H21541185   6.491   3.026   2.188  0.9337  0.9047 -2.1349
   86MOL   H21641186   6.484   2.799   1.827 -1.3714  2.1519  0.3552
   86MOL   H21741187   6.645   2.625   1.925  0.1913  0.6957 -1.2919
   86MOL   C21841188   6.204   2.870   2.056 -0.0449  0.1857  0.0573
   86MOL   C21941189   6.070   2.826   2.053  0.0796 -0.3200 -0.1665
   86MOL   C22041190   5.981   2.886   1.958  0.7454  0.5470 -0.0924
   86MOL   C22141191   6.026   2.983   1.872 -0.0500 -0.4032  0.5781
   86MOL   C22241192   6.161   3.029   1.877  0.2307  0.1992 -0.1826
   86MOL   C22341193   6.251   2.971   1.967 -0.5814  0.5183  0.1289
   86MOL   S22441194   5.814   2.827   1.947 -0.6233  0.2855 -0.2579
   86MOL   O22541195   5.744   2.929   1.866 -0.3421 -0.0716  0.7315
   86MOL   O22641196   5.768   2.801   2.085 -0.8373  0.0672  0.2422
   86MOL   C22741197   5.819   2.677   1.855 -0.2100  0.1490 -0.0837
   86MOL   C22841198   5.720   2.582   1.877 -0.1925  0.1051 -0.4355
   86MOL   C22941199   5.712   2.460   1.804  0.2930  0.1371 -0.2607
   86MOL   C23041200   5.807   2.435   1.710 -0.6986  0.9592 -0.0463
   86MOL   C23141201   5.916   2.526   1.691  0.0929  0.0048 -0.3653
   86MOL   C23241202   5.909   2.652   1.757 -0.7378  0.3486  0.1329
   86MOL   O23341203   5.809   2.311   1.650 -0.3986 -0.3614  0.4727
   86MOL   H23441204   6.264   2.830   2.137  0.0009  0.3856  0.1219
   86MOL   H23541205   6.033   2.753   2.123  1.2138 -0.1350  0.6440
   86MOL   H23641206   5.955   3.025   1.802 -0.3159 -1.0472  0.4531
   86MOL   H23741207   6.194   3.114   1.819  1.0676  0.2636  0.3794
   86MOL   H23841208   5.642   2.596   1.950  0.9201 -0.1999  0.8386
   86MOL   H23941209   5.629   2.392   1.812  0.2262  0.3741  1.2405
   86MOL   H24041210   5.992   2.512   1.615 -0.2731  0.0835 -0.7440
   86MOL   H24141211   5.967   2.740   1.733 -0.6235  0.1986 -0.1464
   86MOL   C24241212   5.684   2.358   1.449  0.0806  0.4834 -0.3611
   86MOL   C24341213   5.644   2.326   1.318  0.3988 -0.1344  0.4798
   86MOL   C24441214   5.726   2.230   1.246  0.6206  0.0248  0.1482
   86MOL   C24541215   5.840   2.170   1.312  0.1247 -0.5272  0.0064
   86MOL   C24641216   5.861   2.196   1.446 -0.3070  0.1596  0.2492
   86MOL   C24741217   5.785   2.290   1.517  0.0434 -0.6404 -0.2060
   86MOL   S24841218   5.676   2.177   1.081  0.0737 -0.4365  0.0442
   86MOL   O24941219   5.783   2.224   0.997 -0.6071 -0.1796  0.1902
   86MOL   O25041220   5.537   2.218   1.050  0.4404 -0.3188 -0.6513
   86MOL   C25141221   5.689   2.000   1.070 -0.6649  0.9381 -0.3215
   86MOL   C25241222   5.575   1.921   1.052  0.2351 -0.4081 -0.3184
   86MOL   C25341223   5.584   1.786   1.042 -1.0310  0.2209  0.1038
   86MOL   C25441224   5.711   1.724   1.057 -0.0869 -0.1580  0.2226
   86MOL   C25541225   5.829   1.804   1.058 -0.0796  0.1557  0.0978
   86MOL   C25641226   5.818   1.942   1.065 -0.1510  0.4314  0.0435
   86MOL   O25741227   5.737   1.593   1.044 -0.4890  0.5205  0.2377
   86MOL   H25841228   5.629   2.434   1.502  1.1409  1.4668 -0.6496
   86MOL   H25941229   5.559   2.368   1.267  0.1495 -0.1886  0.8544
   86MOL   H26041230   5.917   2.115   1.260 -1.1886 -1.3659 -1.0924
   86MOL   H26141231   5.947   2.153   1.494  0.4909 -0.0333 -1.3250
   86MOL   H26241232   5.481   1.975   1.049 -1.2330 -2.9374 -1.5700
   86MOL   H26341233   5.498   1.722   1.028 -0.0476 -0.8372 -1.2213
   86MOL   H26441234   5.931   1.768   1.054  0.7649  2.5106  0.0428
   86MOL   H26541235   5.904   2.007   1.063  0.3521 -0.1527  1.8813
   86MOL   C26641236   5.772   1.400   0.911 -0.0703  0.8733  0.9559
   86MOL   C26741237   5.812   1.341   0.786 -0.6004  0.2636 -0.0821
   86MOL   C26841238   5.836   1.422   0.673  0.2463  0.5971 -0.1883
   86MOL   C26941239   5.815   1.561   0.680  0.3765  0.1369  0.1864
   86MOL   C27041240   5.778   1.620   0.804  0.0347 -0.1312 -0.2223
   86MOL   C27141241   5.759   1.539   0.921 -0.0024 -0.1652 -0.1803
   86MOL   S27241242   5.854   1.330   0.521  0.0399 -0.2074  0.0813
   86MOL   O27341243   5.756   1.220   0.520 -0.0069  0.2805 -0.4864
   86MOL   O27441244   5.990   1.296   0.499 -0.2239  0.5420  0.0079
   86MOL   C27541245   5.819   1.442   0.392  0.1803  0.4540 -0.4954
   86MOL   C27641246   5.919   1.525   0.347  0.4645  0.6235  0.0460
   86MOL   C27741247   5.902   1.609   0.237  0.3324 -0.5602 -0.1493
   86MOL   C27841248   5.777   1.616   0.177 -0.2506  0.5517  0.3703
   86MOL   C27941249   5.678   1.521   0.210  0.2344 -0.0862  0.8108
   86MOL   C28041250   5.696   1.434   0.324  0.0251  0.3202 -0.4726
   86MOL   O28141251   5.760   1.703   0.069 -0.6110 -0.5324  0.1541
   86MOL   H28241252   5.757   1.335   0.996  2.0550  1.1641  1.5888
   86MOL   H28341253   5.816   1.233   0.787 -0.0028  0.2874  0.7760
   86MOL   H28441254   5.825   1.630   0.598 -0.8215  0.8562  0.6314
   86MOL   H28541255   5.760   1.727   0.809 -1.2668 -0.4193  1.2283
   86MOL   H28641256   6.017   1.513   0.391  0.5323 -0.5654 -0.4109
   86MOL   H28741257   5.993   1.657   0.202 -0.3449 -1.0511 -2.6372
   86MOL   H28841258   5.588   1.526   0.152  0.4501  0.8904  0.5382
   86MOL   H28941259   5.619   1.365   0.356  1.3236  0.3397  2.8856
   86MOL   C29041260   5.748   1.946   0.040 -0.7319  0.5158 -0.6286
   86MOL   C29141261   5.813   2.071   0.027  0.5960 -0.0842  0.3518
   86MOL   C29241262   5.951   2.067   8.412 -0.3769 -0.3266  0.3749
   86MOL   C29341263   6.022   1.948   8.405 -0.1863  0.1480 -1.0057
   86MOL   C29441264   5.960   1.822   0.003 -0.0750  0.4529  0.5204
   86MOL   C29541265   5.825   1.824   0.046  0.7262 -0.4900 -0.0831
   86MOL   S29641266   6.041   2.221   8.397 -0.0142  0.0381  0.2735
   86MOL   O29741267   6.178   2.188   8.359  0.5669  0.5645 -0.0151
   86MOL   O29841268   6.025   2.305   0.092 -0.2369 -0.1756  0.2455
   86MOL   C29941269   5.976   2.319   8.263  0.7674  0.6290  0.0936
   86MOL   C30041270   5.895   2.265   8.154  0.0211 -0.5545 -0.1448
   86MOL   C30141271   5.837   2.348   8.054  0.2886  0.4792  0.2385
   86MOL   C30241272   5.863   2.489   8.055  0.2948  0.7700 -0.8100
   86MOL   C30341273   5.955   2.541   8.154  0.5128 -0.2339  0.4786
   86MOL   C30441274   6.006   2.456   8.260 -0.2124 -0.3674 -0.0626
   86MOL   O30541275   5.798   2.562   7.960 -0.2421  0.3787  0.3435
   86MOL   H30641276   5.641   1.941   0.057 -0.2956 -1.0579  1.9686
   86MOL   H30741277   5.753   2.161   0.028  0.4637 -0.1782  0.9299
   86MOL   H30841278   6.124   1.957   8.369  0.5147  2.7076  1.4829
   86MOL   H30941279   6.023   1.738   8.405 -0.2816  0.8921 -1.7692
   86MOL   H31041280   5.877   2.159   8.157 -0.4830 -0.4763 -0.4871
   86MOL   H31141281   5.768   2.313   7.979  0.7585  1.1675 -0.5156
   86MOL   H31241282   5.986   2.644   8.157  1.4122 -0.4192 -1.7914
   86MOL   H31341283   6.072   2.491   8.338 -1.4709 -1.1545  1.3604
   86MOL   C31441284   5.786   2.789   7.892 -0.4074  0.5521  0.2519
   86MOL   C31541285   5.845   2.908   7.838 -0.7821 -0.0939  0.6568
   86MOL   C31641286   5.987   2.913   7.812  0.0602  0.6713  0.2583
   86MOL   C31741287   6.068   2.791   7.825  0.4161 -0.2378  0.2596
   86MOL   C31841288   5.995   2.675   7.871  0.2292  0.1518  0.1227
   86MOL   C31941289   5.861   2.673   7.906  0.4662  0.7139  0.2256
   86MOL   S32041290   6.061   3.055   7.740 -0.0264 -0.4561 -0.2156
   86MOL   O32141291   5.975   3.115   7.637  0.0034  0.1954 -0.7139
   86MOL   O32241292   6.201   3.015   7.714  0.2411  0.1470 -0.0190
   86MOL   C32341293   6.065   3.163   7.879  0.4981  0.1404 -0.1715
   86MOL   C32441294   6.185   3.171   7.951 -0.8909  0.2357  0.2647
   86MOL   C32541295   6.210   3.271   8.047  0.1700  0.0475  0.2864
   86MOL   C32641296   6.118   3.367   8.075 -0.4028 -0.5408 -0.1604
   86MOL   C32741297   5.991   3.361   8.014 -0.1908  0.9541  0.1979
   86MOL   C32841298   5.968   3.261   7.911 -0.1164  0.3748 -0.1022
   86MOL   O32941299   6.152   3.467   8.159  0.0142  0.3452  0.4293
   86MOL   H33041300   5.682   2.777   7.921 -0.1993 -2.1566  0.0095
   86MOL   H33141301   5.793   2.997   7.807 -1.6280 -0.6989  0.3251
   86MOL   H33241302   6.173   2.791   7.797  0.4310 -3.9110  0.0710
   86MOL   H33341303   6.048   2.585   7.896 -0.7264 -0.4046  0.1537
   86MOL   H33441304   6.259   3.097   7.922 -0.7442  0.1005  0.9732
   86MOL   H33541305   6.314   3.275   8.078  0.1476  2.1992  0.1233
   86MOL   H33641306   5.915   3.438   8.024 -0.1352  0.9811  0.3995
   86MOL   H33741307   5.874   3.270   7.857 -0.2670  0.4247  0.1638
   86MOL   C33841308   6.045   3.687   8.165  0.2711 -0.7412 -0.2915
   86MOL   C33941309   6.045   3.825   8.122 -0.0515  0.7551  0.1753
   86MOL   C34041310   6.141   3.863   8.022 -0.6168 -0.3024 -0.2779
   86MOL   C34141311   6.242   3.771   7.982  0.1119  0.0958 -0.3609
   86MOL   C34241312   6.243   3.638   8.026  0.1933 -1.0979  0.1496
   86MOL   C34341313   6.145   3.595   8.115  0.1465 -0.4478 -0.8835
   86MOL   S34441314   6.134   4.034   7.967  0.2020  0.2454 -0.1904
   86MOL   O34541315   6.254   4.057   7.889  0.0207  0.1003  0.2420
   86MOL   O34641316   6.102   4.122   8.081  0.1027 -0.2496  0.2092
   86MOL   C34741317   5.992   4.043   7.866  0.0358  0.1742  0.0323
   86MOL   C34841318   5.963   4.164   7.806 -0.0417 -1.3146  0.9273
   86MOL   C34941319   5.840   4.186   7.737 -0.2555  0.2811  0.2850
   86MOL   C35041320   5.750   4.078   7.722 -0.7010 -0.5107 -0.0739
   86MOL   C35141321   5.781   3.954   7.770 -0.2485  1.0111  0.5023
   86MOL   C35241322   5.896   3.934   7.846 -1.0780 -0.4617 -0.1342
   86MOL   O35341323   5.637   4.090   7.647 -0.0300 -0.3927  0.0981
   86MOL   H35441324   5.965   3.658   8.231 -1.0611  0.8605 -1.1781
   86MOL   H35541325   5.976   3.904   8.146 -1.4616  0.1831 -1.8615
   86MOL   H35641326   6.315   3.805   7.910 -0.2587  0.6835 -0.4620
   86MOL   H35741327   6.305   3.561   7.984 -0.1050 -1.8876  1.1272
   86MOL   H35841328   6.033   4.244   7.821  0.8590 -1.2158 -3.3045
   86MOL   H35941329   5.812   4.285   7.704 -0.1448 -0.0038 -0.6682
   86MOL   H36041330   5.718   3.866   7.765  1.7233 -0.4087 -0.0370
   86MOL   H36141331   5.920   3.839   7.892  1.2564  1.1681  2.1209
   86MOL   C36241332   5.483   4.112   7.823 -0.2944 -0.5278  0.0595
   86MOL   C36341333   5.397   4.200   7.896 -0.0716 -0.4750  0.5265
   86MOL   C36441334   5.353   4.327   7.842 -0.6817 -0.1295 -0.3952
   86MOL   C36541335   5.412   4.367   7.719 -0.0469  0.2140 -0.8528
   86MOL   C36641336   5.503   4.287   7.650  0.4735 -0.0835 -0.1994
   86MOL   C36741337   5.536   4.161   7.702  0.0894 -0.0376  0.3927
   86MOL   S36841338   5.272   4.445   7.943 -0.1784 -0.2380  0.3931
   86MOL   O36941339   5.152   4.485   7.875  0.0196  0.1406  0.3641
   86MOL   O37041340   5.376   4.551   7.959  0.1189 -0.4989 -0.4801
   86MOL   C37141341   5.252   4.369   8.111 -0.1619 -0.4122  0.1986
   86MOL   C37241342   5.123   4.352   8.154  0.1063 -0.2525 -0.1382
   86MOL   C37341343   5.106   4.293   8.287  0.0033  0.0069  0.0262
   86MOL   C37441344   5.219   4.252   8.365 -0.0619  0.4933 -0.3007
   86MOL   C37541345   5.345   4.279   8.317  0.1478  0.6465  0.0745
   86MOL   C37641346   5.361   4.349   8.200  0.1517  0.1099 -0.5813
   86MOL   O37741347   5.195   4.187   0.063  0.3797  0.4309 -0.3261
   86MOL   H37841348   5.518   4.022   7.871 -0.8921 -0.1769  1.1583
   86MOL   H37941349   5.361   4.164   7.991  2.6442 -1.7177  1.1555
   86MOL   H38041350   5.381   4.460   7.673 -0.3765  0.0363 -0.9913
   86MOL   H38141351   5.548   4.328   7.561  0.4425  0.5601  0.0778
   86MOL   H38241352   5.045   4.392   8.091 -0.3591 -0.2960  0.4101
   86MOL   H38341353   5.003   4.280   8.315 -0.3880  0.0597 -1.3512
   86MOL   H38441354   5.435   4.252   8.371 -0.0255  0.0757  0.0767
   86MOL   H38541355   5.460   4.371   8.162  0.2550  0.3168 -0.1899
   86MOL   C38641356   5.003   4.044   0.090 -0.1029  0.0539  0.0246
   86MOL   C38741357   4.944   3.914   0.099  0.3446  0.1429 -0.3709
   86MOL   C38841358   5.030   3.799   0.108  0.4046  0.7940  0.3659
   86MOL   C38941359   5.167   3.817   0.085 -0.7518  0.5312  0.2631
   86MOL   C39041360   5.226   3.942   0.066  0.3369 -0.6574  0.6367
   86MOL   C39141361   5.148   4.059   0.060  0.7195 -1.0136 -0.1928
   86MOL   S39241362   4.962   3.644   0.149 -0.6020 -0.3402 -0.1223
   86MOL   O39341363   4.936   3.559   0.032 -0.2018  0.1415  0.7266
   86MOL   O39441364   4.854   3.667   0.245  0.3507  0.4784 -0.1832
   86MOL   C39541365   5.101   3.567   0.246  0.1167  0.2190  0.4272
   86MOL   C39641366   5.142   3.436   0.218  0.6225 -0.1748 -0.0553
   86MOL   C39741367   5.260   3.382   0.285  0.0690  0.3801 -0.1340
   86MOL   C39841368   5.336   3.468   0.365 -0.4781 -0.4605  0.3879
   86MOL   C39941369   5.298   3.605   0.394 -0.3538 -0.2194 -0.3325
   86MOL   C40041370   5.176   3.649   0.336 -0.0386 -0.7474 -0.6749
   86MOL   O40141371   5.455   3.419   0.406  0.4860  0.4275 -0.1889
   86MOL   H40241372   4.937   4.129   0.094  0.6129  0.5074  5.1325
   86MOL   H40341373   4.837   3.905   0.111  0.9718 -4.2139  2.8778
   86MOL   H40441374   5.230   3.729   0.081  0.5842  1.5443 -1.9785
   86MOL   H40541375   5.333   3.953   0.068  0.1162  1.7011  0.3785
   86MOL   H40641376   5.077   3.377   0.154  2.6989 -2.0057 -0.5095
   86MOL   H40741377   5.292   3.284   0.253  1.3924  0.5059  0.7753
   86MOL   H40841378   5.356   3.678   0.448 -2.1352 -1.2590  3.1697
   86MOL   H40941379   5.157   3.754   0.354  2.0947 -0.2259 -1.3831
   86MOL   C41041380   5.419   3.262   0.579 -0.2137 -1.1086 -0.6079
   86MOL   C41141381   5.437   3.218   0.716  1.1425 -0.5883 -0.0005
   86MOL   C41241382   5.516   3.300   0.800  0.3195 -0.2459  0.3873
   86MOL   C41341383   5.567   3.422   0.752  0.1513  0.4956 -0.4291
   86MOL   C41441384   5.544   3.472   0.625 -0.3639  0.3720 -0.3797
   86MOL   C41541385   5.473   3.386   0.535  0.0253  0.4944 -0.3408
   86MOL   S41641386   5.559   3.238   0.957  0.3278  0.2096 -0.0375
   86MOL   O41741387   5.706   3.261   0.964  0.2337  0.2373 -0.1239
   86MOL   O41841388   5.508   3.103   0.968 -0.1672  0.4873 -0.3011
   86MOL   C41941389   5.471   3.340   1.074 -0.5235  0.1106  0.6757
   86MOL   C42041390   5.367   3.286   1.158 -0.5577 -0.2171  0.6568
   86MOL   C42141391   5.301   3.375   1.246  0.1639 -0.4957 -0.6419
   86MOL   C42241392   5.332   3.514   1.245  0.1020 -0.3746 -0.4399
   86MOL   C42341393   5.436   3.562   1.163  0.3331 -0.2853 -0.7756
   86MOL   C42441394   5.504   3.479   1.073 -0.2408  0.2339 -0.1046
   86MOL   O42541395   5.283   3.594   1.352  0.2290 -0.0942 -0.1183
   86MOL   H42641396   5.356   3.201   0.517 -1.2971 -0.7988  0.1874
   86MOL   H42741397   5.395   3.127   0.754 -1.6155  1.1449  1.2987
   86MOL   H42841398   5.634   3.478   0.815 -2.5295  3.1039  0.1862
   86MOL   H42941399   5.594   3.556   0.579  1.6832 -0.5508  0.0990
   86MOL   H43041400   5.346   3.180   1.150 -1.8675  0.2303 -2.5822
   86MOL   H43141401   5.241   3.330   1.323  0.8211  0.4241  0.4138
   86MOL   H43241402   5.469   3.664   1.179 -1.4130  0.3226 -0.9256
   86MOL   H43341403   5.595   3.510   1.023  1.2980 -2.0588  1.1774
   86MOL   C43441404   5.400   3.751   1.485  0.0186  0.5064  0.0315
   86MOL   C43541405   5.476   3.781   1.598  0.1897  0.0775  0.8020
   86MOL   C43641406   5.511   3.672   1.683 -0.7237  0.5146 -0.4326
   86MOL   C43741407   5.489   3.541   1.651  0.7441 -0.3864  0.1820
   86MOL   C43841408   5.418   3.516   1.530 -0.0782 -0.2714  0.0871
   86MOL   C43941409   5.369   3.616   1.453 -0.2641 -1.0398 -0.7553
   86MOL   S44041410   5.605   3.703   1.831 -0.4432 -0.3293  0.2886
   86MOL   O44141411   5.543   3.622   1.935  0.2022 -0.6218 -0.4889
   86MOL   O44241412   5.621   3.846   1.847  0.5643  0.1464  0.2989
   86MOL   C44341413   5.764   3.629   1.798  0.6142  0.7153  0.1709
   86MOL   C44441414   5.873   3.714   1.779  0.0386  0.4948 -0.3564
   86MOL   C44541415   6.002   3.662   1.767  0.4452 -0.3523 -0.3911
   86MOL   C44641416   6.021   3.523   1.786  0.3630  0.4556  0.0591
   86MOL   C44741417   5.907   3.434   1.807  0.3489 -0.2920 -0.4938
   86MOL   C44841418   5.778   3.486   1.814  0.1986  0.6267 -0.2304
   86MOL   O44941419   6.149   3.470   1.787  0.0291 -0.8154  0.2511
   86MOL   H45041420   5.376   3.830   1.416  2.0163  0.7970 -0.3466
   86MOL   H45141421   5.509   3.877   1.634 -1.9791  1.4978 -0.8327
   86MOL   H45241422   5.516   3.463   1.721 -1.0903 -0.6166  0.6448
   86MOL   H45341423   5.390   3.414   1.507 -0.5922 -0.2157  0.4404
   86MOL   H45441424   5.858   3.821   1.784  3.8981  1.0612  0.6258
   86MOL   H45541425   6.091   3.722   1.775 -0.8964  1.8670 -1.6228
   86MOL   H45641426   5.919   3.327   1.814 -0.0706 -0.3248 -0.2880
   86MOL   H45741427   5.702   3.414   1.839  0.7521 -0.1185 -0.6827
   86MOL   C45841428   6.184   3.512   2.029 -0.5324 -0.3088 -0.5201
   86MOL   C45941429   6.266   3.492   2.140  0.2990 -0.1297  0.7849
   86MOL   C46041430   6.380   3.407   2.129  0.5182  0.2210  0.3669
   86MOL   C46141431   6.411   3.344   2.010 -0.2356  0.2193  1.0495
   86MOL   C46241432   6.327   3.368   1.898  0.0862 -0.4268  0.5954
   86MOL   C46341433   6.219   3.457   1.901  0.1528 -0.1243  0.1419
   86MOL   S46441434   6.489   3.387   2.273  0.3265 -0.0780 -0.0174
   86MOL   O46541435   6.495   3.248   2.310  0.1441  0.5619  0.8334
   86MOL   O46641436   6.452   3.493   2.372  0.7435  0.1415  0.0852
   86MOL   C46741437   6.660   3.439   2.222  0.3472 -0.2177  1.4813
   86MOL   C46841438   6.762   3.346   2.236 -0.9297  0.7391 -0.0669
   86MOL   C46941439   6.889   3.373   2.187  0.2566  0.5415  0.3716
   86MOL   C47041440   6.914   3.498   2.122  0.2128 -1.3542 -0.6863
   86MOL   C47141441   6.809   3.589   2.115  0.9559 -0.3930 -0.0750
   86MOL   C47241442   6.683   3.561   2.166 -0.2455  0.2393  0.4515
   86MOL   O47341443   7.039   3.523   2.077 -0.4910  0.1867 -0.0637
   86MOL   H47441444   6.100   3.580   2.027  0.5914  1.3424  3.3702
   86MOL   H47541445   6.229   3.532   2.233 -0.1362 -2.1044  1.4976
   86MOL   H47641446   6.493   3.279   1.984 -0.3860  0.8983 -1.1799
   86MOL   H47741447   6.354   3.328   1.802  1.4770 -2.3906  1.7850
   86MOL   H47841448   6.746   3.248   2.279  0.1065  0.1059 -1.1088
   86MOL   H47941449   6.961   3.292   2.188  0.3457  0.5535 -2.2840
   86MOL   H48041450   6.826   3.681   2.061  0.5859 -0.2581  0.0389
   86MOL   H48141451   6.604   3.635   2.162 -0.3398  0.1325  0.3313
   86MOL   H48241452   7.054   3.606   2.035  0.1478  1.5523  2.7712
   87MOL     C141453   7.958   1.930   6.551 -0.4114  0.2317 -0.2272
   87MOL     C241454   8.057   1.844   6.507 -0.0185 -0.0374  0.2559
   87MOL     C341455   8.146   1.884   6.399 -0.3334  0.6945 -0.2993
   87MOL     C441456   8.128   2.012   6.343 -0.2481  0.2628  0.6011
   87MOL     C541457   8.038   2.107   6.390  0.2241  0.3887  0.4101
   87MOL     C641458   7.945   2.057   6.489  0.4322  0.6077  0.9928
   87MOL     S741459   8.271   1.771   6.347  0.4676 -0.1971 -0.4285
   87MOL     O841460   8.338   1.714   6.465 -0.2296 -0.0167  0.1673
   87MOL     O941461   8.346   1.811   6.229  0.2353  0.4277  0.2291
   87MOL    C1041462   8.167   1.637   6.282  0.0723 -0.6386 -0.0312
   87MOL    C1141463   8.195   1.506   6.323  0.3908  0.7469  0.4645
   87MOL    C1241464   8.119   1.397   6.267  0.3481 -0.4091  0.0419
   87MOL    C1341465   8.005   1.429   6.181 -0.2683 -0.5218  0.0216
   87MOL    C1441466   7.990   1.565   6.141 -0.8388  0.0448 -0.8463
   87MOL    C1541467   8.071   1.668   6.189 -0.2084  0.2587 -0.3964
   87MOL    O1641468   7.918   1.339   6.127 -0.3398  0.2073 -0.1750
   87MOL    H1741469   7.879   1.894   6.615  0.3371 -1.9227 -0.4658
   87MOL    H1841470   8.060   1.740   6.534  1.3862 -0.1399 -0.2875
   87MOL    H1941471   8.190   2.037   6.258 -2.5543  3.1608 -0.3236
   87MOL    H2041472   8.014   2.201   6.342 -1.9234  0.5179  1.6439
   87MOL    H2141473   8.272   1.479   6.394  0.7038  1.2481  0.3114
   87MOL    H2241474   8.148   1.299   6.300 -0.4931 -1.0820 -1.1686
   87MOL    H2341475   7.919   1.587   6.063 -1.1551 -1.6556 -1.0756
   87MOL    H2441476   8.051   1.771   6.160 -2.6869  0.2948  1.2536
   87MOL    H2541477   7.860   2.115   6.522 -1.0013 -0.9730  0.1885
   87MOL    C2641478   7.770   1.160   6.190  0.4022  0.7685 -0.1829
   87MOL    C2741479   7.656   1.114   6.259  0.1506 -0.0831  0.0118
   87MOL    C2841480   7.582   1.205   6.334 -0.2735 -0.3297 -0.0471
   87MOL    C2941481   7.616   1.341   6.340 -0.4946 -0.2468 -0.1172
   87MOL    C3041482   7.725   1.385   6.269 -0.2286  0.1829  0.8582
   87MOL    C3141483   7.805   1.297   6.198  0.4539 -0.2324  0.3914
   87MOL    S3241484   7.446   1.147   6.438 -0.0576 -0.0719 -0.0985
   87MOL    O3341485   7.416   1.253   6.540 -0.2970  0.2107  0.7471
   87MOL    O3441486   7.491   1.013   6.483  0.5294 -0.1448  0.3634
   87MOL    C3541487   7.306   1.129   6.328 -1.1105  0.1859  0.0383
   87MOL    C3641488   7.302   1.198   6.203  0.4756 -0.2605  1.0090
   87MOL    C3741489   7.186   1.179   6.118  0.2914  0.4115 -0.5080
   87MOL    C3841490   7.076   1.100   6.163  0.1292 -0.7628  0.5558
   87MOL    C3941491   7.094   1.025   6.285  0.2366  0.7406 -0.3229
   87MOL    C4041492   7.206   1.043   6.363 -0.2122 -1.0044  0.1877
   87MOL    O4141493   6.960   1.107   6.084 -0.6097 -0.6732  0.1063
   87MOL    H4241494   7.826   1.091   6.128 -0.2545 -0.1935  0.2894
   87MOL    H4341495   7.623   1.011   6.267  2.3631 -0.8203  0.0593
   87MOL    H4441496   7.561   1.408   6.404 -0.0418  1.1209 -1.1270
   87MOL    H4541497   7.754   1.489   6.258  3.8735 -0.7874  1.9539
   87MOL    H4641498   7.381   1.265   6.173 -1.1501  1.4179  0.3412
   87MOL    H4741499   7.183   1.241   6.030 -0.2722  1.4006  0.1890
   87MOL    H4841500   7.017   0.958   6.320  1.0369 -0.7671 -1.3950
   87MOL    H4941501   7.208   0.989   6.456 -2.4521  0.1162  0.9325
   87MOL    C5041502   6.741   1.028   6.135  0.3908  0.5076 -0.0705
   87MOL    C5141503   6.623   1.037   6.204  0.3858 -0.3790  0.2486
   87MOL    C5241504   6.602   1.149   6.289 -0.2700 -0.6184  0.2136
   87MOL    C5341505   6.706   1.246   6.306 -0.2887  0.0260 -1.3110
   87MOL    C5441506   6.826   1.241   6.234 -0.5648  0.2088  0.1360
   87MOL    C5541507   6.838   1.129   6.143  0.3390  0.3557 -0.2145
   87MOL    S5641508   6.452   1.177   6.384 -0.2553 -0.1248  0.1645
   87MOL    O5741509   6.484   1.240   6.512  0.3886  0.2114 -0.9443
   87MOL    O5841510   6.385   1.046   6.396  0.8495  0.3584 -0.4730
   87MOL    C5941511   6.344   1.282   6.283 -0.1446 -0.4885  0.1375
   87MOL    C6041512   6.312   1.418   6.323  0.0349  0.4980 -0.2027
   87MOL    C6141513   6.228   1.494   6.237 -1.1819  1.0104 -0.4881
   87MOL    C6241514   6.154   1.429   6.137 -0.1431 -0.2613  0.8344
   87MOL    C6341515   6.181   1.294   6.105 -0.1433 -0.4095  0.4711
   87MOL    C6441516   6.281   1.223   6.172 -0.2529  0.2142  0.2909
   87MOL    O6541517   6.067   1.496   6.057  0.4398 -0.4886  0.2479
   87MOL    H6641518   6.757   0.939   6.076  0.8710  0.5034  0.0680
   87MOL    H6741519   6.545   0.962   6.196  0.0421  0.0516 -0.5194
   87MOL    H6841520   6.694   1.327   6.376 -2.9889 -0.7637 -0.7804
   87MOL    H6941521   6.910   1.305   6.255  1.0053 -1.9499  0.6672
   87MOL    H7041522   6.360   1.453   6.413  0.6191  1.4830 -0.9011
   87MOL    H7141523   6.203   1.594   6.270 -2.1917  0.3574  0.7706
   87MOL    H7241524   6.116   1.238   6.041 -0.1230 -1.5342  1.4272
   87MOL    H7341525   6.293   1.120   6.144 -1.1368  0.2698 -0.3180
   87MOL    C7441526   6.139   1.715   6.029 -0.2004  0.6423  0.1051
   87MOL    C7541527   6.115   1.857   6.045 -0.0297  0.0766 -0.1391
   87MOL    C7641528   5.997   1.900   6.105 -0.2007 -0.2391  0.7947
   87MOL    C7741529   5.902   1.811   6.160  0.6194  0.0017 -0.2028
   87MOL    C7841530   5.923   1.675   6.138  0.3927 -0.2755  0.3918
   87MOL    C7941531   6.042   1.629   6.072 -0.0253 -0.0395  0.0241
   87MOL    S8041532   5.960   2.070   6.119 -0.2278  0.2062 -0.2475
   87MOL    O8141533   6.000   2.128   5.992  0.7247  0.2189 -0.1905
   87MOL    O8241534   6.020   2.116   6.246 -0.0787  0.0791  0.3220
   87MOL    C8341535   5.784   2.093   6.149 -0.1945 -0.1751 -0.3768
   87MOL    C8441536   5.732   2.095   6.277 -0.6676 -0.3931 -0.1619
   87MOL    C8541537   5.595   2.111   6.293 -0.2199  0.7438  0.6000
   87MOL    C8641538   5.512   2.131   6.182 -0.7855 -0.1817 -0.1083
   87MOL    C8741539   5.571   2.127   6.048  0.2830 -0.5624 -0.4266
   87MOL    C8841540   5.704   2.105   6.034 -0.0253  0.0459  0.1467
   87MOL    O8941541   5.378   2.145   6.195 -0.2109  0.0870 -0.0276
   87MOL    H9041542   6.226   1.664   5.991  0.0793 -1.7664  3.7929
   87MOL    H9141543   6.188   1.928   6.009 -2.3863  2.7096  0.0851
   87MOL    H9241544   5.824   1.840   6.229  0.5054  0.1474 -0.3922
   87MOL    H9341545   5.858   1.600   6.181 -0.0969 -0.8935 -1.3806
   87MOL    H9441546   5.793   2.090   6.366  0.5082  2.8536 -0.7327
   87MOL    H9541547   5.561   2.090   6.393  1.6923 -1.5230  0.8108
   87MOL    H9641548   5.510   2.145   5.961 -1.7340  0.2330  1.1139
   87MOL    H9741549   5.746   2.092   5.935  1.8779 -0.4928  1.0079
   87MOL    C9841550   5.327   1.966   6.363  0.1017 -0.5282  0.0717
   87MOL    C9941551   5.257   1.930   6.484  0.1891 -1.0737  0.0288
   87MOL   C10041552   5.191   2.030   6.557 -0.3863  0.0063 -0.0989
   87MOL   C10141553   5.188   2.166   6.519  0.0714 -0.0067  0.0303
   87MOL   C10241554   5.251   2.193   6.397  0.3043 -0.1649  0.9575
   87MOL   C10341555   5.317   2.100   6.315  1.0373  0.3766 -0.5139
   87MOL   S10441556   5.115   1.979   6.716 -0.2477 -0.0906  0.5131
   87MOL   O10541557   5.044   2.097   6.775 -0.3062 -0.7916 -0.1751
   87MOL   O10641558   5.220   1.915   6.794 -0.4120  0.2755  0.0083
   87MOL   C10741559   4.988   1.861   6.679  0.2828 -0.2574 -0.0200
   87MOL   C10841560   4.896   1.898   6.579  0.1096  0.2260 -0.3816
   87MOL   C10941561   4.800   1.807   6.534 -0.3430 -0.3777  0.7065
   87MOL   C11041562   4.804   1.672   6.578  0.4485  0.0980  0.2429
   87MOL   C11141563   4.888   1.635   6.683  1.1089  0.3162  0.8345
   87MOL   C11241564   4.983   1.731   6.735  0.6071  0.0046 -0.1844
   87MOL   O11341565   4.721   1.583   6.509 -0.0184  0.6102 -0.2205
   87MOL   H11441566   5.372   1.890   6.300 -0.8987  0.1507 -1.4783
   87MOL   H11541567   5.253   1.829   6.523 -4.9867 -0.9081  0.2483
   87MOL   H11641568   5.130   2.243   6.569 -0.0548  0.1578 -0.3644
   87MOL   H11741569   5.237   2.294   6.358 -1.9766 -0.0072  2.1265
   87MOL   H11841570   4.905   1.999   6.542 -0.1444  0.7854  1.0816
   87MOL   H11941571   4.733   1.821   6.450 -0.4234  0.3494  0.8949
   87MOL   H12041572   4.884   1.536   6.724  0.4135  0.2603  0.6427
   87MOL   H12141573   5.059   1.704   6.808 -0.3681 -1.2302  0.3902
   87MOL   C12241574   4.888   1.456   6.394  0.3499  0.0420  0.1794
   87MOL   C12341575   4.952   1.333   6.381  0.0703  0.3471  0.4831
   87MOL   C12441576   4.897   1.208   6.426  0.2129  0.0167 -0.1862
   87MOL   C12541577   4.769   1.209   6.487  0.0180 -0.2885  0.1865
   87MOL   C12641578   4.707   1.341   6.512 -0.2446 -0.1333 -0.2213
   87MOL   C12741579   4.775   1.464   6.473 -0.0852  0.2406  0.1457
   87MOL   S12841580   4.986   1.050   6.433  0.3562 -0.2499 -0.0462
   87MOL   O12941581   4.992   0.992   6.297  0.3239 -0.3523  0.2375
   87MOL   O13041582   4.936   0.975   6.551  0.1787 -0.1366 -0.1014
   87MOL   C13141583   5.158   1.098   6.476 -0.1762 -0.8362 -0.0389
   87MOL   C13241584   5.269   1.085   6.386  0.1501 -0.8094  0.5548
   87MOL   C13341585   5.396   1.136   6.419 -0.0802 -0.5941  0.2505
   87MOL   C13441586   5.415   1.197   6.541  0.3804  0.1964 -0.3443
   87MOL   C13541587   5.314   1.198   6.643 -0.2803 -0.5950 -0.0954
   87MOL   C13641588   5.180   1.159   6.612  0.3415  0.3635  0.2335
   87MOL   O13741589   5.544   1.243   6.567  0.0130 -0.0526 -0.5979
   87MOL   H13841590   4.936   1.549   6.365  0.6697  0.0260  0.6579
   87MOL   H13941591   5.043   1.322   6.324 -1.5200  0.1934 -2.1324
   87MOL   H14041592   4.721   1.123   6.531 -2.5744  1.5574  1.0794
   87MOL   H14141593   4.608   1.344   6.554  1.0790  0.3954  2.9957
   87MOL   H14241594   5.259   1.032   6.293  1.4926 -0.5086  0.2284
   87MOL   H14341595   5.472   1.141   6.342  0.5859 -2.7831  0.7322
   87MOL   H14441596   5.350   1.247   6.732 -2.7120 -2.2360  1.8606
   87MOL   H14541597   5.099   1.168   6.682 -0.3162  0.2821 -0.5116
   87MOL   C14641598   5.659   1.135   6.744  0.6935  0.6184  0.2695
   87MOL   C14741599   5.739   1.035   6.790 -0.6082 -0.1634  0.0712
   87MOL   C14841600   5.806   0.950   6.696 -0.6487 -0.4879  0.2817
   87MOL   C14941601   5.793   0.979   6.559 -0.3303  0.0648  0.2296
   87MOL   C15041602   5.710   1.080   6.516  0.0027 -0.3601  0.2321
   87MOL   C15141603   5.633   1.151   6.610 -0.1106 -0.1499 -0.2108
   87MOL   S15241604   5.919   0.820   6.754  0.1093 -0.3569  0.3354
   87MOL   O15341605   5.992   0.857   6.877 -0.2013  1.0497 -0.4378
   87MOL   O15441606   5.994   0.777   6.640  1.0408  0.3173 -0.0577
   87MOL   C15541607   5.806   0.688   6.801  0.1892  0.5220 -0.0204
   87MOL   C15641608   5.841   0.557   6.754  0.7399  0.7593  0.0457
   87MOL   C15741609   5.750   0.454   6.778 -0.2418 -0.2790 -0.3476
   87MOL   C15841610   5.635   0.474   6.855 -0.1527 -0.6150 -0.1374
   87MOL   C15941611   5.601   0.604   6.900  0.3063 -0.3159  0.4446
   87MOL   C16041612   5.686   0.710   6.862  0.5434  0.0620 -0.8224
   87MOL   O16141613   5.548   0.375   6.885 -0.4872 -0.1753  0.5600
   87MOL   H16241614   5.619   1.212   6.808 -0.5938 -0.1996  0.4664
   87MOL   H16341615   5.761   1.026   6.895 -1.0776  0.2404  0.2058
   87MOL   H16441616   5.839   0.903   6.499  1.1170  0.9926  0.1460
   87MOL   H16541617   5.701   1.087   6.408 -0.5033 -0.1433  0.2875
   87MOL   H16641618   5.924   0.538   6.687  0.8662 -1.7090  0.8570
   87MOL   H16741619   5.779   0.355   6.747  0.7354 -0.5836  1.4762
   87MOL   H16841620   5.529   0.623   6.978  2.3627  0.6135  2.1708
   87MOL   H16941621   5.662   0.805   6.907 -0.3437 -0.7483  0.4187
   87MOL   C17041622   5.378   0.389   7.051 -0.2753 -0.3520  0.0629
   87MOL   C17141623   5.328   0.344   7.174  0.8708  0.4505 -0.0873
   87MOL   C17241624   5.403   0.268   7.263  0.4076 -0.7082 -0.1247
   87MOL   C17341625   5.537   0.244   7.237 -0.3757 -0.3803 -0.6157
   87MOL   C17441626   5.587   0.289   7.109  0.0805 -0.0299 -0.1380
   87MOL   C17541627   5.509   0.358   7.015 -0.5018 -0.5675 -0.5629
   87MOL   S17641628   5.322   0.193   7.403 -0.3560  0.2815  0.4920
   87MOL   O17741629   5.413   0.094   7.459 -0.2414  0.2478 -0.4920
   87MOL   O17841630   5.189   0.154   7.351 -0.1135 -0.4643  0.1671
   87MOL   C17941631   5.305   0.321   7.523  0.5795 -0.4092  0.0131
   87MOL   C18041632   5.382   0.440   7.517 -0.0877  0.3600  0.2529
   87MOL   C18141633   5.372   0.528   7.620 -0.0386 -0.0081 -0.2681
   87MOL   C18241634   5.292   0.502   7.734  0.4198  0.3892  0.3125
   87MOL   C18341635   5.215   0.387   7.742 -0.1606  0.8842  0.1353
   87MOL   C18441636   5.219   0.292   7.634  0.5505  0.4247 -0.5168
   87MOL   O18541637   5.297   0.594   7.831 -0.2112 -0.7083  0.0306
   87MOL   H18641638   5.309   0.432   6.980  0.1365  0.3316  0.0779
   87MOL   H18741639   5.224   0.366   7.190  1.0614  0.8519  0.5968
   87MOL   H18841640   5.593   0.193   7.313 -1.6591 -0.2840  0.4070
   87MOL   H18941641   5.691   0.272   7.090  0.1788  0.8287 -0.4014
   87MOL   H19041642   5.458   0.448   7.440  1.7661 -0.5014  1.9601
   87MOL   H19141643   5.426   0.622   7.624 -0.9119  0.4730  0.5689
   87MOL   H19241644   5.163   0.359   7.832  1.1338 -1.1326  0.2816
   87MOL   H19341645   5.170   0.197   7.646 -1.0041  1.5745  2.5573
   87MOL   C19441646   5.314   0.497   8.052 -0.0921 -0.3119  0.3044
   87MOL   C19541647   5.392   0.468   8.163  0.9742  0.3042 -0.0591
   87MOL   C19641648   5.531   0.499   8.159 -0.3204  0.5635 -0.0788
   87MOL   C19741649   5.590   0.544   8.037  0.0487  0.3939 -0.2473
   87MOL   C19841650   5.512   0.567   7.928 -0.1419  0.1776  0.4581
   87MOL   C19941651   5.373   0.555   7.937 -0.1224  0.0885  0.6145
   87MOL   S20041652   5.639   0.448   8.299 -0.0569  0.3425  0.1737
   87MOL   O20141653   5.707   0.328   8.250  0.1181 -0.1760  0.6241
   87MOL   O20241654   5.547   0.439   8.414 -0.6376 -0.2576  0.2150
   87MOL   C20341655   5.760   0.567   8.342 -0.2123  0.6282  0.3074
   87MOL   C20441656   5.877   0.522   8.410  0.1163  0.0022 -0.4044
   87MOL   C20541657   5.978   0.616   0.003  0.2751 -0.7505 -0.5970
   87MOL   C20641658   5.972   0.747   8.375  0.6217  0.2343 -0.5194
   87MOL   C20741659   5.853   0.789   8.313  0.4167  0.1146 -0.0971
   87MOL   C20841660   5.747   0.699   8.295 -0.6054 -0.3074  0.3283
   87MOL   O20941661   6.081   0.828   8.372  0.1160 -0.3553 -0.1867
   87MOL   H21041662   5.209   0.473   8.057 -0.2353  0.3633  0.5905
   87MOL   H21141663   5.358   0.431   8.259 -2.3246  0.2442 -1.1778
   87MOL   H21241664   5.698   0.547   8.033 -0.0225  1.1736 -1.9927
   87MOL   H21341665   5.546   0.604   7.832 -0.9694  0.9482  0.4578
   87MOL   H21441666   5.883   0.420   0.019 -0.5361 -0.7805 -2.5367
   87MOL   H21541667   6.067   0.583   0.054  0.2435  2.1667  1.4652
   87MOL   H21641668   5.845   0.886   8.267 -0.7769 -1.5079 -3.4525
   87MOL   H21741669   5.662   0.721   8.233  1.1582 -1.5517 -2.6199
   87MOL   C21841670   6.141   1.002   8.218  0.1268  0.4057 -0.7365
   87MOL   C21941671   6.169   1.037   8.090 -0.4240  0.1373  0.2328
   87MOL   C22041672   6.172   0.945   7.984 -0.2115 -0.0578  0.2811
   87MOL   C22141673   6.147   0.807   8.012  0.2507 -0.4263  0.5781
   87MOL   C22241674   6.130   0.772   8.146 -0.1065 -0.3399 -0.2349
   87MOL   C22341675   6.121   0.865   8.248  0.3149 -0.6845  0.2545
   87MOL   S22441676   6.194   0.992   7.815 -0.3121 -0.3194 -0.0198
   87MOL   O22541677   6.281   0.886   7.760 -0.4281  0.2157  0.0650
   87MOL   O22641678   6.240   1.132   7.802  0.4853 -0.8365  0.3646
   87MOL   C22741679   6.028   0.974   7.750  0.2506 -0.4401 -0.6757
   87MOL   C22841680   5.974   0.851   7.720  0.0076 -0.0001  0.6562
   87MOL   C22941681   5.838   0.838   7.687  0.2908  0.7504 -0.0412
   87MOL   C23041682   5.757   0.949   7.699 -0.3315 -0.0747  0.1560
   87MOL   C23141683   5.816   1.077   7.724 -0.6501 -0.5326  0.5986
   87MOL   C23241684   5.951   1.091   7.751  0.1100  0.0434 -0.0269
   87MOL   O23341685   5.621   0.926   7.679 -0.5196  0.3914  0.3593
   87MOL   H23441686   6.118   1.086   8.282 -0.9749 -2.1531  2.3535
   87MOL   H23541687   6.167   1.143   8.065  3.0828  0.1429 -0.3531
   87MOL   H23641688   6.143   0.726   7.940  2.5904 -0.6402  0.6497
   87MOL   H23741689   6.113   0.670   8.175 -1.6511 -0.5633 -1.8382
   87MOL   H23841690   6.041   0.767   7.732 -0.9952 -0.8980  0.0376
   87MOL   H23941691   5.792   0.743   7.664 -2.0704  2.1588 -1.3968
   87MOL   H24041692   5.752   1.164   7.722 -0.9763 -0.7954 -1.5584
   87MOL   H24141693   5.985   1.188   7.784  0.2706  0.3902 -1.2129
   87MOL   C24241694   5.512   0.910   7.906  0.0726  0.6519  0.3860
   87MOL   C24341695   5.420   0.961   7.998 -0.0193 -0.6390 -0.0262
   87MOL   C24441696   5.354   1.083   7.971 -0.0051 -0.0481  0.4281
   87MOL   C24541697   5.378   1.155   7.849 -0.0766  0.1265 -0.2957
   87MOL   C24641698   5.474   1.104   7.759 -0.4271  1.2504  0.1131
   87MOL   C24741699   5.541   0.972   7.784  0.0672  0.1303  0.2819
   87MOL   S24841700   5.225   1.150   8.079 -0.1778  0.0126 -0.8142
   87MOL   O24941701   5.110   1.057   8.061 -0.0808  0.4034  0.0679
   87MOL   O25041702   5.210   1.293   8.048  0.4449  0.2512 -0.2013
   87MOL   C25141703   5.271   1.139   8.245  0.0458 -0.0739 -0.1951
   87MOL   C25241704   5.172   1.092   8.340 -0.1227  0.5874  0.1644
   87MOL   C25341705   5.208   1.089   0.053  0.3889 -0.0826  0.2469
   87MOL   C25441706   5.342   1.116   0.089  0.3517  0.2796  0.5097
   87MOL   C25541707   5.437   1.151   8.414 -0.7683  0.3541 -0.3128
   87MOL   C25641708   5.402   1.167   8.280 -0.8369  0.1677 -0.4744
   87MOL   O25741709   5.382   1.090   0.215  0.5588  0.4437 -0.3908
   87MOL   H25841710   5.561   0.817   7.931  1.8832  2.1214  2.4325
   87MOL   H25941711   5.393   0.911   8.090  1.1276  2.0654  1.8534
   87MOL   H26041712   5.319   1.244   7.834 -1.0057  0.0834  2.8024
   87MOL   H26141713   5.493   1.168   7.674  0.9750  0.9564  0.1962
   87MOL   H26241714   5.073   1.064   8.309  0.1156 -1.5806  1.3155
   87MOL   H26341715   5.135   1.055   0.125 -0.0309  1.8463  0.7642
   87MOL   H26441716   5.539   1.178   0.010 -0.8717 -0.0698  0.7385
   87MOL   H26541717   5.473   1.190   8.202 -0.1228  0.1109  0.1651
   87MOL   C26641718   5.604   1.057   0.298  0.8464  0.5221 -0.3228
   87MOL   C26741719   5.704   0.966   0.331  0.3275  0.2553 -0.3189
   87MOL   C26841720   5.690   0.832   0.302 -0.1925 -0.2174  0.0781
   87MOL   C26941721   5.573   0.780   0.242  0.3539 -0.3944  0.5245
   87MOL   C27041722   5.475   0.871   0.204  0.5064 -0.6995  0.4134
   87MOL   C27141723   5.487   1.011   0.235 -0.5100 -0.4613 -0.3544
   87MOL   S27241724   5.820   0.729   0.356  0.0456 -0.2450  0.0488
   87MOL   O27341725   5.943   0.796   0.317 -0.3768  0.4000  0.0908
   87MOL   O27441726   5.802   0.586   0.326  0.2506  0.0380  0.4137
   87MOL   C27541727   5.802   0.749   0.537  0.3451 -0.1917  0.3552
   87MOL   C27641728   5.680   0.706   0.587  0.3391  1.0125  0.0765
   87MOL   C27741729   5.658   0.699   0.727 -0.1296 -0.4937  0.6003
   87MOL   C27841730   5.756   0.747   0.813 -0.4782  0.5197 -0.3366
   87MOL   C27941731   5.880   0.800   0.764  0.6312 -0.0086 -0.1826
   87MOL   C28041732   5.905   0.791   0.626  0.4305  0.5062 -0.2432
   87MOL   O28141733   5.722   0.747   0.950  0.0616  0.1084 -0.2320
   87MOL   H28241734   5.621   1.162   0.315  2.6386  0.3632 -1.0098
   87MOL   H28341735   5.797   1.002   0.373 -0.6373  0.8772  1.3121
   87MOL   H28441736   5.570   0.676   0.213  4.5663 -0.9487  1.6544
   87MOL   H28541737   5.387   0.836   0.153  1.6111  0.9123 -2.6954
   87MOL   H28641738   5.596   0.674   0.527  0.0692  0.0189  0.9731
   87MOL   H28741739   5.558   0.671   0.757 -0.6050  0.4232 -0.1052
   87MOL   H28841740   5.953   0.834   0.837 -1.9928 -1.6857  3.3633
   87MOL   H28941741   5.999   0.819   0.582 -0.3336 -0.2932 -2.4690
   87MOL   C29041742   5.825   0.954   1.032  0.0759  0.0670  0.1107
   87MOL   C29141743   5.921   1.019   1.111 -0.4314  0.3409 -0.4955
   87MOL   C29241744   6.003   0.938   1.196  0.4585  0.0602  0.0477
   87MOL   C29341745   5.990   0.800   1.211 -0.6919  0.2101  0.7022
   87MOL   C29441746   5.903   0.733   1.115  0.0214  0.0156 -0.0804
   87MOL   C29541747   5.816   0.810   1.032  0.9633 -0.4820  0.6311
   87MOL   S29641748   6.108   1.026   1.302  0.0695  0.5173  0.0410
   87MOL   O29741749   6.148   1.153   1.235  0.0024  0.2245  0.0713
   87MOL   O29841750   6.209   0.934   1.352 -0.5258  0.0633  0.3980
   87MOL   C29941751   6.013   1.065   1.453 -0.4478  0.1160  0.6111
   87MOL   C30041752   5.888   1.003   1.477 -0.8826  0.5994  0.6229
   87MOL   C30141753   5.815   1.038   1.593 -0.4435  0.1925 -0.0515
   87MOL   C30241754   5.877   1.115   1.692  0.9795 -0.3032 -0.7419
   87MOL   C30341755   6.009   1.167   1.674 -0.1796  0.6234 -0.4312
   87MOL   C30441756   6.065   1.154   1.546  1.4036  0.2480  1.3618
   87MOL   O30541757   5.813   1.138   1.814 -0.2801 -0.1825  0.1354
   87MOL   H30641758   5.760   1.001   0.960 -1.0422  0.0428  1.0931
   87MOL   H30741759   5.936   1.126   1.112  0.0628  0.2860 -1.3750
   87MOL   H30841760   6.051   0.749   1.283  0.7687  1.8039  0.6170
   87MOL   H30941761   5.897   0.626   1.117 -0.1624  0.0361  2.0044
   87MOL   H31041762   5.838   0.930   1.415 -1.0929  1.6495 -0.4575
   87MOL   H31141763   5.719   0.996   1.619 -0.8261  1.6513  0.9155
   87MOL   H31241764   6.058   1.218   1.755  0.7482 -0.3181 -0.3986
   87MOL   H31341765   6.152   1.215   1.524 -0.5340  2.5640 -0.2419
   87MOL   C31441766   5.751   1.370   1.823 -0.2568  0.0228 -0.1470
   87MOL   C31541767   5.648   1.462   1.841  0.6647  0.0642  0.6888
   87MOL   C31641768   5.513   1.419   1.843  0.0395 -0.5333 -0.3912
   87MOL   C31741769   5.480   1.282   1.854 -0.3041 -0.3379 -0.1130
   87MOL   C31841770   5.588   1.191   1.837  0.1311  0.5636 -0.3700
   87MOL   C31941771   5.723   1.233   1.824  0.8088  0.4453 -0.1455
   87MOL   S32041772   5.390   1.554   1.839 -0.1730  0.4697  0.5438
   87MOL   O32141773   5.463   1.670   1.892 -0.3152 -0.2272 -0.4962
   87MOL   O32241774   5.267   1.504   1.903  0.1195 -0.5091 -0.1504
   87MOL   C32341775   5.363   1.588   1.669  0.2967 -0.0981  0.8670
   87MOL   C32441776   5.465   1.644   1.588  0.3519  0.0642  0.4143
   87MOL   C32541777   5.436   1.681   1.455  0.0518  0.0544 -0.1421
   87MOL   C32641778   5.312   1.669   1.392 -0.1285  0.5548  0.0753
   87MOL   C32741779   5.211   1.611   1.472  0.6477 -0.4519 -0.3419
   87MOL   C32841780   5.235   1.578   1.611 -0.4470  1.0920  0.0223
   87MOL   O32941781   5.290   1.720   1.268  0.1862 -0.1262 -0.4169
   87MOL   H33041782   5.855   1.399   1.824 -0.9649  2.6917 -0.5775
   87MOL   H33141783   5.667   1.568   1.848  0.7595  0.0221  1.0717
   87MOL   H33241784   5.377   1.253   1.864 -1.0343  2.4840  0.8362
   87MOL   H33341785   5.561   1.087   1.843 -0.2584  0.6256 -1.0714
   87MOL   H33441786   5.564   1.655   1.631  0.5997 -0.9667  0.1251
   87MOL   H33541787   5.524   1.720   1.405  0.7573  1.6956  2.3088
   87MOL   H33641788   5.113   1.600   1.426 -0.2970  1.1606  1.1919
   87MOL   H33741789   5.152   1.543   1.670  1.2519 -2.8779  0.1872
   87MOL   C33841790   5.079   1.833   1.248 -0.4052  0.0524  0.2825
   87MOL   C33941791   5.016   1.957   1.222  0.4584  0.2448  0.3981
   87MOL   C34041792   5.093   2.074   1.214 -0.5539 -0.4234 -0.2431
   87MOL   C34141793   5.234   2.071   1.234 -0.3375  0.1018  0.2768
   87MOL   C34241794   5.298   1.951   1.266 -0.7827  0.0423 -0.2132
   87MOL   C34341795   5.221   1.831   1.260 -0.9450 -0.1545  0.2762
   87MOL   S34441796   5.015   2.231   1.188 -0.1754  0.4744  0.0351
   87MOL   O34541797   4.985   2.296   1.320 -0.6366 -0.3872 -0.0170
   87MOL   O34641798   4.906   2.209   1.097  0.5682  0.3737 -0.0052
   87MOL   C34741799   5.140   2.334   1.108  0.2696 -0.5853  0.2251
   87MOL   C34841800   5.141   2.340   0.968 -0.1078 -0.3891 -0.3726
   87MOL   C34941801   5.237   2.413   0.899 -0.6807  0.0342 -0.7999
   87MOL   C35041802   5.336   2.486   0.977 -0.6292 -0.5025  0.9624
   87MOL   C35141803   5.329   2.482   1.116  0.4073 -0.0899 -0.0565
   87MOL   C35241804   5.228   2.410   1.183 -0.6731 -0.1719  0.3524
   87MOL   O35341805   5.429   2.581   0.928  0.2050  0.6293 -0.0277
   87MOL   H35441806   5.012   1.748   1.248 -1.0351  0.5358  1.6893
   87MOL   H35541807   4.909   1.968   1.210  0.7858  2.0377 -1.0586
   87MOL   H35641808   5.282   2.167   1.222  0.5601 -0.4258 -0.3623
   87MOL   H35741809   5.402   1.949   1.295 -0.4369 -1.4267 -1.4879
   87MOL   H35841810   5.064   2.284   0.918 -0.9938 -0.4732  1.0649
   87MOL   H35941811   5.239   2.421   0.791  1.8595  3.9328 -0.5651
   87MOL   H36041812   5.398   2.542   1.174 -0.4296  2.1597 -1.3330
   87MOL   H36141813   5.229   2.404   1.291 -1.1274  1.8173  0.4817
   87MOL   C36241814   5.412   2.605   0.691 -0.3220 -0.2758  0.6028
   87MOL   C36341815   5.371   2.687   0.578  0.6173  0.6989 -0.4684
   87MOL   C36441816   5.329   2.819   0.599 -0.9710 -0.0206  0.7159
   87MOL   C36541817   5.318   2.873   0.726 -0.2785  0.3984  0.6221
   87MOL   C36641818   5.346   2.785   0.837  0.7274 -0.4178  0.6433
   87MOL   C36741819   5.395   2.655   0.821 -0.0038  0.8976 -0.2953
   87MOL   S36841820   5.297   2.924   0.463  0.1332  0.1207  0.0375
   87MOL   O36941821   5.424   2.979   0.417  0.2788 -0.0071 -0.5689
   87MOL   O37041822   5.186   3.015   0.504  0.3072 -0.1368  0.0546
   87MOL   C37141823   5.229   2.818   0.337 -0.2388  0.6229 -0.5464
   87MOL   C37241824   5.144   2.711   0.372 -0.2001 -0.0274  0.1514
   87MOL   C37341825   5.105   2.625   0.271  0.3013  0.7696  0.2670
   87MOL   C37441826   5.145   2.646   0.138 -0.1201  0.4049 -0.3055
   87MOL   C37541827   5.226   2.754   0.108  0.1384 -0.3195  0.6420
   87MOL   C37641828   5.266   2.845   0.203 -1.2894 -0.1575 -0.5721
   87MOL   O37741829   5.116   2.563   0.026  0.6602  0.2601 -0.4446
   87MOL   H37841830   5.460   2.510   0.673 -1.2358 -0.2052 -2.5874
   87MOL   H37941831   5.398   2.645   0.482 -1.8492  1.0955 -1.3431
   87MOL   H38041832   5.289   2.970   0.762 -1.3463  0.5901 -0.7111
   87MOL   H38141833   5.345   2.828   0.936 -0.7692 -1.2735  1.0068
   87MOL   H38241834   5.117   2.696   0.475  0.0587  0.4377  0.2858
   87MOL   H38341835   5.045   2.537   0.288  0.4673  0.7611  0.8047
   87MOL   H38441836   5.266   2.774   0.010 -0.2563  0.1418  0.5743
   87MOL   H38541837   5.336   2.923   0.178  2.8194 -2.9854  1.6402
   87MOL   C38641838   5.014   2.538   8.233 -0.3873  0.2477  0.2834
   87MOL   C38741839   4.916   2.575   8.141  0.2083 -0.4958  0.5138
   87MOL   C38841840   4.821   2.672   8.174 -0.4658  0.2105 -0.3392
   87MOL   C38941841   4.817   2.728   8.304 -0.2025 -0.1832 -0.0077
   87MOL   C39041842   4.914   2.697   8.397 -0.5003 -0.6742  0.3290
   87MOL   C39141843   5.016   2.598   8.366 -0.0654 -0.4629  0.0810
   87MOL   S39241844   4.711   2.743   8.039 -0.2426  0.0590 -0.0798
   87MOL   O39341845   4.712   2.888   8.058  0.7583 -0.2248 -0.2935
   87MOL   O39441846   4.583   2.665   8.036 -0.2803 -0.2366 -0.1744
   87MOL   C39541847   4.802   2.708   7.892 -0.2663 -0.4407  0.4149
   87MOL   C39641848   4.942   2.738   7.880 -0.4209 -0.6506  0.4335
   87MOL   C39741849   5.006   2.709   7.757 -0.3084 -0.1213  0.3939
   87MOL   C39841850   4.942   2.639   7.657  0.0611 -0.2484  0.1637
   87MOL   C39941851   4.804   2.607   7.668  0.2733 -0.9248  0.2831
   87MOL   C40041852   4.731   2.646   7.784 -0.5412  0.5025  0.3517
   87MOL   O40141853   5.014   2.604   7.547 -0.5741  0.3365  0.1289
   87MOL   H40241854   5.073   2.449   8.217 -1.8747 -1.1666  2.4396
   87MOL   H40341855   4.913   2.522   8.047  1.2584  0.3518 -0.0163
   87MOL   H40441856   4.743   2.802   8.330  1.0172  0.2237  2.4379
   87MOL   H40541857   4.904   2.731   0.073  2.2511 -0.8405  0.6981
   87MOL   H40641858   4.996   2.780   7.964  0.7277 -0.1907 -0.5268
   87MOL   H40741859   5.111   2.735   7.749 -0.0311 -1.2282  0.4524
   87MOL   H40841860   4.765   2.544   7.590  0.7417 -0.0123 -0.7068
   87MOL   H40941861   4.625   2.630   7.793 -0.5099  0.3612  0.4789
   87MOL   C41041862   4.991   2.812   7.416 -0.0712 -0.0649 -0.0083
   87MOL   C41141863   5.051   2.909   7.336  0.5179  0.1457 -0.6862
   87MOL   C41241864   5.189   2.896   7.305 -0.5577  0.0887 -0.2051
   87MOL   C41341865   5.260   2.781   7.346 -0.4017 -0.4319  0.8500
   87MOL   C41441866   5.199   2.685   7.425  0.8870  0.0653  0.0342
   87MOL   C41541867   5.065   2.703   7.470  0.2112  0.5103  0.3960
   87MOL   S41641868   5.277   3.018   7.203 -0.4602  0.3747  0.2958
   87MOL   O41741869   5.180   3.120   7.161  0.2143  0.1553 -0.1975
   87MOL   O41841870   5.367   2.954   7.105 -0.4494  0.2470  0.2137
   87MOL   C41941871   5.380   3.097   7.326  0.3819  0.5197 -0.4349
   87MOL   C42041872   5.490   3.022   7.378  0.0415  1.0581  0.3437
   87MOL   C42141873   5.557   3.079   7.488 -0.8508  0.3837 -0.1733
   87MOL   C42241874   5.504   3.188   7.555 -0.1716  0.3538  0.6836
   87MOL   C42341875   5.400   3.260   7.507  0.6112  0.1820  0.0942
   87MOL   C42441876   5.340   3.220   7.384 -0.3544  0.4008 -0.4350
   87MOL   O42541877   5.552   3.211   7.679 -0.4520 -0.3995 -0.0791
   87MOL   H42641878   4.883   2.813   7.425 -0.1155  0.8542 -0.5788
   87MOL   H42741879   4.988   2.987   7.296  1.4873  1.4231  0.2458
   87MOL   H42841880   5.367   2.777   7.329 -0.6339 -1.6812 -0.3815
   87MOL   H42941881   5.257   2.605   7.469 -0.4317  0.2873  2.2728
   87MOL   H43041882   5.531   2.933   7.333 -0.1601  0.8529  0.5629
   87MOL   H43141883   5.628   3.015   7.539 -1.7607 -2.1221 -1.9496
   87MOL   H43241884   5.359   3.337   7.571  0.7443 -0.3285  0.7974
   87MOL   H43341885   5.254   3.274   7.350 -1.8174 -0.4491  1.7911
   87MOL   C43441886   5.418   3.017   7.763 -0.3268 -0.3695  0.1771
   87MOL   C43541887   5.367   2.954   7.877  0.1515 -0.2221 -0.3028
   87MOL   C43641888   5.391   3.006   8.003 -0.6031 -0.1233 -0.5653
   87MOL   C43741889   5.475   3.119   8.022 -0.3837  0.4775 -0.4051
   87MOL   C43841890   5.528   3.184   7.906  0.4206  0.2589 -0.7573
   87MOL   C43941891   5.500   3.132   7.778  0.0177 -0.1010  0.5311
   87MOL   S44041892   5.332   2.916   8.142 -0.2319 -0.4330  0.4431
   87MOL   O44141893   5.188   2.897   8.136 -0.4277 -0.2227 -0.3579
   87MOL   O44241894   5.393   2.975   8.263  0.2331 -0.0556 -0.5213
   87MOL   C44341895   5.401   2.746   8.144  0.6439  0.6863 -0.5488
   87MOL   C44441896   5.536   2.725   8.173 -0.9177 -0.3488 -0.1270
   87MOL   C44541897   5.586   2.597   8.196 -0.2001  0.0567  0.1002
   87MOL   C44641898   5.500   2.487   8.213 -0.1760  0.1044  0.3952
   87MOL   C44741899   5.364   2.500   8.182 -0.7375  0.8391  0.6408
   87MOL   C44841900   5.317   2.629   8.140 -0.1393 -0.2011 -0.4779
   87MOL   O44941901   5.557   2.372   8.272  0.2246  0.0697 -0.2528
   87MOL   H45041902   5.407   2.976   7.664  0.2472  1.3348 -0.6046
   87MOL   H45141903   5.325   2.855   7.886 -2.0755  0.6151 -1.1287
   87MOL   H45241904   5.485   3.161   8.122  2.0610  1.0653 -0.8672
   87MOL   H45341905   5.587   3.274   7.917  0.9145 -0.2415  0.7290
   87MOL   H45441906   5.593   2.812   8.200 -1.2746  0.0746 -0.7123
   87MOL   H45541907   5.692   2.595   8.216  0.2723 -2.7294 -2.2983
   87MOL   H45641908   5.293   2.419   8.191 -1.5273  1.3245 -0.9698
   87MOL   H45741909   5.213   2.637   8.112 -0.3568  0.7201  0.5742
   87MOL   C45841910   5.469   2.423   0.073  0.2739  0.0312 -0.5030
   87MOL   C45941911   5.379   2.391   0.174  0.6216 -0.3432  0.3534
   87MOL   C46041912   5.350   2.254   0.191  0.0407 -0.1309  0.1278
   87MOL   C46141913   5.401   2.159   0.098  0.4777  0.2955 -0.7896
   87MOL   C46241914   5.483   2.199   8.416 -0.2156 -0.2178 -0.1549
   87MOL   C46341915   5.506   2.335   8.397 -1.1849  0.5547 -0.5615
   87MOL   S46441916   5.270   2.205   0.349 -0.2902 -0.0602 -0.0726
   87MOL   O46541917   5.192   2.082   0.327 -0.3284 -0.0501  0.2923
   87MOL   O46641918   5.205   2.326   0.403  0.1416 -0.3347 -0.1805
   87MOL   C46741919   5.403   2.166   0.462  0.2115 -0.3540  0.3943
   87MOL   C46841920   5.403   2.232   0.587 -0.3170 -0.8939 -0.1199
   87MOL   C46941921   5.508   2.204   0.682  0.1984  0.6523 -0.0013
   87MOL   C47041922   5.598   2.096   0.644 -0.3330 -0.1556  0.2723
   87MOL   C47141923   5.594   2.032   0.519  0.4671 -0.1398  0.0707
   87MOL   C47241924   5.491   2.066   0.428  0.2464  0.3269 -0.2475
   87MOL   O47341925   5.689   2.054   0.737 -0.3675  0.9114  0.2428
   87MOL   H47441926   5.495   2.527   0.056 -0.2461  0.6202  2.0023
   87MOL   H47541927   5.358   2.459   0.256 -1.9967 -0.4414 -0.1968
   87MOL   H47641928   5.377   2.055   0.110  2.1714 -0.1302 -0.8758
   87MOL   H47741929   5.512   2.124   8.344  0.2246 -0.7428  0.5658
   87MOL   H47841930   5.321   2.298   0.613 -0.2812 -0.8529 -0.1098
   87MOL   H47941931   5.512   2.244   0.782  0.3466  0.3276  0.1258
   87MOL   H48041932   5.675   1.964   0.494  1.1378  0.8241 -0.3901
   87MOL   H48141933   5.490   2.025   0.328 -1.5842  1.4774 -0.7290
   87MOL   H48241934   5.712   2.114   0.807 -0.2975 -0.9507  1.8353
   88MOL     C141935   2.533   4.241   0.241 -0.7481 -0.7255 -0.3455
   88MOL     C241936   2.566   4.106   0.209  0.2712  0.2091  0.1846
   88MOL     C341937   2.528   4.050   0.083 -1.0260  0.1858 -0.5054
   88MOL     C441938   2.458   4.129   8.416 -0.1435  0.8267 -0.0585
   88MOL     C541939   2.425   4.262   0.022 -0.6416  0.3223  0.3207
   88MOL     C641940   2.462   4.319   0.143 -0.5922 -0.1864  0.0027
   88MOL     S741941   2.573   3.872   0.053  0.1872 -0.5587  0.1108
   88MOL     O841942   2.520   3.836   8.347 -0.2493 -0.2950 -0.1040
   88MOL     O941943   2.546   3.788   0.169 -0.5753 -0.6601  0.5579
   88MOL    C1041944   2.753   3.872   0.023 -0.0023  0.0415  0.2548
   88MOL    C1141945   2.845   3.884   0.131 -0.1286  0.2341 -0.7480
   88MOL    C1241946   2.983   3.875   0.107 -0.9599  0.2862  1.0089
   88MOL    C1341947   3.023   3.849   8.401 -0.0935 -0.3495 -0.0916
   88MOL    C1441948   2.937   3.843   8.293  0.0672  0.4306 -0.0380
   88MOL    C1541949   2.800   3.850   8.316 -0.2336  0.4881 -0.6110
   88MOL    O1641950   3.158   3.838   8.364 -0.1550 -0.3007 -0.1649
   88MOL    H1741951   2.543   4.284   0.340  1.5167 -0.7704 -0.5149
   88MOL    H1841952   2.613   4.048   0.287 -0.9010  0.3843  1.0348
   88MOL    H1941953   2.433   4.093   8.318  1.0011  0.5273 -0.2493
   88MOL    H2041954   2.375   4.310   8.363  0.8909 -0.8229 -1.2718
   88MOL    H2141955   2.809   3.901   0.232 -0.9778  1.1993 -1.1963
   88MOL    H2241956   3.057   3.883   0.185  1.3943 -2.0172 -0.8595
   88MOL    H2341957   2.985   3.851   8.196  0.0682  0.3492 -0.0438
   88MOL    H2441958   2.730   3.837   8.235 -1.1216 -0.0776  0.2342
   88MOL    H2541959   2.432   4.419   0.170 -1.3775  0.0641 -1.7268
   88MOL    C2641960   3.231   3.666   0.089 -0.1320 -0.3557 -0.1270
   88MOL    C2741961   3.327   3.610   0.171 -0.3238  0.1792  0.0553
   88MOL    C2841962   3.441   3.683   0.205  0.5544  0.1026 -0.0339
   88MOL    C2941963   3.459   3.810   0.151  0.2798 -0.4426  0.2064
   88MOL    C3041964   3.361   3.871   0.072 -0.2996 -0.2127 -0.1865
   88MOL    C3141965   3.250   3.794   0.030  0.6261  0.0289  0.4678
   88MOL    S3241966   3.561   3.611   0.312  0.2023 -0.2616  0.0216
   88MOL    O3341967   3.675   3.700   0.334 -0.2113  0.3055  0.3263
   88MOL    O3441968   3.571   3.474   0.264  0.1767 -0.5379 -0.4160
   88MOL    C3541969   3.498   3.592   0.478 -0.0092  0.2759 -0.2164
   88MOL    C3641970   3.565   3.513   0.575  0.4796 -0.1616  0.5098
   88MOL    C3741971   3.507   3.504   0.711 -1.1859  0.2851 -0.3617
   88MOL    C3841972   3.409   3.592   0.749 -0.0186 -0.3544 -0.9173
   88MOL    C3941973   3.357   3.684   0.662 -0.1429 -0.1614  0.1649
   88MOL    C4041974   3.395   3.685   0.524 -0.4744 -0.5756 -0.0016
   88MOL    O4141975   3.367   3.588   0.879  0.0773 -0.1700  0.5463
   88MOL    H4241976   3.143   3.612   0.057 -0.0862 -1.5464  1.6725
   88MOL    H4341977   3.318   3.507   0.202 -3.0898  0.7500  1.2506
   88MOL    H4441978   3.550   3.862   0.178 -0.4987  0.4876  1.0612
   88MOL    H4541979   3.383   3.969   0.032 -0.6050  1.6633  4.0011
   88MOL    H4641980   3.644   3.440   0.560 -1.0387 -1.9553  0.9775
   88MOL    H4741981   3.551   3.443   0.788  0.8339  1.9391 -0.1521
   88MOL    H4841982   3.282   3.757   0.692  1.2800  1.2119  0.4343
   88MOL    H4941983   3.359   3.763   0.459  0.7991 -0.9432 -1.1740
   88MOL    C5041984   3.519   3.719   1.001  0.1935  0.4216 -0.2960
   88MOL    C5141985   3.551   3.825   1.090 -0.4844  0.0646  0.5864
   88MOL    C5241986   3.449   3.908   1.142  0.1144  0.6063 -0.0410
   88MOL    C5341987   3.312   3.889   1.095 -0.2507 -0.1934  0.4250
   88MOL    C5441988   3.285   3.778   1.007  0.3079 -0.3059 -0.0707
   88MOL    C5541989   3.388   3.694   0.963 -0.1833  0.4754  0.5086
   88MOL    S5641990   3.499   4.050   1.242 -0.6357 -0.2499  0.1121
   88MOL    O5741991   3.646   4.046   1.257 -0.1618  0.2212 -0.2813
   88MOL    O5841992   3.408   4.047   1.357 -0.5554  0.4097  0.0499
   88MOL    C5941993   3.451   4.191   1.145 -0.0338 -0.8052  0.1397
   88MOL    C6041994   3.543   4.233   1.042  0.0426 -0.0962  0.2557
   88MOL    C6141995   3.498   4.319   0.942  0.3998 -0.3181  0.2713
   88MOL    C6241996   3.361   4.360   0.939  0.5133  0.0729  0.1965
   88MOL    C6341997   3.273   4.333   1.049 -0.2352 -0.0660 -0.0413
   88MOL    C6441998   3.320   4.252   1.162  0.4043 -0.3193  0.9767
   88MOL    O6541999   3.318   4.420   0.830 -0.0156 -0.3805 -0.9003
   88MOL    H6642000   3.598   3.654   0.966  0.1566 -0.6958  1.6486
   88MOL    H6742001   3.650   3.829   1.133 -0.2895 -2.1624  0.4052
   88MOL    H6842002   3.238   3.961   1.126  0.3676  0.8613 -0.4941
   88MOL    H6942003   3.187   3.765   0.964 -0.0985  1.2034  0.3949
   88MOL    H7042004   3.642   4.189   1.037  0.0998 -0.0973  1.1950
   88MOL    H7142005   3.565   4.350   0.862  1.5828 -1.5271  0.7746
   88MOL    H7242006   3.174   4.372   1.035 -0.9136 -0.7338  2.7675
   88MOL    H7342007   3.246   4.221   1.235 -1.4466  1.0601 -0.2591
   88MOL    C7442008   3.148   4.417   0.658 -0.2043  0.7634  0.0612
   88MOL    C7542009   3.070   4.352   0.563 -0.4669 -0.0830  0.3865
   88MOL    C7642010   3.069   4.214   0.558 -0.0562 -0.0426 -0.0084
   88MOL    C7742011   3.149   4.140   0.643 -0.5922 -0.4802  0.2438
   88MOL    C7842012   3.231   4.207   0.739  0.7866 -0.7732 -0.2107
   88MOL    C7942013   3.232   4.351   0.748 -0.5400 -0.1558  0.4281
   88MOL    S8042014   2.971   4.121   0.435 -0.5398 -0.0928  0.0874
   88MOL    O8142015   2.827   4.144   0.447  0.2664  0.3005  0.5384
   88MOL    O8242016   3.019   3.985   0.442  0.4190  0.1750 -0.2592
   88MOL    C8342017   3.024   4.204   0.287  0.1275 -0.6717 -0.3942
   88MOL    C8442018   2.949   4.308   0.238  0.1963  0.4289 -0.3853
   88MOL    C8542019   2.991   4.382   0.127  0.6229  0.1940 -0.8246
   88MOL    C8642020   3.102   4.337   0.057 -0.1780  0.6575 -0.4969
   88MOL    C8742021   3.189   4.234   0.103  1.0569  0.8079 -0.4998
   88MOL    C8842022   3.140   4.164   0.213  0.5413  0.6814 -0.9538
   88MOL    O8942023   3.127   4.399   8.369  0.1587 -0.1482  0.1681
   88MOL    H9042024   3.153   4.524   0.658 -0.6089  0.8713 -4.4858
   88MOL    H9142025   2.993   4.409   0.512  0.9309 -0.4051 -2.1608
   88MOL    H9242026   3.138   4.033   0.650  0.8278 -0.6032  0.9292
   88MOL    H9342027   3.289   4.147   0.807 -0.9974 -4.1998 -1.5989
   88MOL    H9442028   2.861   4.329   0.297 -0.0511  0.7426 -0.8661
   88MOL    H9542029   2.927   4.461   0.090  0.4974  1.1170  1.3099
   88MOL    H9642030   3.274   4.198   0.048  1.0244 -0.1613  0.0708
   88MOL    H9742031   3.210   4.086   0.241 -0.7749 -0.7690 -1.6669
   88MOL    C9842032   3.088   4.430   8.146 -0.6441 -0.5032 -0.4550
   88MOL    C9942033   3.062   4.389   8.018 -0.1052  0.4798  0.9575
   88MOL   C10042034   3.050   4.249   7.998 -1.1686 -0.7876  0.2275
   88MOL   C10142035   3.055   4.157   8.104  0.3008 -0.0166  0.3465
   88MOL   C10242036   3.086   4.197   8.232  0.5260  0.3184 -0.1559
   88MOL   C10342037   3.104   4.337   8.249 -0.4849 -0.4643  0.6250
   88MOL   S10442038   3.032   4.188   7.830  0.4235 -0.0201  0.1600
   88MOL   O10542039   3.005   4.303   7.745  0.6884 -0.0661 -0.0832
   88MOL   O10642040   2.935   4.081   7.830 -0.1838 -0.1476  0.2595
   88MOL   C10742041   3.195   4.127   7.779 -0.5707 -0.1733  0.5913
   88MOL   C10842042   3.208   4.044   7.669 -0.0107 -0.0383  0.4358
   88MOL   C10942043   3.334   3.999   7.624 -0.0702 -0.5664  0.1273
   88MOL   C11042044   3.452   4.035   7.687  0.1819 -0.2120 -0.2740
   88MOL   C11142045   3.444   4.116   7.803  0.0578 -0.3896 -0.5698
   88MOL   C11242046   3.316   4.165   7.843 -0.1168 -0.5366  0.0152
   88MOL   O11342047   3.576   3.997   7.633  0.2999  0.2869 -0.4954
   88MOL   H11442048   3.088   4.537   8.158 -0.6805 -0.4415 -1.0225
   88MOL   H11542049   3.058   4.454   7.932  1.4414 -1.0382 -0.2901
   88MOL   H11642050   3.048   4.052   8.079 -1.1170 -0.4634  2.4434
   88MOL   H11742051   3.093   4.121   8.308  2.1354  1.0496  0.4423
   88MOL   H11842052   3.122   4.018   7.609 -0.4205  0.7761  0.6641
   88MOL   H11942053   3.341   3.921   7.550 -0.0209  0.7515 -1.2825
   88MOL   H12042054   3.532   4.144   7.859  2.3279 -1.0763 -3.6726
   88MOL   H12142055   3.295   4.237   7.921 -1.1349  0.9093 -1.5800
   88MOL   C12242056   3.676   3.773   7.613 -0.4853  0.3816 -0.0971
   88MOL   C12342057   3.742   3.662   7.672  0.0994  0.2298 -0.0345
   88MOL   C12442058   3.765   3.663   7.816  0.4021 -0.9824 -0.4447
   88MOL   C12542059   3.745   3.777   7.892 -0.3034  0.9038  0.1955
   88MOL   C12642060   3.680   3.890   7.829  0.1155  0.5159 -0.2378
   88MOL   C12742061   3.637   3.886   7.694 -1.1964 -0.1780 -0.2132
   88MOL   S12842062   3.850   3.522   7.873 -0.0956 -0.1209 -0.0678
   88MOL   O12942063   3.856   3.537   8.016  0.5153  0.4280 -0.4454
   88MOL   O13042064   3.980   3.515   7.808 -0.2306  0.1911  0.2950
   88MOL   C13142065   3.765   3.375   7.848  0.2098  0.4826  0.4569
   88MOL   C13242066   3.624   3.367   7.837 -0.1204 -0.0055 -0.4314
   88MOL   C13342067   3.564   3.245   7.802 -0.1563  0.2144 -0.4465
   88MOL   C13442068   3.641   3.130   7.785  0.2399 -0.3548  0.6794
   88MOL   C13542069   3.783   3.141   7.803  0.4176 -0.6922 -0.1785
   88MOL   C13642070   3.845   3.260   7.840 -0.0366 -0.4817 -0.1963
   88MOL   O13742071   3.594   3.005   7.753 -0.4390  0.6209 -0.7478
   88MOL   H13842072   3.651   3.768   7.509  0.3493  1.5652 -0.3695
   88MOL   H13942073   3.773   3.576   7.616  0.5663  0.5394 -0.2530
   88MOL   H14042074   3.776   3.777   7.995  1.5097  0.7125 -0.3260
   88MOL   H14142075   3.654   3.976   7.889  2.5774  1.0239  0.1356
   88MOL   H14242076   3.571   3.455   7.871 -0.5226 -0.1350 -0.7145
   88MOL   H14342077   3.456   3.235   7.802 -0.2587  1.2900 -0.7987
   88MOL   H14442078   3.837   3.047   7.799 -1.2164 -1.5843 -2.8810
   88MOL   H14542079   3.953   3.262   7.849 -0.0410  3.6396  0.0225
   88MOL   C14642080   3.637   2.952   7.520 -0.2859  0.3546 -0.2625
   88MOL   C14742081   3.598   2.946   7.381  0.4354 -0.4129 -0.3853
   88MOL   C14842082   3.461   2.981   7.349 -0.1902 -0.0696  0.2674
   88MOL   C14942083   3.372   3.004   7.456  0.8346 -0.7768 -0.0065
   88MOL   C15042084   3.411   3.005   7.592 -0.1215 -0.1444 -0.2541
   88MOL   C15142085   3.548   2.981   7.624 -0.9077  0.2536  0.7151
   88MOL   S15242086   3.400   2.954   7.188  0.0166  0.4787 -0.1468
   88MOL   O15342087   3.509   2.970   7.089  0.0118 -0.0866 -0.0944
   88MOL   O15442088   3.278   3.038   7.180 -0.2148 -0.4815 -0.2175
   88MOL   C15542089   3.359   2.774   7.192  1.7235 -0.8666 -0.1690
   88MOL   C15642090   3.228   2.735   7.231 -0.1850  0.1177 -0.1371
   88MOL   C15742091   3.182   2.601   7.227  0.1053  0.6053  0.0808
   88MOL   C15842092   3.274   2.500   7.186  0.8728  0.7030  0.4099
   88MOL   C15942093   3.409   2.536   7.159  0.4154  0.0369  0.6652
   88MOL   C16042094   3.454   2.671   7.157 -0.4400  0.2341  0.1537
   88MOL   O16142095   3.243   2.366   7.194  0.5064 -0.0791  0.2714
   88MOL   H16242096   3.742   2.940   7.542 -0.5590 -1.7059  0.0040
   88MOL   H16342097   3.671   2.925   7.304 -0.5203 -0.9310 -1.1521
   88MOL   H16442098   3.268   3.021   7.432  0.6161  0.1006  1.5138
   88MOL   H16542099   3.338   3.026   7.669  1.2582 -1.4883  1.4783
   88MOL   H16642100   3.163   2.816   7.262 -2.3972 -2.0442  0.9611
   88MOL   H16742101   3.084   2.572   7.259 -0.6936  1.2117 -1.7438
   88MOL   H16842102   3.481   2.457   7.141 -1.2890 -1.7649  1.5773
   88MOL   H16942103   3.549   2.706   7.118  0.4193 -3.8791 -1.7251
   88MOL   C17042104   3.176   2.369   6.961  0.6930 -0.0575  0.8665
   88MOL   C17142105   3.155   2.299   6.838  0.5593  0.0012 -0.1648
   88MOL   C17242106   3.180   2.162   6.827 -0.0288 -0.4013 -0.1362
   88MOL   C17342107   3.209   2.088   6.946 -0.7483 -0.0327  0.2287
   88MOL   C17442108   3.234   2.160   7.061  0.2991  0.1637 -0.3185
   88MOL   C17542109   3.217   2.304   7.074 -0.4151  0.4959  0.5440
   88MOL   S17642110   3.133   2.074   6.679  0.3288  0.0250  0.1702
   88MOL   O17742111   3.254   2.039   6.606 -0.0801  0.3916  0.4516
   88MOL   O17842112   3.021   2.139   6.614 -0.0976 -0.1994  0.9522
   88MOL   C17942113   3.047   1.929   6.738  0.0720 -0.0093  0.2866
   88MOL   C18042114   3.104   1.807   6.733  0.1429  0.9918  0.2251
   88MOL   C18142115   3.034   1.690   6.789 -0.1634 -0.1458 -0.1497
   88MOL   C18242116   2.915   1.708   6.858 -0.2165  0.0800  0.3897
   88MOL   C18342117   2.853   1.837   6.862  0.5419  0.3262  0.5071
   88MOL   C18442118   2.918   1.947   6.792  1.0412 -0.5415 -0.6464
   88MOL   O18542119   2.850   1.604   6.920 -0.1820  0.2693 -0.0763
   88MOL   H18642120   3.158   2.476   6.958 -1.9085 -0.4453  1.2830
   88MOL   H18742121   3.131   2.359   6.751 -0.2573 -0.6199 -0.3815
   88MOL   H18842122   3.223   1.981   6.936  0.8611  0.1427  0.5521
   88MOL   H18942123   3.259   2.107   7.152 -1.5197  2.7339  1.7545
   88MOL   H19042124   3.201   1.798   6.686 -0.6414  0.8731 -1.4175
   88MOL   H19142125   3.080   1.595   6.768 -3.2301 -1.5431 -0.8725
   88MOL   H19242126   2.762   1.858   6.917 -0.9354 -1.5596 -1.1408
   88MOL   H19342127   2.853   2.032   6.784 -0.1910 -1.3757  0.1712
   88MOL   C19442128   2.752   1.528   7.125  0.1324 -0.8261  0.1039
   88MOL   C19542129   2.732   1.535   7.264 -0.1135  0.7790 -0.0408
   88MOL   C19642130   2.809   1.628   7.334  0.0182  0.9250  0.6641
   88MOL   C19742131   2.923   1.689   7.276 -0.3093 -0.2065 -0.3232
   88MOL   C19842132   2.947   1.661   7.137  1.1250 -0.1632  1.1063
   88MOL   C19942133   2.853   1.593   7.056 -0.1283  0.2425 -0.4555
   88MOL   S20042134   2.754   1.672   7.501 -0.7028  0.0634  0.2137
   88MOL   O20142135   2.856   1.616   7.596  0.0045 -0.9672 -0.2990
   88MOL   O20242136   2.616   1.634   7.525  0.3807 -0.4797 -0.3331
   88MOL   C20342137   2.776   1.845   7.489  0.5963  0.2153 -0.1445
   88MOL   C20442138   2.873   1.905   7.573  0.1767  0.2893  0.1671
   88MOL   C20542139   2.887   2.042   7.571  0.5859 -0.1920 -0.3144
   88MOL   C20642140   2.819   2.126   7.476 -0.0879 -0.2450  0.6199
   88MOL   C20742141   2.721   2.064   7.396  0.1130 -0.4846 -0.5035
   88MOL   C20842142   2.692   1.926   7.409 -1.0370 -0.7930 -0.5782
   88MOL   O20942143   2.848   2.264   7.479  0.1241  0.5931  0.2361
   88MOL   H21042144   2.668   1.482   7.073  0.5710  0.4860 -1.8282
   88MOL   H21142145   2.645   1.494   7.314 -1.5264  2.0757 -1.3897
   88MOL   H21242146   2.984   1.761   7.328 -2.6185  0.9259  0.8650
   88MOL   H21342147   3.039   1.697   7.094  0.3024  2.0841  1.1787
   88MOL   H21442148   2.932   1.854   7.647 -0.1867 -0.5245 -0.0965
   88MOL   H21542149   2.958   2.087   7.639  0.4948 -0.2041 -0.2119
   88MOL   H21642150   2.647   2.133   7.359  0.8142  1.5714  1.7848
   88MOL   H21742151   2.606   1.882   7.360 -0.7329  0.1589 -1.9802
   88MOL   C21842152   2.736   2.449   7.369  0.4330  0.3021  0.8313
   88MOL   C21942153   2.717   2.528   7.249  0.5126 -0.4849  0.8468
   88MOL   C22042154   2.782   2.491   7.127 -0.4914  0.3707 -0.5353
   88MOL   C22142155   2.874   2.384   7.138 -0.3842  0.9310  0.0411
   88MOL   C22242156   2.889   2.305   7.251 -0.1019 -0.1462  0.0355
   88MOL   C22342157   2.821   2.340   7.364 -0.2202 -0.2921  0.0520
   88MOL   S22442158   2.775   2.577   6.981 -0.1097 -0.3004  0.3427
   88MOL   O22542159   2.646   2.544   6.922 -0.0299 -0.4647  0.5342
   88MOL   O22642160   2.896   2.553   6.903  0.1582  0.1151  0.2370
   88MOL   C22742161   2.758   2.748   7.027 -0.0093  0.0375 -0.0950
   88MOL   C22842162   2.863   2.820   7.088  0.0610  0.1884  0.4758
   88MOL   C22942163   2.857   2.960   7.112 -0.0801  0.0240  0.1208
   88MOL   C23042164   2.735   3.025   7.087 -0.3886  0.1148  0.1328
   88MOL   C23142165   2.625   2.956   7.033  0.3462  0.0413 -0.2638
   88MOL   C23242166   2.632   2.817   7.006 -0.5014 -0.3057  0.0235
   88MOL   O23342167   2.724   3.159   7.106 -0.1597 -0.1243  0.0350
   88MOL   H23442168   2.672   2.466   7.455  0.2523 -0.0985  0.7783
   88MOL   H23542169   2.657   2.618   7.254  3.3165  1.4248  1.2826
   88MOL   H23642170   2.928   2.355   7.050  0.1422  0.7859  0.4127
   88MOL   H23742171   2.955   2.220   7.240  0.2133  0.1776 -0.5660
   88MOL   H23842172   2.954   2.762   7.094 -0.1414 -0.1945 -0.1048
   88MOL   H23942173   2.947   3.010   7.144  1.2711 -1.8836 -0.5257
   88MOL   H24042174   2.531   3.008   7.020  0.2642 -0.2144 -0.7334
   88MOL   H24142175   2.542   2.773   6.967 -1.1568  1.8273 -0.9189
   88MOL   C24242176   2.829   3.298   6.942 -0.5697  0.0464  0.0094
   88MOL   C24342177   2.932   3.390   6.907  0.6419 -0.0095  0.6259
   88MOL   C24442178   3.034   3.416   7.005 -0.0425  0.0798  0.6361
   88MOL   C24542179   3.031   3.358   7.130 -0.4984 -0.4475 -0.4272
   88MOL   C24642180   2.925   3.279   7.163 -0.0788  0.3101  0.3889
   88MOL   C24742181   2.822   3.247   7.071  0.3893  0.2151 -0.3380
   88MOL   S24842182   3.176   3.529   6.984  0.0411  0.0427  0.1639
   88MOL   O24942183   3.209   3.516   6.839  0.3669  0.3643  0.1639
   88MOL   O25042184   3.274   3.515   7.094 -0.2833  0.2185 -0.0566
   88MOL   C25142185   3.101   3.686   6.998  0.0187 -0.6698  0.2211
   88MOL   C25242186   3.043   3.742   6.883  0.2909 -1.4238  0.9921
   88MOL   C25342187   2.984   3.870   6.896 -0.2010 -0.1225 -0.7141
   88MOL   C25442188   2.988   3.946   7.018 -0.2362  0.7747 -0.4517
   88MOL   C25542189   3.039   3.884   7.134  0.0354  0.6334 -0.3973
   88MOL   C25642190   3.104   3.758   7.125  0.3001  0.1930  0.1476
   88MOL   O25742191   2.934   4.071   7.017 -0.5127 -0.1898 -0.2249
   88MOL   H25842192   2.764   3.258   6.866  0.2857 -1.8043  0.2198
   88MOL   H25942193   2.928   3.444   6.814 -3.3213  2.8971  2.3510
   88MOL   H26042194   3.110   3.382   7.199  0.0681 -1.9724 -0.5313
   88MOL   H26142195   2.927   3.236   7.262 -1.8817  1.3326  0.8853
   88MOL   H26242196   3.034   3.682   6.793 -1.2096  0.7017 -0.3112
   88MOL   H26342197   2.917   3.895   6.816 -1.3397 -0.5056  0.1101
   88MOL   H26442198   3.035   3.932   7.230 -0.7897  0.2821 -0.2534
   88MOL   H26542199   3.154   3.715   7.210  0.0200  0.8429  0.6432
   88MOL   C26642200   2.699   4.057   7.043 -0.0721  1.2716  0.0195
   88MOL   C26742201   2.566   4.083   7.005 -0.0114  0.3871  0.7661
   88MOL   C26842202   2.546   4.145   6.878  0.1667  0.0718 -0.6097
   88MOL   C26942203   2.660   4.188   6.795  0.1810 -0.0657 -0.9684
   88MOL   C27042204   2.787   4.160   6.840  0.0825 -0.0303 -0.7726
   88MOL   C27142205   2.812   4.091   6.962  0.3852 -0.0019 -0.4488
   88MOL   S27242206   2.381   4.203   6.842  0.1323  0.3336 -0.0193
   88MOL   O27342207   2.392   4.318   6.749  0.1901  0.2503  0.1021
   88MOL   O27442208   2.309   4.222   6.972  0.3052 -0.3186  0.0623
   88MOL   C27542209   2.290   4.069   6.753  0.3279 -0.6000  0.5480
   88MOL   C27642210   2.349   3.944   6.726 -0.2091 -0.8378  0.1694
   88MOL   C27742211   2.270   3.853   6.655 -0.2958 -0.3391  0.3717
   88MOL   C27842212   2.143   3.881   6.613  0.9904 -0.7605  0.3920
   88MOL   C27942213   2.084   4.001   6.642  0.0305  0.1988 -0.1956
   88MOL   C28042214   2.156   4.102   6.709 -0.2380 -0.9028 -0.4779
   88MOL   O28142215   2.071   3.791   6.539  0.7188 -0.3831  0.4371
   88MOL   H28242216   2.715   4.012   7.140 -1.7000 -2.1825 -1.2091
   88MOL   H28342217   2.484   4.064   7.073 -0.8187 -3.3583 -1.1413
   88MOL   H28442218   2.645   4.224   6.695  1.6627 -2.7896 -2.2330
   88MOL   H28542219   2.875   4.188   6.783 -0.6472 -0.7357 -2.2578
   88MOL   H28642220   2.453   3.931   6.751 -0.2049 -1.0307  0.0489
   88MOL   H28742221   2.319   3.759   6.633  0.8447  0.7621 -1.9396
   88MOL   H28842222   1.982   4.018   6.612  0.2064  2.3020  0.3421
   88MOL   H28942223   2.115   4.201   6.723  0.4693 -0.8439  1.4082
   88MOL   C29042224   1.972   3.644   6.711  0.3099 -0.1126  0.2900
   88MOL   C29142225   1.847   3.593   6.767 -0.6961 -0.2273  0.8632
   88MOL   C29242226   1.724   3.624   6.703 -0.1809  0.6105 -0.6907
   88MOL   C29342227   1.719   3.697   6.584 -0.8760  0.4939 -0.4003
   88MOL   C29442228   1.834   3.754   6.532 -0.6325  0.1418  0.2277
   88MOL   C29542229   1.961   3.729   6.593  0.2128  0.3729  0.4760
   88MOL   S29642230   1.568   3.563   6.777  0.0228 -0.4895  0.1704
   88MOL   O29742231   1.457   3.658   6.739  0.3869 -0.2526 -0.3604
   88MOL   O29842232   1.591   3.521   6.920 -0.8519 -0.6328 -0.5956
   88MOL   C29942233   1.538   3.413   6.685 -0.4156 -0.7014 -0.0351
   88MOL   C30042234   1.597   3.293   6.729 -0.6008 -0.1120 -0.0634
   88MOL   C30142235   1.600   3.180   6.647  0.3836  0.5031  0.1204
   88MOL   C30242236   1.538   3.182   6.521  0.3888  0.0005  0.4810
   88MOL   C30342237   1.486   3.303   6.472 -0.0907  0.1313  0.1806
   88MOL   C30442238   1.485   3.420   6.553  0.0816  0.0014  0.0777
   88MOL   O30542239   1.534   3.063   6.445 -0.0095 -0.4332  0.1335
   88MOL   H30642240   2.070   3.620   6.749  0.3506  0.2009  0.3834
   88MOL   H30742241   1.850   3.542   6.862  0.7377 -0.5527  0.6589
   88MOL   H30842242   1.624   3.715   6.535  0.1776  0.7363 -2.3941
   88MOL   H30942243   1.829   3.813   6.442 -1.3045 -0.9997 -0.5070
   88MOL   H31042244   1.647   3.286   6.824 -0.8298  0.3486  0.0884
   88MOL   H31142245   1.655   3.093   6.679 -3.2927 -2.1238 -0.3946
   88MOL   H31242246   1.464   3.317   6.367 -0.2080 -1.5187 -0.0344
   88MOL   H31342247   1.455   3.515   6.513 -3.2214 -0.0523  2.1896
   88MOL   C31442248   1.294   3.025   6.413  0.3630 -0.4544  0.4682
   88MOL   C31542249   1.180   2.940   6.436 -0.4021 -0.2519  0.3940
   88MOL   C31642250   1.197   2.836   6.530  0.6807 -0.6037  0.6000
   88MOL   C31742251   1.320   2.809   6.593  0.3412 -0.0673  0.3790
   88MOL   C31842252   1.431   2.882   6.551  0.9667  0.1069  0.4699
   88MOL   C31942253   1.420   2.991   6.464  0.2219 -0.9282  0.6882
   88MOL   S32042254   1.056   2.735   6.556 -0.0030  0.3308  0.4872
   88MOL   O32142255   1.079   2.654   6.674  0.0136 -0.1000  0.1158
   88MOL   O32242256   1.031   2.657   6.435  0.2851  0.1838  0.1228
   88MOL   C32342257   0.914   2.841   6.587 -0.1336 -0.0113 -0.3022
   88MOL   C32442258   0.789   2.796   6.550  0.2078  0.5270  0.8779
   88MOL   C32542259   0.673   2.869   6.577  0.2796 -0.1186 -0.6080
   88MOL   C32642260   0.683   2.990   6.644 -0.3252 -0.4891  0.9645
   88MOL   C32742261   0.809   3.038   6.684  0.5271 -0.4609  0.3686
   88MOL   C32842262   0.927   2.962   6.661 -0.1527  0.8263  0.0595
   88MOL   O32942263   0.562   3.052   6.667 -0.1027 -0.0910  0.4529
   88MOL   H33042264   1.281   3.105   6.341  0.7984 -2.8469 -2.3579
   88MOL   H33142265   1.090   2.963   6.381  0.1637 -2.2885 -1.4761
   88MOL   H33242266   1.324   2.728   6.664 -0.0072 -0.4585 -0.0405
   88MOL   H33342267   1.528   2.849   6.585  1.6157  0.4347 -0.9780
   88MOL   H33442268   0.783   2.715   6.480  1.4400  2.2964 -1.3457
   88MOL   H33542269   0.579   2.834   6.538 -0.2369  0.7790 -0.1775
   88MOL   H33642270   0.806   3.135   6.732  0.8406 -0.9849  1.4618
   88MOL   H33742271   1.024   2.993   6.696 -0.4762  0.5838  1.1710
   88MOL   C33842272   0.536   3.231   6.807  1.0723 -0.2787 -0.0593
   88MOL   C33942273   0.490   3.365   6.829 -0.4215  0.4583  0.3152
   88MOL   C34042274   0.471   3.443   6.717 -0.7950 -0.4978 -0.0040
   88MOL   C34142275   0.493   3.398   6.587  0.5672 -0.0517 -0.6862
   88MOL   C34242276   0.524   3.264   6.565 -0.0402 -0.2759  0.3569
   88MOL   C34342277   0.547   3.187   6.682 -0.4082 -0.0713  0.5663
   88MOL   S34442278   0.413   3.611   6.740 -0.2118 -0.0913  0.2103
   88MOL   O34542279   0.394   3.640   6.883 -0.0336  0.2807  0.2396
   88MOL   O34642280   0.300   3.634   6.648  0.3894 -0.3046 -0.2674
   88MOL   C34742281   0.552   3.709   6.683  0.2286  0.5662 -0.3605
   88MOL   C34842282   0.555   3.771   6.553  0.0043  0.3267 -0.5017
   88MOL   C34942283   0.670   3.843   6.507  0.9018  0.0568  0.1180
   88MOL   C35042284   0.782   3.848   6.590  0.2570 -0.3159 -0.8392
   88MOL   C35142285   0.782   3.790   6.719  0.4177 -0.9016 -0.3490
   88MOL   C35242286   0.664   3.721   6.762 -0.3456  0.4512 -0.7714
   88MOL   O35342287   0.895   3.922   6.554  0.6807 -0.2382  1.0905
   88MOL   H35442288   0.551   3.160   6.886  0.2416 -1.6376 -1.0924
   88MOL   H35542289   0.473   3.407   6.927 -1.9165  0.8328 -0.0937
   88MOL   H35642290   0.470   3.463   6.503 -2.9824 -0.1459  0.1379
   88MOL   H35742291   0.522   3.222   6.465 -0.3896 -1.4314  0.8409
   88MOL   H35842292   0.467   3.768   6.492 -1.6095  0.4130  1.7554
   88MOL   H35942293   0.662   3.909   6.422 -1.7593  0.5926  0.7429
   88MOL   H36042294   0.865   3.818   6.782 -0.9341  3.7933 -0.5002
   88MOL   H36142295   0.659   3.673   6.859  0.4084  0.8293 -0.5397
   88MOL   C36242296   1.061   3.745   6.526 -0.1660  0.3168  1.0203
   88MOL   C36342297   1.158   3.677   6.452  0.2457 -0.5183 -0.0555
   88MOL   C36442298   1.200   3.725   6.326  0.5211  0.1014 -0.3333
   88MOL   C36542299   1.140   3.849   6.288  0.6281 -0.3472  0.0079
   88MOL   C36642300   1.029   3.911   6.357  0.1995 -0.4582 -0.1381
   88MOL   C36742301   0.993   3.858   6.479 -0.3561  0.3637  0.1409
   88MOL   S36842302   1.326   3.633   6.239  0.4116  0.1188  0.3579
   88MOL   O36942303   1.329   3.489   6.272 -0.8815 -0.2086 -0.1076
   88MOL   O37042304   1.448   3.715   6.261  0.1785  0.6165 -0.0325
   88MOL   C37142305   1.298   3.641   6.058  0.2456 -0.0925 -0.6712
   88MOL   C37242306   1.410   3.651   5.976 -0.1650  0.2775  0.1275
   88MOL   C37342307   1.390   3.654   5.834  0.0780  1.0843 -0.5087
   88MOL   C37442308   1.257   3.672   5.786  0.0844  0.5307  0.7632
   88MOL   C37542309   1.148   3.676   5.878 -0.4485  0.5221 -0.0541
   88MOL   C37642310   1.168   3.654   6.011 -0.0058  0.4943 -0.1487
   88MOL   O37742311   1.244   3.672   5.651  0.5450  0.3092  0.2711
   88MOL   H37842312   1.038   3.711   6.627  3.1116 -1.4621  1.2179
   88MOL   H37942313   1.213   3.590   6.485  1.0431 -0.0231 -0.0513
   88MOL   H38042314   1.179   3.899   6.200 -0.2960  1.5688  0.6571
   88MOL   H38142315   0.977   3.999   6.323 -0.6589  1.7524  6.2820
   88MOL   H38242316   1.512   3.657   6.010 -0.0719 -2.1751  0.3583
   88MOL   H38342317   1.468   3.654   5.760 -0.7509 -1.2419 -1.4539
   88MOL   H38442318   1.046   3.701   5.854 -0.4265  1.1535  0.5034
   88MOL   H38542319   1.076   3.657   6.068 -0.3110  2.1742 -0.7049
   88MOL   C38642320   1.051   3.604   5.524 -0.6581  0.0115 -0.0473
   88MOL   C38742321   0.919   3.620   5.479  0.0399 -0.4247  0.2882
   88MOL   C38842322   0.853   3.743   5.503  0.6386 -0.0967 -0.2458
   88MOL   C38942323   0.920   3.845   5.575 -0.0179 -0.1732  0.4842
   88MOL   C39042324   1.048   3.825   5.626 -0.3870  0.8928 -0.4142
   88MOL   C39142325   1.119   3.705   5.597 -0.2000  0.1036 -0.4134
   88MOL   S39242326   0.684   3.760   5.451 -0.0036  0.3345 -0.0952
   88MOL   O39342327   0.601   3.769   5.571 -0.2436  0.2890 -0.5787
   88MOL   O39442328   0.666   3.651   5.351  0.2515 -0.0700  0.0644
   88MOL   C39542329   0.677   3.915   5.366  0.3317  0.4476  0.9904
   88MOL   C39642330   0.645   4.032   5.435  0.9048  0.9772 -0.3714
   88MOL   C39742331   0.664   4.156   5.372  1.0195 -0.2021 -0.5786
   88MOL   C39842332   0.684   4.157   5.231  0.0530  0.3483 -1.1724
   88MOL   C39942333   0.715   4.042   5.159 -0.3754  0.0483 -0.1396
   88MOL   C40042334   0.720   3.919   5.232  0.8437 -0.5115  0.4032
   88MOL   O40142335   0.682   4.278   5.167  0.0835 -0.3994 -0.1658
   88MOL   H40242336   1.109   3.517   5.500 -1.2058 -0.5107  0.5048
   88MOL   H40342337   0.876   3.538   5.423  0.8819 -0.7830  0.1503
   88MOL   H40442338   0.873   3.940   5.594 -0.8564 -0.3577 -0.6144
   88MOL   H40542339   1.099   3.905   5.678  0.5295  0.5993 -0.8420
   88MOL   H40642340   0.626   4.039   5.541 -0.8097 -0.5958 -0.5464
   88MOL   H40742341   0.658   4.245   5.432 -0.0929 -0.8628  0.3070
   88MOL   H40842342   0.738   4.050   5.054  1.2860 -1.0496  0.1317
   88MOL   H40942343   0.740   3.831   5.174  0.4219  0.4498 -1.2236
   88MOL   C41042344   0.873   4.408   5.239  0.1992  0.3756 -0.1536
   88MOL   C41142345   0.985   4.480   5.215 -0.2844 -0.1501  0.3915
   88MOL   C41242346   1.032   4.475   5.083  0.0830 -0.6897  0.1700
   88MOL   C41342347   0.965   4.411   4.977  0.4892 -0.5425 -0.1926
   88MOL   C41442348   0.841   4.347   5.005  0.0638 -0.7254 -0.0902
   88MOL   C41542349   0.798   4.344   5.138  0.1292  0.2702 -0.6520
   88MOL   S41642350   1.162   4.596   5.035 -0.0573 -0.0421  0.2522
   88MOL   O41742351   1.263   4.524   4.958  0.1913  0.5042  0.1031
   88MOL   O41842352   1.203   4.664   5.156  0.3069 -0.0987  0.0265
   88MOL   C41942353   1.076   4.728   4.929  0.1738 -0.1385 -0.7100
   88MOL   C42042354   0.938   4.745   4.915 -0.3125  0.0084  0.5725
   88MOL   C42142355   0.885   4.849   4.834 -0.2987 -0.0184 -1.1750
   88MOL   C42242356   0.972   4.934   4.765  0.6713 -0.5600 -0.1962
   88MOL   C42342357   1.112   4.917   4.772  0.6015  0.1660 -0.0088
   88MOL   C42442358   1.163   4.816   4.859  0.3061 -0.4875  0.2838
   88MOL   O42542359   0.918   5.032   4.693 -0.2569 -0.2309  0.5383
   88MOL   H42642360   0.842   4.396   5.341  1.6093 -0.4899  0.1917
   88MOL   H42742361   1.031   4.538   5.294 -0.2096 -1.7506  1.5301
   88MOL   H42842362   0.995   4.424   4.874 -0.2504 -1.9421 -0.5999
   88MOL   H42942363   0.773   4.304   4.933  1.2488 -0.3815 -1.4236
   88MOL   H43042364   0.864   4.683   4.965  0.0687 -3.3072 -2.7301
   88MOL   H43142365   0.779   4.858   4.819 -0.4376 -3.3487 -2.4740
   88MOL   H43242366   1.177   4.976   4.708  0.9395  0.8613  0.9703
   88MOL   H43342367   1.271   4.810   4.866  0.4797 -0.8721 -2.2331
   88MOL   C43442368   1.011   5.249   4.751 -0.5382 -0.8727 -0.5603
   88MOL   C43542369   1.002   5.369   4.829  0.2377 -0.7351  0.1249
   88MOL   C43642370   0.880   5.394   4.898 -0.1666  0.3976  0.0157
   88MOL   C43742371   0.776   5.295   4.908 -0.3198  0.2981  0.1444
   88MOL   C43842372   0.792   5.169   4.843 -0.2116  0.1434  0.1976
   88MOL   C43942373   0.906   5.153   4.759  0.9617  0.4304  0.9589
   88MOL   S44042374   0.853   5.554   4.983  0.0443  0.0457 -0.2003
   88MOL   O44142375   0.712   5.584   4.991  0.2325 -0.1011 -0.1299
   88MOL   O44242376   0.946   5.651   4.923 -0.6661 -0.3597  0.4380
   88MOL   C44342377   0.916   5.529   5.152  0.2238 -0.6263  0.7617
   88MOL   C44442378   0.845   5.590   5.254 -0.2120 -0.6423  0.2436
   88MOL   C44542379   0.904   5.608   5.382 -0.4051  0.4114  0.6568
   88MOL   C44642380   1.023   5.544   5.409 -0.0576 -0.3660 -0.3442
   88MOL   C44742381   1.099   5.479   5.305  0.6531 -0.3456  0.2752
   88MOL   C44842382   1.042   5.473   5.173 -0.5472 -0.2751 -0.0148
   88MOL   O44942383   1.068   5.556   5.540  0.4071 -0.1638  0.1080
   88MOL   H45042384   1.093   5.233   4.682  1.9253  1.4354  1.6981
   88MOL   H45142385   1.079   5.444   4.818  1.1796 -1.6800  0.1217
   88MOL   H45242386   0.682   5.322   4.954 -1.1583  0.4226 -1.5955
   88MOL   H45342387   0.707   5.103   4.848  0.1715 -0.2535  2.0810
   88MOL   H45442388   0.753   5.633   5.217  1.0840  0.3354 -1.8737
   88MOL   H45542389   0.848   5.659   5.459 -2.0896  1.7123 -1.3761
   88MOL   H45642390   1.191   5.427   5.328  0.6392 -0.3566  0.3063
   88MOL   H45742391   1.092   5.410   5.100  0.7815  0.2726  0.4015
   88MOL   C45842392   1.282   5.505   5.639 -0.0764 -0.4959  0.1353
   88MOL   C45942393   1.375   5.412   5.683 -0.6748  0.2605  0.2533
   88MOL   C46042394   1.352   5.273   5.671  0.1506  0.1663  0.0879
   88MOL   C46142395   1.230   5.228   5.610  0.1569 -0.3770 -0.5922
   88MOL   C46242396   1.129   5.325   5.564 -0.1475  1.1460 -0.1285
   88MOL   C46342397   1.165   5.463   5.581 -1.1993 -0.3271  0.4594
   88MOL   S46442398   1.462   5.145   5.731  0.0563  0.2631 -0.3540
   88MOL   O46542399   1.403   5.016   5.694  0.2932 -0.0199 -0.4067
   88MOL   O46642400   1.475   5.181   5.871  0.0791 -0.6015  0.7956
   88MOL   C46742401   1.622   5.157   5.648 -0.6144 -0.5108  0.5532
   88MOL   C46842402   1.692   5.038   5.632 -0.1405 -0.1693  0.6204
   88MOL   C46942403   1.824   5.046   5.575  0.3083 -0.1895 -0.0301
   88MOL   C47042404   1.873   5.165   5.522 -0.1531 -0.2599  0.3694
   88MOL   C47142405   1.800   5.289   5.546  0.0137  0.0441  0.7601
   88MOL   C47242406   1.669   5.282   5.603 -0.0301  0.1999 -0.2220
   88MOL   O47342407   1.992   5.163   5.450 -0.8584  0.2099 -0.8895
   88MOL   H47442408   1.290   5.609   5.666  0.6680 -0.3392 -0.6769
   88MOL   H47542409   1.460   5.449   5.739  0.9060 -1.8559 -0.6815
   88MOL   H47642410   1.198   5.125   5.613 -0.2251 -0.2004  1.7460
   88MOL   H47742411   1.036   5.296   5.519 -0.2785  0.8058  0.3689
   88MOL   H47842412   1.655   4.944   5.670  0.4965 -0.8509 -0.4054
   88MOL   H47942413   1.866   4.950   5.549 -3.4232 -1.6740 -0.8817
   88MOL   H48042414   1.829   5.390   5.520  0.7589 -0.5547 -0.8287
   88MOL   H48142415   1.610   5.369   5.627  1.2251  1.6694 -2.3162
   88MOL   H48242416   1.993   5.242   5.398 -0.3899 -0.6867 -2.2518
   89MOL     C142417   7.149   3.263   8.335 -0.4693 -0.4455 -0.3715
   89MOL     C242418   7.214   3.291   8.214 -0.1721  0.3376 -0.2200
   89MOL     C342419   7.196   3.214   8.104 -0.1234  0.2218 -0.0436
   89MOL     C442420   7.105   3.100   8.110  0.4534 -0.3162 -0.1933
   89MOL     C542421   7.016   3.086   8.217 -0.2087  0.5107  0.2801
   89MOL     C642422   7.039   3.168   8.325  0.2385 -0.1135 -0.3187
   89MOL     S742423   7.279   3.250   7.954  0.0332  0.0775 -0.0147
   89MOL     O842424   7.264   3.396   7.945 -0.6858 -0.2957 -0.1335
   89MOL     O942425   7.219   3.162   7.854 -0.0542  0.5367 -0.2099
   89MOL    C1042426   7.455   3.213   7.969 -0.0866 -0.1225 -0.0052
   89MOL    C1142427   7.527   3.151   7.861  0.1710  0.9152 -0.0731
   89MOL    C1242428   7.664   3.133   7.867 -0.1756  0.1715  0.2549
   89MOL    C1342429   7.732   3.164   7.984 -0.0858 -0.4964  0.7208
   89MOL    C1442430   7.667   3.215   8.102 -0.6209  0.2352  0.4529
   89MOL    C1542431   7.526   3.237   8.087 -0.1652  0.5284 -0.8434
   89MOL    O1642432   7.863   3.139   7.984 -0.6210  0.0117 -0.2427
   89MOL    H1742433   7.171   3.315   0.002  1.0722 -0.0951 -0.9298
   89MOL    H1842434   7.291   3.365   8.206  0.5317 -0.2354  1.0449
   89MOL    H1942435   7.083   3.042   8.022 -0.9424 -0.3948  0.1924
   89MOL    H2042436   6.940   3.009   8.226 -1.0283  1.5095  2.3057
   89MOL    H2142437   7.475   3.114   7.774 -3.0560  1.3405  1.5906
   89MOL    H2242438   7.713   3.068   7.796  1.5641  1.1928  0.4991
   89MOL    H2342439   7.721   3.223   8.195 -0.3108 -1.7949  0.4587
   89MOL    H2442440   7.478   3.280   8.174  2.9995  0.0349  1.2460
   89MOL    H2542441   6.971   3.164   8.409  0.5096  1.7345  0.0242
   89MOL    C2642442   7.864   2.905   8.043  0.1092  0.5329  0.1939
   89MOL    C2742443   7.914   2.772   8.022  0.3238 -0.2316  0.1163
   89MOL    C2842444   7.985   2.743   7.904  0.1214 -0.2023 -0.2176
   89MOL    C2942445   8.022   2.852   7.810 -0.0098 -0.2981  0.1038
   89MOL    C3042446   7.968   2.981   7.835  0.7492 -0.0222  0.2773
   89MOL    C3142447   7.897   3.006   7.952  1.0180  0.1938 -0.3188
   89MOL    S3242448   8.025   2.573   7.876 -0.2707 -0.4498 -0.0218
   89MOL    O3342449   8.150   2.574   7.791  0.2490 -0.1564 -0.0532
   89MOL    O3442450   7.907   2.497   7.834  0.0809 -0.5927  0.1117
   89MOL    C3542451   8.067   2.504   8.039 -0.7616 -0.2497  0.1502
   89MOL    C3642452   7.975   2.427   8.099  0.2662  0.2126 -0.3597
   89MOL    C3742453   7.992   2.383   8.231 -0.3875  0.1587 -0.7396
   89MOL    C3842454   8.102   2.427   8.307 -0.1574  0.3175  0.5027
   89MOL    C3942455   8.191   2.525   8.246 -0.1997 -0.0291 -0.6301
   89MOL    C4042456   8.172   2.556   8.114  0.1141 -0.2079  0.1734
   89MOL    O4142457   8.118   2.373   0.008 -0.2622 -0.3676  0.3523
   89MOL    H4242458   7.789   2.926   8.117  0.8672 -2.4792  1.8874
   89MOL    H4342459   7.890   2.698   8.097  0.3433  0.0597  0.4109
   89MOL    H4442460   8.080   2.848   7.719 -2.3774 -2.2860 -1.3798
   89MOL    H4542461   8.002   3.065   7.776  0.1252 -0.2257 -0.3671
   89MOL    H4642462   7.897   2.376   8.045  2.1592 -4.2516  0.8891
   89MOL    H4742463   7.921   2.313   8.275  1.0303 -0.0863  1.2386
   89MOL    H4842464   8.279   2.549   8.303 -0.1560 -2.9175  0.6097
   89MOL    H4942465   8.247   2.617   8.066 -0.3936  0.0030 -0.3628
   89MOL    C5042466   8.317   2.441   0.120  0.5992  0.3933 -0.3265
   89MOL    C5142467   8.382   2.526   0.207 -0.0941 -0.1240  0.3619
   89MOL    C5242468   8.312   2.606   0.296 -0.6631  0.0361 -0.3288
   89MOL    C5342469   8.171   2.612   0.294 -0.1316  0.1152 -0.1184
   89MOL    C5442470   8.108   2.534   0.191 -0.0365 -0.2149 -0.2196
   89MOL    C5542471   8.183   2.451   0.105  0.0645  0.5741  0.3403
   89MOL    S5642472   8.397   2.720   0.409 -0.3460 -0.0396  0.0040
   89MOL    O5742473   0.086   2.647   0.476 -0.1193  0.0282  0.1145
   89MOL    O5842474   8.304   2.800   0.488  0.8492 -0.4641  0.1828
   89MOL    C5942475   0.054   2.837   0.302  0.3882 -0.4367  0.0874
   89MOL    C6042476   0.150   2.924   0.355  0.4634  1.1504 -0.5791
   89MOL    C6142477   0.209   3.021   0.270 -0.1780  0.2194  0.4400
   89MOL    C6242478   0.170   3.028   0.136  0.2083  0.9276  0.3345
   89MOL    C6342479   0.067   2.948   0.085 -1.2411  0.3274  0.3904
   89MOL    C6442480   0.015   2.848   0.167  0.5274  0.2836  0.3664
   89MOL    O6542481   0.233   3.115   0.054 -0.2974 -0.1230 -0.1541
   89MOL    H6642482   8.382   2.383   0.058 -0.5841  0.0900 -1.2962
   89MOL    H6742483   0.065   2.521   0.205 -0.1301 -0.5087 -0.8480
   89MOL    H6842484   8.116   2.681   0.356  0.8538  0.7956 -0.0013
   89MOL    H6942485   8.000   2.538   0.188 -0.0359  0.4327  0.4059
   89MOL    H7042486   0.184   2.919   0.458 -0.7034  2.4022 -0.1162
   89MOL    H7142487   0.288   3.087   0.303 -0.8745  1.6761 -0.6979
   89MOL    H7242488   0.041   2.961   8.406  0.2156 -0.2538 -0.0623
   89MOL    H7342489   8.355   2.795   0.126 -0.2399  1.5475  0.3021
   89MOL    C7442490   0.223   3.292   8.330  0.2602 -0.1025  0.3504
   89MOL    C7542491   0.170   3.415   8.286  0.2733  0.6193  0.7332
   89MOL    C7642492   0.062   3.470   8.358 -0.1432 -0.5667  0.2868
   89MOL    C7742493   0.008   3.399   0.046 -0.3772 -0.7050  0.9196
   89MOL    C7842494   0.054   3.279   0.080 -0.2643  0.5359  0.0506
   89MOL    C7942495   0.165   3.224   0.012 -0.7521 -0.1315  0.3956
   89MOL    S8042496   0.001   3.643   8.319  0.2623 -0.1783  0.2295
   89MOL    O8142497   8.288   3.637   8.265  0.0680 -0.2811 -0.3166
   89MOL    O8242498   0.108   3.706   8.244 -0.6995 -0.5357  0.7070
   89MOL    C8342499   8.411   3.721   0.054 -0.0581 -0.8119 -0.3470
   89MOL    C8442500   8.302   3.811   0.069  0.1424 -1.2251  0.2555
   89MOL    C8542501   8.271   3.873   0.192 -0.3828 -0.2287 -0.2926
   89MOL    C8642502   8.352   3.841   0.307  0.4744  0.9495  0.4411
   89MOL    C8742503   0.039   3.748   0.294 -0.3984 -0.6020 -0.5759
   89MOL    C8842504   0.069   3.690   0.166 -0.1108  0.1395 -0.0319
   89MOL    O8942505   8.325   3.912   0.417  0.5833 -0.8296  0.2468
   89MOL    H9042506   0.311   3.250   8.283 -1.0640 -2.1628 -0.3464
   89MOL    H9142507   0.210   3.454   8.194  0.1783  2.4698  1.4481
   89MOL    H9242508   8.354   3.444   0.105 -1.1698  0.0131 -0.6728
   89MOL    H9342509   0.003   3.230   0.161 -0.1126 -1.5464 -1.0828
   89MOL    H9442510   8.242   3.828   8.407  0.4819  0.4193  0.3228
   89MOL    H9542511   8.189   3.944   0.197  3.3891  4.4370 -1.1262
   89MOL    H9642512   0.103   3.726   0.377 -0.6537  0.3036 -0.1371
   89MOL    H9742513   0.148   3.618   0.151 -1.6298 -1.5383 -0.1628
   89MOL    C9842514   0.080   3.956   0.569 -0.1027 -0.3485 -0.2386
   89MOL    C9942515   0.169   4.056   0.622  0.3727  0.1697 -0.0195
   89MOL   C10042516   0.183   4.185   0.568  0.3627  0.6711  0.3828
   89MOL   C10142517   0.098   4.220   0.456  0.0879  0.1822  0.5628
   89MOL   C10242518   0.007   4.119   0.407 -0.0728  0.2608 -0.4560
   89MOL   C10342519   8.419   3.994   0.470  0.2912 -0.3717  0.0164
   89MOL   S10442520   0.307   4.306   0.635  0.0243 -0.3315 -0.7922
   89MOL   O10542521   0.252   4.438   0.602 -0.2585  0.2380  0.5793
   89MOL   O10642522   0.443   4.265   0.595 -0.5313  0.8102 -0.3483
   89MOL   C10742523   0.297   4.296   0.816  0.2580 -0.7488 -0.2300
   89MOL   C10842524   0.413   4.313   0.894 -0.0519 -0.2436 -0.3213
   89MOL   C10942525   0.399   4.339   1.034  0.6018 -0.0159  0.0714
   89MOL   C11042526   0.267   4.352   1.088 -0.0023  0.2824 -0.4776
   89MOL   C11142527   0.158   4.322   1.001 -0.2413 -0.0564  0.1244
   89MOL   C11242528   0.171   4.294   0.871  0.0028 -0.2365  0.0121
   89MOL   O11342529   0.251   4.408   1.218 -0.4430 -0.5073  0.3033
   89MOL   H11442530   0.058   3.864   0.622  1.3709 -0.3471  0.3983
   89MOL   H11542531   0.240   4.034   0.700 -0.2819  1.7981  1.0535
   89MOL   H11642532   0.093   4.314   0.403  0.3277  1.1365  2.1747
   89MOL   H11742533   8.361   4.141   0.329 -0.2417  3.0328  0.4366
   89MOL   H11842534   0.511   4.303   0.848  0.1760 -0.9757  0.3117
   89MOL   H11942535   0.485   4.365   1.093  0.3190 -2.5034  1.6102
   89MOL   H12042536   0.056   4.334   1.034 -0.4791 -0.7618 -0.3234
   89MOL   H12142537   0.084   4.274   0.810  0.6576  0.2250 -1.0983
   89MOL   C12242538   0.197   4.202   1.323 -0.2771  1.2268 -0.5131
   89MOL   C12342539   0.113   4.138   1.421  0.4745  0.4869  0.1150
   89MOL   C12442540   0.008   4.208   1.483 -0.3885 -0.2060 -0.3515
   89MOL   C12542541   8.410   4.345   1.455 -0.0573  0.2262 -0.1498
   89MOL   C12642542   0.070   4.414   1.366 -0.1974 -0.2925  0.0281
   89MOL   C12742543   0.172   4.341   1.304  0.0503  0.6387  0.2162
   89MOL   S12842544   8.340   4.124   1.605 -0.3491 -0.6716 -0.2051
   89MOL   O12942545   8.297   4.221   1.712 -0.4804 -0.5201  0.4162
   89MOL   O13042546   0.002   4.010   1.640  0.0243  0.1773  0.0392
   89MOL   C13142547   8.197   4.067   1.527  0.0377 -0.0187  0.4577
   89MOL   C13242548   8.134   3.947   1.566 -0.1770 -0.1605  0.2099
   89MOL   C13342549   8.027   3.885   1.496  0.2937  0.5302 -0.9578
   89MOL   C13442550   7.983   3.951   1.378  0.2630 -0.6137 -0.5659
   89MOL   C13542551   8.053   4.063   1.327  0.1709  0.4000  0.5038
   89MOL   C13642552   8.150   4.122   1.409 -0.5235  0.2469  0.1858
   89MOL   O13742553   7.876   3.911   1.302  0.0301  0.5455  0.0119
   89MOL   H13842554   0.280   4.142   1.290  0.1511  1.5310  0.0027
   89MOL   H13942555   0.142   4.042   1.461 -1.5513 -1.3892 -2.7681
   89MOL   H14042556   8.338   4.400   1.513 -1.4935  1.6891 -3.2012
   89MOL   H14142557   0.062   4.520   1.344  0.1865 -0.3531 -0.4163
   89MOL   H14242558   8.166   3.897   1.656  0.7743 -0.7913 -0.4649
   89MOL   H14342559   7.988   3.790   1.527  0.0069  1.0216  0.2198
   89MOL   H14442560   8.029   4.120   1.238  1.9579  3.5307  1.9456
   89MOL   H14542561   8.200   4.210   1.372 -1.5705 -0.0508 -1.9784
   89MOL   C14642562   7.966   3.741   1.157  0.0153  0.4165 -0.1661
   89MOL   C14742563   7.989   3.608   1.126  0.0657  0.9919 -0.0876
   89MOL   C14842564   7.893   3.514   1.173 -0.1360 -0.5545  0.0746
   89MOL   C14942565   7.802   3.556   1.270  0.3167  0.1760 -0.3340
   89MOL   C15042566   7.788   3.684   1.320  0.2857 -0.0784  0.4119
   89MOL   C15142567   7.875   3.780   1.259 -0.6225 -0.2080 -0.2486
   89MOL   S15242568   7.884   3.355   1.096 -0.1114  0.0163  0.0849
   89MOL   O15342569   7.849   3.255   1.195  0.0014 -0.5983 -0.2572
   89MOL   O15442570   8.009   3.331   1.024 -0.0088  0.5658 -0.0839
   89MOL   C15542571   7.763   3.367   0.967 -1.2096  0.2420 -0.0751
   89MOL   C15642572   7.644   3.290   0.975 -0.1369  0.0191  0.2076
   89MOL   C15742573   7.555   3.295   0.868  0.3885  0.6352  0.3081
   89MOL   C15842574   7.582   3.376   0.756 -0.0649  0.4537 -0.1608
   89MOL   C15942575   7.699   3.450   0.747 -0.6023 -0.7744 -0.2068
   89MOL   C16042576   7.793   3.443   0.854  0.3370 -0.3985  0.0850
   89MOL   O16142577   7.494   3.393   0.658  0.2958 -0.0980 -0.5821
   89MOL   H16242578   8.026   3.817   1.109  1.0809  0.2484  0.8931
   89MOL   H16342579   8.053   3.580   1.043  0.4537 -0.5317  0.7188
   89MOL   H16442580   7.726   3.481   1.289  0.6054 -0.6235 -2.2190
   89MOL   H16542581   7.720   3.711   1.399 -0.1994  0.3921 -0.1656
   89MOL   H16642582   7.631   3.224   1.059 -2.0266 -1.6123 -1.3204
   89MOL   H16742583   7.462   3.239   0.865  0.4939  0.5234 -1.3186
   89MOL   H16842584   7.723   3.516   0.665 -0.3133 -2.2769 -1.3545
   89MOL   H16942585   7.884   3.501   0.847  0.2189 -0.0241  1.6094
   89MOL   C17042586   7.324   3.557   0.729 -0.1745  0.2765  0.9369
   89MOL   C17142587   7.188   3.598   0.735  0.2107  0.6728 -0.2197
   89MOL   C17242588   7.089   3.505   0.703 -0.1429 -0.2781 -0.3261
   89MOL   C17342589   7.119   3.369   0.667 -0.8479  0.5126 -0.1993
   89MOL   C17442590   7.259   3.334   0.657  0.3559 -0.0880 -0.3403
   89MOL   C17542591   7.360   3.425   0.683  0.4412  0.2386  0.6952
   89MOL   S17642592   6.916   3.551   0.701  0.0937  0.0871 -0.3307
   89MOL   O17742593   6.872   3.571   0.840  0.2906  0.0366 -0.6756
   89MOL   O17842594   6.846   3.457   0.616  0.1364  0.5708 -0.5340
   89MOL   C17942595   6.888   3.713   0.624  0.6317 -0.0169 -0.0397
   89MOL   C18042596   6.879   3.823   0.709  0.1730  1.0240 -0.1951
   89MOL   C18142597   6.842   3.953   0.661 -1.0390 -0.7616  0.5653
   89MOL   C18242598   6.817   3.970   0.516 -0.0175  0.0306  0.4408
   89MOL   C18342599   6.821   3.854   0.437 -0.1250 -0.3874  0.3411
   89MOL   C18442600   6.860   3.728   0.488  0.6737  0.2608  0.3103
   89MOL   O18542601   6.783   4.094   0.460  0.2409 -0.0125 -0.2256
   89MOL   H18642602   7.402   3.622   0.764 -0.9181  1.7248 -0.0582
   89MOL   H18742603   7.159   3.697   0.768 -1.4977  0.3375 -0.6795
   89MOL   H18842604   7.039   3.301   0.643  0.1973 -0.9488  0.4333
   89MOL   H18942605   7.272   3.230   0.630  1.3488  0.3087 -1.4098
   89MOL   H19042606   6.898   3.811   0.815 -2.5785 -0.6050  0.1668
   89MOL   H19142607   6.851   4.046   0.714 -2.1421  1.1812 -2.4888
   89MOL   H19242608   6.786   3.859   0.335  0.7683  1.5498  0.1094
   89MOL   H19342609   6.863   3.642   0.422  1.9448 -1.2983  2.3676
   89MOL   C19442610   6.767   4.205   0.250  0.1257 -0.6154  0.7888
   89MOL   C19542611   6.824   4.241   0.125 -0.1036  0.5290  0.5449
   89MOL   C19642612   6.958   4.212   0.101 -0.4213 -0.1133 -0.1448
   89MOL   C19742613   7.030   4.142   0.196 -1.1673  0.0050 -0.4243
   89MOL   C19842614   6.977   4.099   0.317 -0.5391 -0.1915 -0.2445
   89MOL   C19942615   6.846   4.133   0.341 -0.3113 -0.2660 -0.6982
   89MOL   S20042616   7.044   4.273   8.376 -0.1768  0.7921  0.1566
   89MOL   O20142617   6.938   4.304   8.282 -0.1410 -0.4561 -0.1651
   89MOL   O20242618   7.157   4.184   8.337  0.5069  0.4872 -0.0908
   89MOL   C20342619   7.119   4.430   0.004  0.4840 -0.7879 -0.0038
   89MOL   C20442620   7.039   4.547   8.414  0.9899 -0.6682  0.2900
   89MOL   C20542621   7.077   4.675   0.038 -0.9835 -0.7646 -0.4561
   89MOL   C20642622   7.211   4.689   0.088  0.2426  0.1095 -0.1051
   89MOL   C20742623   7.294   4.571   0.098 -0.1115 -0.5185 -0.7570
   89MOL   C20842624   7.249   4.444   0.053 -0.0431  0.4883  0.2791
   89MOL   O20942625   7.253   4.809   0.145 -0.2450  0.8694 -0.4575
   89MOL   H21042626   6.669   4.246   0.270 -1.0423 -2.7475 -0.4261
   89MOL   H21142627   6.765   4.284   0.046 -1.1370 -1.8249  0.0086
   89MOL   H21242628   7.134   4.124   0.173 -1.2422  1.2289 -1.8071
   89MOL   H21342629   7.040   4.052   0.391 -2.3905 -0.1175  1.4341
   89MOL   H21442630   6.947   4.545   8.356  0.8558 -1.5952  0.5277
   89MOL   H21542631   7.018   4.766   0.036  2.8534  1.8309 -0.8634
   89MOL   H21642632   7.393   4.574   0.140 -1.4019  0.8041  2.3131
   89MOL   H21742633   7.310   4.355   0.050  0.5122  0.8976 -0.6981
   89MOL   C21842634   7.448   4.825   8.421 -0.6788  0.3090 -0.3478
   89MOL   C21942635   7.559   4.900   8.378 -0.9547 -0.0689 -0.6008
   89MOL   C22042636   7.617   4.992   0.037  0.0072  0.1900 -0.4641
   89MOL   C22142637   7.562   5.015   0.167  0.0166  0.1719  0.0595
   89MOL   C22242638   7.441   4.949   0.204  0.8388  0.5157 -0.1066
   89MOL   C22342639   7.377   4.860   0.116 -0.2371  1.2803 -0.1005
   89MOL   S22442640   7.763   5.077   8.406  0.0477 -0.0834  0.4196
   89MOL   O22542641   7.795   5.063   8.264  0.1124  0.1298 -0.1826
   89MOL   O22642642   7.872   5.041   0.074  0.7944  0.2365  0.1269
   89MOL   C22742643   7.724   5.253   0.005 -0.2524  0.1346 -0.6556
   89MOL   C22842644   7.815   5.326   0.078  0.7388 -0.4437  0.6708
   89MOL   C22942645   7.795   5.465   0.105 -0.2180  0.5967 -0.3352
   89MOL   C23042646   7.684   5.528   0.049 -0.2287  0.0585  0.1242
   89MOL   C23142647   7.594   5.454   8.393 -0.4509  0.2091  0.2494
   89MOL   C23242648   7.614   5.313   8.371 -0.3117 -0.3523 -0.0640
   89MOL   O23342649   7.668   5.664   0.073 -0.3954 -0.2129 -0.9072
   89MOL   H23442650   7.404   4.759   8.347  0.7487  0.7451 -1.6098
   89MOL   H23542651   7.602   4.875   8.282  1.6196  1.5434  0.0933
   89MOL   H23642652   7.618   5.078   0.235  3.3254 -2.0171 -0.5228
   89MOL   H23742653   7.389   4.969   0.296 -2.1576  0.4377 -1.7269
   89MOL   H23842654   7.899   5.279   0.126  2.1315  1.3827  0.0684
   89MOL   H23942655   7.864   5.507   0.176 -0.1472 -0.1085  0.0220
   89MOL   H24042656   7.503   5.497   8.353 -0.5667 -2.1925 -2.1959
   89MOL   H24142657   7.540   5.261   8.312 -0.6470 -0.2609  0.2711
   89MOL   C24242658   7.612   5.885   8.420 -0.0996 -0.0042  0.7571
   89MOL   C24342659   7.595   5.970   8.311 -0.2317  0.8857 -0.3698
   89MOL   C24442660   7.646   5.936   8.187  0.1352  0.0115  0.6700
   89MOL   C24542661   7.724   5.823   8.168 -0.0071  0.1428 -0.8716
   89MOL   C24642662   7.716   5.723   8.270 -0.1368  0.0634 -0.0221
   89MOL   C24742663   7.665   5.756   8.396 -0.0181 -0.0815 -0.3168
   89MOL   S24842664   7.652   6.053   8.052  0.2140 -0.0595  0.3584
   89MOL   O24942665   7.768   6.011   7.970  0.3326  0.4219 -0.1595
   89MOL   O25042666   7.637   6.189   8.096  0.6177  0.3575 -0.3011
   89MOL   C25142667   7.499   6.009   7.967 -0.0863 -0.0321 -0.7314
   89MOL   C25242668   7.376   6.069   7.999 -0.1612 -0.2485 -0.5724
   89MOL   C25342669   7.261   6.013   7.946 -0.9186  0.0640 -1.0653
   89MOL   C25442670   7.265   5.913   7.841  0.3502  0.7535 -0.3550
   89MOL   C25542671   7.392   5.864   7.800  0.1873 -0.1871 -0.6952
   89MOL   C25642672   7.511   5.910   7.869 -0.0274  0.2510  0.2705
   89MOL   O25742673   7.150   5.868   7.780  0.4568  0.1930  0.0403
   89MOL   H25842674   7.569   5.922   0.087 -0.8798 -0.2114  0.4779
   89MOL   H25942675   7.565   6.071   8.334 -0.4635  0.8447 -0.4972
   89MOL   H26042676   7.756   5.796   8.068 -0.1342  0.7382 -1.0711
   89MOL   H26142677   7.755   5.623   8.259 -0.0477 -0.0455  1.2404
   89MOL   H26242678   7.357   6.146   8.072 -3.4762 -0.3035 -1.2895
   89MOL   H26342679   7.171   6.061   7.981 -0.5983  0.0955 -0.2713
   89MOL   H26442680   7.395   5.788   7.723  1.6354 -0.4412 -0.4117
   89MOL   H26542681   7.606   5.861   7.859 -0.0130  0.6067 -1.4942
   89MOL   C26642682   6.969   5.732   7.762  0.6346 -0.1406 -0.2272
   89MOL   C26742683   6.910   5.607   7.788  0.3291 -0.1398  0.3698
   89MOL   C26842684   6.964   5.516   7.885  0.6278  0.6669  1.2047
   89MOL   C26942685   7.080   5.556   7.958  0.5699  0.0165 -0.0158
   89MOL   C27042686   7.139   5.683   7.932 -1.1520 -0.0801  1.0546
   89MOL   C27142687   7.085   5.766   7.835 -0.1254  0.0856 -0.6616
   89MOL   S27242688   6.910   5.342   7.906  0.1409  0.3467 -0.1636
   89MOL   O27342689   7.022   5.259   7.953  0.3457  0.5014 -1.0674
   89MOL   O27442690   6.843   5.304   7.780 -0.6220  0.2053  0.2023
   89MOL   C27542691   6.789   5.325   8.036 -0.0830 -0.0021  1.1927
   89MOL   C27642692   6.832   5.282   8.163 -0.5859 -0.1080  0.2890
   89MOL   C27742693   6.739   5.265   8.262  0.3220  0.4839  0.1181
   89MOL   C27842694   6.600   5.282   8.235 -0.2267 -0.8407  0.6874
   89MOL   C27942695   6.557   5.305   8.101  0.6702  0.5053 -0.4834
   89MOL   C28042696   6.653   5.343   8.002 -0.5845  0.0383 -0.3884
   89MOL   O28142697   6.515   5.264   8.341  0.1804 -0.6209  0.1890
   89MOL   H28242698   6.937   5.787   7.675 -2.3216  1.4057  1.7688
   89MOL   H28342699   6.821   5.565   7.744 -0.3134  0.2587  1.2825
   89MOL   H28442700   7.116   5.482   8.028  1.8173 -0.4797 -1.1698
   89MOL   H28542701   7.226   5.716   7.987 -0.0452 -2.7928  0.9787
   89MOL   H28642702   6.935   5.251   8.166 -0.1516  1.0454 -1.6580
   89MOL   H28742703   6.766   5.249   8.365  1.1853  1.9513  0.1359
   89MOL   H28842704   6.451   5.317   8.082  0.2177  1.7989  2.4246
   89MOL   H28942705   6.617   5.387   7.910  1.5106 -1.6432 -2.0753
   89MOL   C29042706   6.592   5.121   0.097 -0.0531  0.1966  0.0510
   89MOL   C29142707   6.576   5.003   0.174 -0.2190 -0.8997 -0.6789
   89MOL   C29242708   6.476   4.910   0.138  1.0911  0.3412 -0.1359
   89MOL   C29342709   6.387   4.937   0.029 -0.6038  0.0581  0.2150
   89MOL   C29442710   6.405   5.059   8.375 -0.0380  0.1691 -0.2827
   89MOL   C29542711   6.509   5.144   8.409  0.4162 -0.3988 -0.0719
   89MOL   S29642712   6.468   4.764   0.237 -0.2072 -0.3463  0.2932
   89MOL   O29742713   6.335   4.762   0.302 -0.7799  0.3705  0.0236
   89MOL   O29842714   6.589   4.760   0.323 -0.0708 -0.2318 -0.0607
   89MOL   C29942715   6.477   4.633   0.119  0.4511  0.0108  0.2746
   89MOL   C30042716   6.364   4.553   0.093 -0.2086  0.2230  0.2036
   89MOL   C30142717   6.377   4.447   0.003  0.0553 -0.1155 -0.4526
   89MOL   C30242718   6.505   4.412   8.377  0.1608  0.0615 -0.6320
   89MOL   C30342719   6.615   4.494   8.407  0.4747 -0.9361 -0.3568
   89MOL   C30442720   6.601   4.610   0.067  0.4534  1.1892  0.0480
   89MOL   O30542721   6.519   4.322   8.278 -0.3012 -0.4744  0.0497
   89MOL   H30642722   6.660   5.201   0.122 -0.0184  0.2865 -0.3176
   89MOL   H30742723   6.636   4.976   0.260 -3.2013 -0.8172  1.4895
   89MOL   H30842724   6.306   4.868   0.010  0.9006 -1.7339  0.1775
   89MOL   H30942725   6.346   5.090   8.290  1.6878  0.5075 -1.4045
   89MOL   H31042726   6.270   4.557   0.146 -1.5770  3.3115 -2.2460
   89MOL   H31142727   6.286   4.390   8.415 -0.0048  0.2157 -1.5433
   89MOL   H31242728   6.712   4.468   8.367  0.5480 -1.5817  0.2256
   89MOL   H31342729   6.693   4.656   0.101  1.6415  0.4455 -2.0457
   89MOL   C31442730   6.575   4.397   8.055  0.2213  0.1912 -0.1958
   89MOL   C31542731   6.534   4.424   7.925 -0.0325  0.3840 -0.6726
   89MOL   C31642732   6.395   4.425   7.886 -0.2146 -0.2560 -0.6318
   89MOL   C31742733   6.300   4.380   7.982  0.7051 -0.0710  0.5682
   89MOL   C31842734   6.343   4.346   8.115 -0.0159 -0.4430  0.2791
   89MOL   C31942735   6.482   4.362   8.153 -0.4428  0.3411 -0.7661
   89MOL   S32042736   6.342   4.463   7.720 -0.2153 -0.4145  0.0338
   89MOL   O32142737   6.330   4.609   7.701  0.0788  0.2548 -0.2554
   89MOL   O32242738   6.233   4.374   7.679 -0.0961 -0.0871 -0.2051
   89MOL   C32342739   6.476   4.406   7.615  0.3539 -0.2808 -0.5070
   89MOL   C32442740   6.540   4.492   7.524 -0.2130 -0.3972 -0.2482
   89MOL   C32542741   6.629   4.445   7.428  0.1345  0.1076 -0.0643
   89MOL   C32642742   6.673   4.305   7.433 -0.6209 -0.0989  0.1612
   89MOL   C32742743   6.605   4.222   7.527 -0.3074 -0.7468  0.0163
   89MOL   C32842744   6.508   4.271   7.621 -0.1841 -0.6028  0.4680
   89MOL   O32942745   6.764   4.248   7.346 -0.3924 -0.7948  0.1590
   89MOL   H33042746   6.680   4.400   8.079  0.2594  0.0822 -0.3411
   89MOL   H33142747   6.605   4.453   7.849 -1.0029  2.0297 -0.9926
   89MOL   H33242748   6.196   4.366   7.956  0.3187 -0.3571  2.2031
   89MOL   H33342749   6.268   4.309   8.183 -0.2695 -0.6654 -0.1228
   89MOL   H33442750   6.501   4.593   7.526  2.9999  0.8950  0.4482
   89MOL   H33542751   6.672   4.508   7.352 -1.9129 -0.6702 -1.9022
   89MOL   H33642752   6.612   4.114   7.520  1.6911 -0.6631  0.5274
   89MOL   H33742753   6.457   4.210   7.695  0.5608  1.7762  3.0423
   89MOL   C33842754   6.903   4.375   7.194 -0.4469 -0.7361  0.4167
   89MOL   C33942755   7.019   4.442   7.166  0.4314 -0.1846 -0.3922
   89MOL   C34042756   7.121   4.456   7.262  0.0535  0.1444  0.1287
   89MOL   C34142757   7.109   4.395   7.390 -0.1400 -0.1292  0.5585
   89MOL   C34242758   6.989   4.322   7.422  0.1527  0.1200  0.1939
   89MOL   C34342759   6.883   4.317   7.325 -0.0954 -0.5363 -0.7030
   89MOL   S34442760   7.265   4.555   7.221 -0.4420 -0.1478  0.0186
   89MOL   O34542761   7.296   4.526   7.081  0.4721  0.6154 -0.1447
   89MOL   O34642762   7.370   4.535   7.324  0.2294 -0.0015 -0.1377
   89MOL   C34742763   7.202   4.717   7.229  0.1804  0.0991 -0.9051
   89MOL   C34842764   7.092   4.758   7.146 -0.1039  0.3575  0.1201
   89MOL   C34942765   7.037   4.888   7.158  0.3540 -0.2998  0.7444
   89MOL   C35042766   7.089   4.975   7.255 -0.1230  0.3880 -0.8600
   89MOL   C35142767   7.199   4.936   7.335 -0.4767 -0.8548 -0.6463
   89MOL   C35242768   7.254   4.809   7.322 -0.6090  0.1747  0.5613
   89MOL   O35342769   7.031   5.097   7.284 -0.1511 -0.0082 -0.2857
   89MOL   H35442770   6.826   4.352   7.122 -0.0932 -0.5141 -0.0304
   89MOL   H35542771   7.029   4.469   7.061 -1.3203  0.4827 -0.4101
   89MOL   H35642772   7.185   4.405   7.466  1.6139 -1.3007 -0.9917
   89MOL   H35742773   6.983   4.271   7.517  0.6860  2.2530  1.4122
   89MOL   H35842774   7.057   4.697   7.065  0.3332  0.6807 -0.3189
   89MOL   H35942775   6.952   4.908   7.094  1.4049  0.2307 -0.5007
   89MOL   H36042776   7.227   5.005   7.414 -3.0599 -2.8214  2.0944
   89MOL   H36142777   7.339   4.784   7.384  0.6389 -3.0643 -2.2820
   89MOL   C36242778   6.799   5.019   7.335 -0.0008 -0.2026  0.0588
   89MOL   C36342779   6.706   4.980   7.429  0.7999 -0.3139  0.1689
   89MOL   C36442780   6.729   5.003   7.565  0.0136 -0.4935 -0.8933
   89MOL   C36542781   6.847   5.070   7.603  0.1502 -0.2903 -0.2297
   89MOL   C36642782   6.939   5.110   7.509 -0.6553 -0.1411  0.1422
   89MOL   C36742783   6.925   5.082   7.372  0.4749 -0.4261 -0.1184
   89MOL   S36842784   6.595   4.963   7.682 -0.1477 -0.1969 -0.0676
   89MOL   O36942785   6.638   4.988   7.822 -0.2021 -0.2306 -0.1848
   89MOL   O37042786   6.545   4.826   7.656 -0.0221 -0.1963  0.3463
   89MOL   C37142787   6.465   5.084   7.654  0.2463 -1.0933 -0.0458
   89MOL   C37242788   6.328   5.037   7.620 -0.4311  0.3506 -0.3097
   89MOL   C37342789   6.227   5.135   7.628 -0.0553 -0.2459 -0.3030
   89MOL   C37442790   6.252   5.267   7.655  0.1484 -0.3655  0.0230
   89MOL   C37542791   6.387   5.314   7.667  0.0794  0.6527  0.4377
   89MOL   C37642792   6.492   5.218   7.673 -0.3664  0.1746 -0.1203
   89MOL   O37742793   6.140   5.344   7.655 -0.2129 -0.0323  0.3817
   89MOL   H37842794   6.778   4.997   7.232 -2.0880  2.2044 -0.0812
   89MOL   H37942795   6.615   4.929   7.403  0.1611  1.3417 -0.9674
   89MOL   H38042796   6.858   5.092   7.708 -0.7119  0.6712 -0.3314
   89MOL   H38142797   7.026   5.170   7.532 -1.7785  0.0343  4.2588
   89MOL   H38242798   6.305   4.938   7.583  0.7502 -0.3856  0.8813
   89MOL   H38342799   6.124   5.109   7.611 -0.5439  1.7417 -0.4897
   89MOL   H38442800   6.408   5.416   7.692  1.2096  0.0976  1.8066
   89MOL   H38542801   6.591   5.257   7.692 -0.3755 -0.2250  0.7633
   89MOL   C38642802   6.125   5.419   7.887 -0.0981 -0.1141 -0.1306
   89MOL   C38742803   6.105   5.527   7.971  0.5811  0.4930  0.1988
   89MOL   C38842804   6.094   5.657   7.925 -0.7887  0.5875 -0.1621
   89MOL   C38942805   6.108   5.684   7.788  0.1243 -0.0970  0.3027
   89MOL   C39042806   6.127   5.580   7.698  0.0538 -0.2883 -0.3054
   89MOL   C39142807   6.133   5.449   7.745  0.3244  0.0543  0.0239
   89MOL   S39242808   6.097   5.793   8.043  0.0038 -0.5027  0.0725
   89MOL   O39342809   6.078   5.923   7.978 -0.1212  0.5257  0.2057
   89MOL   O39442810   6.222   5.775   8.119 -0.2835 -0.0003  0.0466
   89MOL   C39542811   5.961   5.758   8.145  0.4212 -0.3723 -0.0689
   89MOL   C39642812   5.838   5.823   8.139  0.0315 -0.3468 -0.0654
   89MOL   C39742813   5.736   5.795   8.228 -0.1314  0.2670  0.2115
   89MOL   C39842814   5.749   5.706   8.330 -0.0863  0.2248 -0.3893
   89MOL   C39942815   5.869   5.633   8.334  0.0611  0.3182  0.5000
   89MOL   C40042816   5.974   5.662   8.248 -0.1749 -0.0602  0.1873
   89MOL   O40142817   5.645   5.677   8.417  0.3413 -0.0771  0.2497
   89MOL   H40242818   6.137   5.326   7.941  1.0609  1.6182  2.6580
   89MOL   H40342819   6.109   5.519   8.078 -1.5043  1.8552  0.4252
   89MOL   H40442820   6.092   5.785   7.754  0.3552 -0.3145 -0.4460
   89MOL   H40542821   6.137   5.595   7.592 -3.5634  3.5376 -0.2350
   89MOL   H40642822   5.820   5.906   8.072 -0.1358  0.8123  1.3586
   89MOL   H40742823   5.648   5.856   8.213  0.5413  1.3927  0.7277
   89MOL   H40842824   5.880   5.553   8.405  0.0168 -0.3570 -0.2448
   89MOL   H40942825   6.059   5.596   8.256 -0.6044 -0.6881 -0.3672
   89MOL   C41042826   5.705   5.853   0.150  0.3147  0.0381 -0.4037
   89MOL   C41142827   5.753   5.884   0.276 -0.3499 -0.4444 -0.3455
   89MOL   C41242828   5.743   5.794   0.380 -0.0219  0.0370  0.3292
   89MOL   C41342829   5.682   5.668   0.364  0.3217  0.1985  0.0989
   89MOL   C41442830   5.648   5.627   0.235 -0.0098 -0.2304 -0.6630
   89MOL   C41542831   5.661   5.716   0.124 -0.5801  0.1619  0.2572
   89MOL   S41642832   5.830   5.846   0.537 -0.7578 -0.1291 -0.4082
   89MOL   O41742833   5.746   5.795   0.645  0.0641 -0.4683 -0.3391
   89MOL   O41842834   5.855   5.991   0.522  0.1041 -0.1852 -0.3158
   89MOL   C41942835   5.982   5.758   0.527  0.5762 -0.2278  0.9033
   89MOL   C42042836   6.059   5.752   0.644 -0.2316 -0.2833  0.1183
   89MOL   C42142837   6.192   5.716   0.634  0.1951  1.1017 -0.3422
   89MOL   C42242838   6.242   5.660   0.512  0.2971 -0.2420 -0.7015
   89MOL   C42342839   6.159   5.655   0.401  0.7153  0.0220 -0.0511
   89MOL   C42442840   6.023   5.700   0.409 -0.4035  0.1916  0.2438
   89MOL   O42542841   6.370   5.629   0.492 -0.3666 -0.1534 -0.2644
   89MOL   H42642842   5.722   5.927   0.073  1.4302  2.2148  1.8797
   89MOL   H42742843   5.796   5.983   0.290 -1.1972 -0.1364  0.1375
   89MOL   H42842844   5.676   5.598   0.446 -2.5348  0.3352  0.0338
   89MOL   H42942845   5.598   5.534   0.211 -0.7202  0.1805 -0.8070
   89MOL   H43042846   6.035   5.808   0.733 -0.2613 -1.3261  0.7776
   89MOL   H43142847   6.262   5.722   0.716 -0.7985 -0.4085  0.6358
   89MOL   H43242848   6.190   5.624   0.302  0.1942  1.1385 -0.5746
   89MOL   H43342849   5.967   5.701   0.316  0.3209 -0.4579 -0.2083
   89MOL   C43442850   6.588   5.607   0.576  0.3906 -0.1709 -0.0678
   89MOL   C43542851   6.679   5.530   0.652 -0.0665 -0.4213  0.0544
   89MOL   C43642852   6.639   5.423   0.734  0.1735 -0.3294  0.3697
   89MOL   C43742853   6.502   5.408   0.763  0.0075  1.4231 -0.2699
   89MOL   C43842854   6.408   5.478   0.678  0.9754 -0.2477 -0.4547
   89MOL   C43942855   6.452   5.575   0.585 -0.3833  0.1588 -0.0106
   89MOL   S44042856   6.755   5.308   0.816  0.4536 -0.2801 -0.0553
   89MOL   O44142857   6.745   5.320   0.959  0.3441 -0.1647  0.0637
   89MOL   O44242858   6.887   5.341   0.758 -0.0133  0.4414  0.2035
   89MOL   C44342859   6.701   5.145   0.771 -0.2555 -0.0042  0.6807
   89MOL   C44442860   6.611   5.081   0.855 -0.0065  0.3803 -0.1596
   89MOL   C44542861   6.580   4.944   0.834  0.4212 -0.9241  0.0904
   89MOL   C44642862   6.625   4.882   0.711  0.3022  0.4546 -0.4468
   89MOL   C44742863   6.723   4.946   0.628  0.7135  0.7468 -0.2134
   89MOL   C44842864   6.765   5.075   0.661  0.5771 -0.2921 -0.2009
   89MOL   O44942865   6.595   4.753   0.677 -0.2676  0.0039 -0.4947
   89MOL   H45042866   6.610   5.684   0.504 -1.1508 -1.9280 -2.4652
   89MOL   H45142867   6.782   5.555   0.631  0.1527 -0.1116  1.4266
   89MOL   H45242868   6.469   5.344   0.844  0.6686 -0.5865 -1.5271
   89MOL   H45342869   6.304   5.455   0.693  1.0197  0.9448  2.0428
   89MOL   H45442870   6.569   5.126   0.944 -0.7869  0.6816 -0.6731
   89MOL   H45542871   6.509   4.903   0.904  0.4571  2.0577  1.9460
   89MOL   H45642872   6.759   4.900   0.537  0.4018 -0.1270  0.1027
   89MOL   H45742873   6.841   5.117   0.596 -1.4730  1.9703 -1.2117
   89MOL   C45842874   6.647   4.594   0.844  0.8161 -0.5012 -0.3046
   89MOL   C45942875   6.603   4.498   0.936  0.9561 -0.4958 -0.6948
   89MOL   C46042876   6.467   4.467   0.955 -0.2320  0.3571  0.2151
   89MOL   C46142877   6.372   4.540   0.877 -0.9175 -0.1316  0.7905
   89MOL   C46242878   6.411   4.646   0.789  0.2613  0.3039  0.3473
   89MOL   C46342879   6.551   4.665   0.771 -0.1300  0.1603  0.0740
   89MOL   S46442880   6.419   4.342   1.074 -0.1246  0.0082 -0.2231
   89MOL   O46542881   6.339   4.408   1.178 -0.0663  0.1732  0.6486
   89MOL   O46642882   6.545   4.274   1.113  0.3633  0.0893  0.4844
   89MOL   C46742883   6.327   4.218   0.980  0.2193  0.2262  1.0270
   89MOL   C46842884   6.240   4.134   1.050 -0.8023 -0.3820 -0.3449
   89MOL   C46942885   6.162   4.040   0.974  0.0597  0.4134  0.3880
   89MOL   C47042886   6.174   4.038   0.834  0.1243 -0.1431 -0.9305
   89MOL   C47142887   6.260   4.133   0.767 -0.1892 -0.2378 -0.3327
   89MOL   C47242888   6.347   4.216   0.840 -0.0314 -0.3883 -0.2737
   89MOL   O47342889   6.113   3.943   0.760 -0.5777 -0.2781 -0.1884
   89MOL   H47442890   6.754   4.604   0.829  1.0090 -0.0304  1.2834
   89MOL   H47542891   6.672   4.440   0.995 -2.1614 -1.1163  2.4907
   89MOL   H47642892   6.268   4.512   0.873 -1.6641  2.6132 -0.1967
   89MOL   H47742893   6.335   4.687   0.723  0.5163  1.3722  0.7193
   89MOL   H47842894   6.249   4.131   1.158  0.4633  2.6748 -0.3225
   89MOL   H47942895   6.102   3.960   1.015  1.3945 -0.7755  0.0574
   89MOL   H48042896   6.273   4.138   0.659  1.1854 -2.1871 -0.2769
   89MOL   H48142897   6.418   4.278   0.787  0.6881 -0.6117  0.4135
   89MOL   H48242898   6.124   3.952   0.667  0.3554  1.2010  0.0536
   90MOL     C142899   7.621   0.859   4.757  0.1419  0.2169 -0.7029
   90MOL     C242900   7.552   0.923   4.653 -0.5167  0.5473  0.8869
   90MOL     C342901   7.422   0.977   4.678  0.6807 -0.2980 -0.1451
   90MOL     C442902   7.374   0.981   4.811 -0.5586  0.3130  0.7277
   90MOL     C542903   7.441   0.913   4.912 -0.3019 -0.2599  1.3015
   90MOL     C642904   7.564   0.861   4.883  0.6757 -0.3830 -0.7487
   90MOL     S742905   7.329   1.060   4.558  0.3262 -0.0713 -0.0857
   90MOL     O842906   7.218   0.977   4.505 -0.1631 -0.5954  0.2138
   90MOL     O942907   7.427   1.112   4.457 -0.3488 -0.0038 -0.7887
   90MOL    C1042908   7.247   1.206   4.632  0.1751  0.9726  0.3353
   90MOL    C1142909   7.123   1.192   4.696  0.3351 -0.1422  0.1442
   90MOL    C1242910   7.062   1.298   4.763 -0.0767  0.0704  0.7480
   90MOL    C1342911   7.116   1.426   4.743 -0.1339 -0.4891 -0.0804
   90MOL    C1442912   7.233   1.443   4.671  0.1274 -0.0542  0.1322
   90MOL    C1542913   7.302   1.334   4.617  0.0444  0.2805  0.5771
   90MOL    O1642914   7.040   1.531   4.789  0.9660 -0.3723  0.3810
   90MOL    H1742915   7.706   0.798   4.731 -0.2568 -0.2626 -0.8805
   90MOL    H1842916   7.587   0.922   4.551 -1.0340 -2.6691  0.7004
   90MOL    H1942917   7.284   1.033   4.836 -0.1738  1.2805  0.1238
   90MOL    H2042918   7.403   0.900   5.012  0.5240  1.8711  1.9320
   90MOL    H2142919   7.090   1.091   4.715  1.9344 -0.5352  0.9834
   90MOL    H2242920   6.974   1.276   4.822 -0.9530  1.9808  0.1814
   90MOL    H2342921   7.276   1.542   4.660  3.0872 -1.5230 -2.1303
   90MOL    H2442922   7.375   1.347   4.538 -1.3994  1.0245 -0.6713
   90MOL    H2542923   7.612   0.806   4.963 -1.1521 -0.6200  0.2107
   90MOL    C2642924   7.015   1.740   4.919  0.6893  0.0157 -0.0899
   90MOL    C2742925   7.064   1.833   5.018 -0.5048  0.1288 -0.5382
   90MOL    C2842926   7.176   1.802   5.090  0.1878  0.8960 -0.0162
   90MOL    C2942927   7.245   1.681   5.069  0.4032  0.4422 -0.1573
   90MOL    C3042928   7.192   1.583   4.980  0.7735  0.3754 -0.1963
   90MOL    C3142929   7.085   1.615   4.892 -0.5913 -0.0647  0.3979
   90MOL    S3242930   7.256   1.922   5.198  0.0881  0.5290 -0.6200
   90MOL    O3342931   7.257   1.864   5.333 -0.1579 -1.0353 -0.1316
   90MOL    O3442932   7.200   2.053   5.176 -0.0754  0.0666  0.3816
   90MOL    C3542933   7.419   1.928   5.153  0.4422  0.0604 -0.5420
   90MOL    C3642934   7.456   1.988   5.032  0.1960 -0.8172 -0.9659
   90MOL    C3742935   7.589   1.998   4.990  0.1207 -0.6190 -0.3291
   90MOL    C3842936   7.686   1.933   5.077 -0.1189 -0.1889  0.0079
   90MOL    C3942937   7.647   1.875   5.197 -0.0028  0.9758  0.0320
   90MOL    C4042938   7.515   1.873   5.235 -0.0092 -0.4617  0.0698
   90MOL    O4142939   7.818   1.928   5.045 -0.1241  0.4232 -0.5348
   90MOL    H4242940   6.923   1.753   4.864  0.6959 -0.4472 -0.2211
   90MOL    H4342941   7.017   1.927   5.043  0.3474  0.6647 -0.9290
   90MOL    H4442942   7.337   1.656   5.121  0.7726  0.8228 -0.6231
   90MOL    H4542943   7.240   1.486   4.971  0.8234  0.4593 -0.8584
   90MOL    H4642944   7.378   2.030   4.969  1.9306  1.5068 -1.6446
   90MOL    H4742945   7.616   2.036   4.893  0.4551  0.7130  0.2773
   90MOL    H4842946   7.717   1.827   5.264  0.2660  1.4923  0.1260
   90MOL    H4942947   7.495   1.833   5.334  0.6102  1.7192  1.0984
   90MOL    C5042948   7.959   2.058   4.905  0.6116  0.2864 -0.3179
   90MOL    C5142949   8.015   2.084   4.781 -0.0465 -0.3822  0.5453
   90MOL    C5242950   7.977   2.014   4.665  0.2214 -0.0385 -0.3814
   90MOL    C5342951   7.874   1.923   4.681 -0.0145 -0.1331 -0.2876
   90MOL    C5442952   7.824   1.888   4.802 -0.6525  1.2978 -0.1538
   90MOL    C5542953   7.861   1.958   4.918  0.3686  0.1909  0.4814
   90MOL    S5642954   8.054   2.057   4.506  0.1663 -0.1801  0.4162
   90MOL    O5742955   8.025   1.948   4.410 -0.8132 -0.1008 -0.3833
   90MOL    O5842956   8.194   2.098   4.528 -0.3150 -0.0960  0.0112
   90MOL    C5942957   7.962   2.198   4.437 -0.5185  0.3387  0.1826
   90MOL    C6042958   7.903   2.302   4.516  0.2505  0.2462  0.1847
   90MOL    C6142959   7.836   2.412   4.461  0.3322  0.2264 -0.1221
   90MOL    C6242960   7.814   2.415   4.324 -0.7360  0.0571  0.2118
   90MOL    C6342961   7.879   2.317   4.238 -0.0547 -0.0848  0.3498
   90MOL    C6442962   7.955   2.219   4.299 -0.1603  0.1028 -0.2932
   90MOL    O6542963   7.750   2.521   4.276 -0.0244  0.3031  0.5076
   90MOL    H6642964   7.989   2.111   4.994  1.2441  2.3824 -1.7364
   90MOL    H6742965   8.084   2.165   4.767 -0.4464 -0.2513 -0.6883
   90MOL    H6842966   7.830   1.865   4.601 -1.9849  0.0013  0.6746
   90MOL    H6942967   7.751   1.809   4.817  0.2101  0.8143  1.6374
   90MOL    H7042968   7.903   2.284   4.623 -0.9401  0.4201  0.2210
   90MOL    H7142969   7.828   2.501   4.522  0.5718  0.1284  0.0507
   90MOL    H7242970   7.878   2.318   4.130  3.2839  1.3836  0.2707
   90MOL    H7342971   7.989   2.142   4.231  0.8457  0.6267 -0.3893
   90MOL    C7442972   7.660   2.476   4.064 -0.3951  0.6480 -0.1209
   90MOL    C7542973   7.663   2.482   3.921 -0.2489 -0.0662  0.7484
   90MOL    C7642974   7.757   2.564   3.858 -0.0492 -0.0103  0.0954
   90MOL    C7742975   7.857   2.624   3.931  0.2361  0.4031 -0.2580
   90MOL    C7842976   7.856   2.615   4.070  0.3723 -1.3570  0.4843
   90MOL    C7942977   7.757   2.540   4.141 -0.5622  0.4245  0.0784
   90MOL    S8042978   7.755   2.564   3.675 -0.1533 -0.0136  0.0990
   90MOL    O8142979   7.814   2.696   3.637 -0.1439 -0.5175  0.6903
   90MOL    O8242980   7.614   2.534   3.643  0.2853 -1.0290 -0.0060
   90MOL    C8342981   7.864   2.437   3.634 -0.2181  0.2663  0.5287
   90MOL    C8442982   7.973   2.463   3.553  0.3270  0.1607  0.8761
   90MOL    C8542983   8.070   2.358   3.527  0.2813  0.7914  0.3507
   90MOL    C8642984   8.043   2.233   3.575  0.0365  0.6969 -0.0917
   90MOL    C8742985   7.931   2.211   3.651  0.3952  0.3734  0.5521
   90MOL    C8842986   7.843   2.314   3.684 -0.2216  0.3962 -0.1935
   90MOL    O8942987   8.135   2.132   3.547 -0.3944  0.4938  0.2780
   90MOL    H9042988   7.583   2.416   4.111 -0.1216  1.0035  0.8013
   90MOL    H9142989   7.584   2.428   3.871  0.2828 -0.1992  0.0459
   90MOL    H9242990   7.928   2.687   3.879 -2.1862  1.9242 -1.8345
   90MOL    H9342991   7.941   2.660   4.121 -0.4557  0.4667  0.3004
   90MOL    H9442992   7.983   2.561   3.509 -3.0935 -0.3249 -1.1323
   90MOL    H9542993   8.164   2.374   3.475  1.0549  0.7307  1.6952
   90MOL    H9642994   7.922   2.112   3.692  1.2734  0.0208 -0.1118
   90MOL    H9742995   7.754   2.295   3.742 -0.9332 -0.6288 -1.6205
   90MOL    C9842996   8.035   2.013   3.361  0.1368 -0.2645 -0.0596
   90MOL    C9942997   7.982   1.897   3.311 -0.2960 -0.3441  0.2238
   90MOL   C10042998   7.980   1.781   3.394  0.1001 -0.0950 -0.0671
   90MOL   C10142999   8.027   1.786   3.524  0.3455  0.3045 -0.3316
   90MOL   C10243000   8.081   1.902   3.579 -0.0237 -0.1384  0.2898
   90MOL   C10343001   8.078   2.017   3.494 -0.2274  0.3856 -0.0635
   90MOL   S10443002   7.912   1.622   3.331 -0.3490 -0.1287 -0.0258
   90MOL   O10543003   7.914   1.534   3.443 -0.1458  0.1040 -0.0572
   90MOL   O10643004   7.981   1.590   3.205 -0.2549  0.2002 -0.4063
   90MOL   C10743005   7.747   1.651   3.290  0.2063  0.5358 -0.2459
   90MOL   C10843006   7.637   1.621   3.377  0.0662 -0.6464 -0.1763
   90MOL   C10943007   7.505   1.650   3.339  0.0721  0.5865 -0.1188
   90MOL   C11043008   7.478   1.703   3.216 -0.1296 -0.5647  0.5361
   90MOL   C11143009   7.586   1.748   3.135  0.2444  0.0190 -0.3006
   90MOL   C11243010   7.721   1.730   3.177  0.6138  0.3655 -0.3801
   90MOL   O11343011   7.346   1.706   3.165 -0.0540 -0.6538  0.4466
   90MOL   H11443012   8.042   2.099   3.295  0.2146  0.6678  1.1502
   90MOL   H11543013   7.947   1.904   3.209  1.2230  0.7570 -0.2348
   90MOL   H11643014   8.026   1.699   3.590 -1.2170  0.5955  0.0495
   90MOL   H11743015   8.111   1.897   3.683 -0.2535 -1.2584  0.3085
   90MOL   H11843016   7.664   1.582   3.474  0.1647 -0.7810 -0.2572
   90MOL   H11943017   7.427   1.606   3.400 -0.6410  0.6802 -0.9425
   90MOL   H12043018   7.562   1.794   3.041 -2.6864  0.4925  0.6169
   90MOL   H12143019   7.797   1.763   3.108  0.1659 -0.1079 -1.1016
   90MOL   C12243020   7.275   1.908   3.063  0.9855 -0.4364  0.5369
   90MOL   C12343021   7.207   2.033   3.069 -0.4046  0.5219 -0.0607
   90MOL   C12443022   7.150   2.072   3.188  0.2552  0.2418 -0.6887
   90MOL   C12543023   7.148   1.989   3.303 -0.3189  0.1140 -0.2187
   90MOL   C12643024   7.211   1.864   3.290 -0.1580  0.2386 -0.2396
   90MOL   C12743025   7.280   1.824   3.173 -0.3022 -0.4703  0.1680
   90MOL   S12843026   7.058   2.228   3.193 -0.2813 -0.0719 -0.0049
   90MOL   O12943027   6.953   2.220   3.296  0.1341  0.1269  0.2415
   90MOL   O13043028   7.035   2.274   3.056 -0.3228  0.2047  0.1122
   90MOL   C13143029   7.166   2.356   3.247 -0.1786  0.2156  0.0532
   90MOL   C13243030   7.110   2.472   3.287 -0.0006 -0.2017  1.1964
   90MOL   C13343031   7.195   2.586   3.310  0.9227  0.2519 -0.4504
   90MOL   C13443032   7.336   2.583   3.302 -0.3370  0.5398 -0.1325
   90MOL   C13543033   7.389   2.453   3.290 -0.3616  0.2419 -0.6335
   90MOL   C13643034   7.309   2.343   3.260 -0.5554  0.5594  0.0233
   90MOL   O13743035   7.417   2.685   3.332 -0.7941 -1.1130  0.1185
   90MOL   H13843036   7.303   1.873   2.964  0.9893  1.2988 -0.0973
   90MOL   H13943037   7.196   2.097   2.983 -1.5387  3.8054  2.4516
   90MOL   H14043038   7.105   2.019   3.397 -2.8475 -0.3982 -1.1668
   90MOL   H14143039   7.214   1.789   3.367 -0.9605 -1.2312 -1.6119
   90MOL   H14243040   7.004   2.476   3.271  0.2862  0.5250 -0.7188
   90MOL   H14343041   7.150   2.682   3.331 -0.1873 -0.0853 -1.1992
   90MOL   H14443042   7.496   2.444   3.295 -0.3171  1.6968  2.3626
   90MOL   H14543043   7.357   2.248   3.242 -0.5409  0.4692  0.5172
   90MOL   C14643044   7.654   2.728   3.347 -0.7549 -0.0445  0.2163
   90MOL   C14743045   7.779   2.749   3.280 -0.0126  0.0235 -0.8295
   90MOL   C14843046   7.781   2.756   3.137 -0.0843  0.2655  0.0177
   90MOL   C14943047   7.663   2.732   3.059 -0.2052  0.6193  0.3133
   90MOL   C15043048   7.540   2.709   3.128  0.2080  0.6388 -0.0091
   90MOL   C15143049   7.539   2.697   3.271  0.8695 -0.3506 -0.0212
   90MOL   S15243050   7.929   2.812   3.045  0.3917 -0.0635  0.4030
   90MOL   O15343051   7.941   2.732   2.920  0.3822 -0.3272 -0.0689
   90MOL   O15443052   8.041   2.817   3.141  0.3550 -0.3710  0.8136
   90MOL   C15543053   7.888   2.987   3.004  0.2524  0.4443  0.3510
   90MOL   C15643054   7.918   3.039   2.882 -0.3372 -0.3386  0.4305
   90MOL   C15743055   7.881   3.179   2.855  0.4874 -0.6899 -0.0783
   90MOL   C15843056   7.818   3.255   2.952 -0.4574 -0.6591 -0.6706
   90MOL   C15943057   7.774   3.191   3.078 -0.2237  0.1581  0.5278
   90MOL   C16043058   7.813   3.060   3.108 -0.5152 -0.2796 -1.0175
   90MOL   O16143059   7.780   3.390   2.942 -0.1857  0.1991  0.0149
   90MOL   H16243060   7.647   2.737   3.454 -0.1980 -2.0602  0.4500
   90MOL   H16343061   7.861   2.789   3.338 -0.9484 -1.4616  1.5926
   90MOL   H16443062   7.663   2.737   2.951  2.6026 -1.0676  0.1718
   90MOL   H16543063   7.454   2.690   3.066  0.3626  2.2093 -0.7181
   90MOL   H16643064   7.964   2.973   2.810  0.4662  0.3600  0.2884
   90MOL   H16743065   7.909   3.221   2.760 -0.1551 -1.8974 -0.8119
   90MOL   H16843066   7.729   3.251   3.156  3.1250  0.0624  2.6575
   90MOL   H16943067   7.786   3.019   3.204 -1.5005  1.4622 -0.5477
   90MOL   C17043068   7.793   3.521   2.748 -0.1178 -0.1582 -0.1575
   90MOL   C17143069   7.857   3.613   2.663  0.1834  0.3531 -0.3788
   90MOL   C17243070   7.982   3.658   2.699  0.2242  0.0420 -0.3562
   90MOL   C17343071   8.048   3.603   2.807  0.1280  0.3040 -0.4554
   90MOL   C17443072   7.987   3.501   2.886 -1.0114 -1.5767  0.1340
   90MOL   C17543073   7.856   3.463   2.857 -0.5968 -1.1365  0.8956
   90MOL   S17643074   8.069   3.763   2.585  0.3252 -0.3968  0.2274
   90MOL   O17743075   8.025   3.729   2.448 -0.4206  0.2298 -0.1878
   90MOL   O17843076   8.211   3.741   2.625  0.1323 -0.3231 -0.2759
   90MOL   C17943077   8.014   3.936   2.626 -0.3765 -0.3064  0.0952
   90MOL   C18043078   8.023   3.994   2.751 -0.1475  1.4533 -0.1343
   90MOL   C18143079   7.972   4.118   2.774  0.0089 -0.4084 -0.2261
   90MOL   C18243080   7.913   4.194   2.670 -0.0210  0.4107 -0.2456
   90MOL   C18343081   7.906   4.144   2.545 -0.0589 -0.6708  0.4754
   90MOL   C18443082   7.948   4.008   2.524  0.3738  0.4103 -0.5315
   90MOL   O18543083   7.855   4.318   2.691  0.2004 -0.0977  0.4283
   90MOL   H18643084   7.691   3.492   2.728  0.1010 -0.0503 -1.4878
   90MOL   H18743085   7.806   3.642   2.572 -0.2528 -1.8114 -0.8530
   90MOL   H18843086   8.144   3.643   2.835  0.3373 -1.0271  0.8113
   90MOL   H18943087   8.028   3.440   2.966 -0.7330  0.7047  1.7718
   90MOL   H19043088   8.068   3.938   2.832 -1.9598  0.1648  0.0281
   90MOL   H19143089   7.987   4.169   2.868  2.0371 -1.4692  0.0411
   90MOL   H19243090   7.870   4.194   2.456  1.5770 -0.6383 -0.2037
   90MOL   H19343091   7.927   3.960   2.430  0.2808 -0.3905 -0.1046
   90MOL   C19443092   7.734   4.304   2.903  0.5777 -0.5680 -0.5218
   90MOL   C19543093   7.610   4.331   2.963  0.2228  0.0525  0.4852
   90MOL   C19643094   7.489   4.363   2.892  0.3728 -0.5932  0.2950
   90MOL   C19743095   7.501   4.370   2.755  0.0879  0.2851  0.3213
   90MOL   C19843096   7.626   4.354   2.689  0.1664  0.4228 -0.8879
   90MOL   C19943097   7.740   4.319   2.760 -0.6570  0.2108 -0.6378
   90MOL   S20043098   7.333   4.370   2.979  0.6121  0.4698  0.1601
   90MOL   O20143099   7.354   4.430   3.109  0.1342  0.1628  0.0455
   90MOL   O20243100   7.274   4.236   2.980 -0.1254 -0.1278  0.2501
   90MOL   C20343101   7.216   4.480   2.898  0.1607 -0.2150 -0.4677
   90MOL   C20443102   7.079   4.445   2.907 -0.1814 -0.2844 -0.3300
   90MOL   C20543103   6.973   4.538   2.871 -0.1081  0.0351  0.3004
   90MOL   C20643104   7.011   4.669   2.826 -0.4747 -0.1221 -0.9651
   90MOL   C20743105   7.150   4.692   2.806 -0.1398  0.1026  0.2472
   90MOL   C20843106   7.255   4.605   2.846 -0.2014  0.0237 -0.3034
   90MOL   O20943107   6.909   4.754   2.787  0.4124 -0.0925  0.2641
   90MOL   H21043108   7.820   4.291   2.967 -0.0753 -0.5799  0.3642
   90MOL   H21143109   7.609   4.310   3.068  0.2195 -1.6707  0.1591
   90MOL   H21243110   7.412   4.386   2.695 -0.1888  1.5793  1.0531
   90MOL   H21343111   7.634   4.338   2.582  1.1670 -2.0712 -0.4634
   90MOL   H21443112   7.052   4.351   2.952  1.7346 -1.1296 -0.8948
   90MOL   H21543113   6.873   4.497   2.867 -0.2821  0.4980 -0.2333
   90MOL   H21643114   7.178   4.791   2.773  2.4311 -0.2824  1.2111
   90MOL   H21743115   7.358   4.636   2.837 -0.5081  1.4135  0.6896
   90MOL   C21843116   6.903   4.957   2.927  0.3936 -0.3191 -1.1257
   90MOL   C21943117   6.912   5.099   2.936 -0.2802  0.2620  0.2886
   90MOL   C22043118   6.946   5.172   2.823  0.6562 -0.0455  0.5692
   90MOL   C22143119   6.984   5.106   2.707 -0.0761 -1.0528  0.9243
   90MOL   C22243120   6.965   4.967   2.696 -0.5851  0.8120 -0.0441
   90MOL   C22343121   6.928   4.888   2.807  0.0606  0.0174  0.3576
   90MOL   S22443122   6.960   5.348   2.834  0.1122 -0.4126  0.3428
   90MOL   O22543123   7.100   5.376   2.797  0.6657 -0.3272  0.0042
   90MOL   O22643124   6.895   5.403   2.952  0.6374  0.0449 -0.0972
   90MOL   C22743125   6.853   5.387   2.695 -0.5858  0.2187  1.0402
   90MOL   C22843126   6.895   5.472   2.597 -0.2550 -0.9211  0.2189
   90MOL   C22943127   6.808   5.529   2.499 -0.3021 -0.0915  0.3443
   90MOL   C23043128   6.670   5.484   2.502 -0.0123 -0.1392  0.2614
   90MOL   C23143129   6.629   5.382   2.586  0.3476 -0.4889  0.1150
   90MOL   C23243130   6.721   5.338   2.680  0.4416 -0.5664 -0.8783
   90MOL   O23343131   6.582   5.535   2.409 -0.4470  0.2107 -0.3300
   90MOL   H23443132   6.860   4.909   3.013  1.2159 -1.0089 -1.0965
   90MOL   H23543133   6.895   5.153   3.028  0.3322  1.0495 -0.0587
   90MOL   H23643134   7.004   5.156   2.613 -2.6225 -2.3849 -0.3758
   90MOL   H23743135   6.987   4.911   2.607 -1.0426 -0.4807  0.6433
   90MOL   H23843136   6.998   5.506   2.594 -0.9661  1.8283  3.2558
   90MOL   H23943137   6.849   5.606   2.435 -1.3676 -0.5547 -0.9300
   90MOL   H24043138   6.524   5.354   2.587  0.3254 -0.4224 -0.2621
   90MOL   H24143139   6.677   5.275   2.756  1.6376  0.3554  0.6082
   90MOL   C24243140   6.687   5.626   2.210  1.0671  0.1094 -0.3024
   90MOL   C24343141   6.742   5.610   2.089 -0.1297  0.5296  0.3028
   90MOL   C24443142   6.716   5.489   2.018 -0.5619  0.2235 -0.1299
   90MOL   C24543143   6.624   5.393   2.065 -0.5780  0.0258  0.0017
   90MOL   C24643144   6.571   5.408   2.202 -0.1782  0.9656 -0.1339
   90MOL   C24743145   6.610   5.523   2.276 -0.6991  0.7206  0.6160
   90MOL   S24843146   6.794   5.452   1.865  0.1283  0.3890 -0.2823
   90MOL   O24943147   6.834   5.585   1.806 -0.2379  0.1226 -0.0285
   90MOL   O25043148   6.704   5.357   1.790  0.1444 -0.1214 -0.5521
   90MOL   C25143149   6.950   5.365   1.904 -0.4285 -0.1576  0.1928
   90MOL   C25243150   6.935   5.237   1.959 -0.2122 -0.5795  0.4899
   90MOL   C25343151   7.047   5.160   1.991  0.1099 -0.3072  0.5943
   90MOL   C25443152   7.173   5.211   1.968 -0.3452 -0.0798  0.3969
   90MOL   C25543153   7.191   5.334   1.907  0.9013 -0.2351  0.8068
   90MOL   C25643154   7.077   5.408   1.875 -0.5109 -0.2582 -0.0340
   90MOL   O25743155   7.276   5.144   2.026 -0.2054  0.5043  0.5585
   90MOL   H25843156   6.705   5.716   2.268  0.5453 -1.5184  2.4800
   90MOL   H25943157   6.816   5.680   2.052  0.5916 -0.0253  0.6868
   90MOL   H26043158   6.609   5.305   2.004 -1.3828  0.3635 -0.2921
   90MOL   H26143159   6.520   5.329   2.255 -0.5476  0.1190 -1.7141
   90MOL   H26243160   6.839   5.189   1.969 -0.7905  0.5715  0.5467
   90MOL   H26343161   7.038   5.060   2.030 -0.7999 -1.7119 -3.0757
   90MOL   H26443162   7.289   5.377   1.888  1.0829 -0.5519  1.0212
   90MOL   H26543163   7.093   5.504   1.827  1.9981 -0.8806 -0.5273
   90MOL   C26643164   7.312   5.307   2.212 -0.3415 -0.0710  0.2626
   90MOL   C26743165   7.386   5.335   2.332  0.5242  0.3808 -0.1168
   90MOL   C26843166   7.473   5.231   2.380 -0.3911  0.0130 -0.0495
   90MOL   C26943167   7.479   5.104   2.323  0.3154 -0.0809 -1.2156
   90MOL   C27043168   7.409   5.080   2.203  0.0736 -0.4962  0.2613
   90MOL   C27143169   7.326   5.182   2.147 -0.1998 -0.1213 -0.2799
   90MOL   S27243170   7.571   5.243   2.530 -0.1729 -0.2050 -0.2290
   90MOL   O27343171   7.568   5.383   2.573  0.1140  0.0341  0.2955
   90MOL   O27443172   7.705   5.183   2.500 -0.2271  0.4441  0.1023
   90MOL   C27543173   7.482   5.134   2.653  0.3320 -0.0995  0.4415
   90MOL   C27643174   7.508   5.000   2.666 -0.6367 -0.2582  0.2049
   90MOL   C27743175   7.462   4.923   2.773  0.1087  0.1607 -0.0866
   90MOL   C27843176   7.367   4.984   2.855  0.4544 -0.2714 -0.7336
   90MOL   C27943177   7.338   5.125   2.840  0.3331  0.5075 -0.2796
   90MOL   C28043178   7.396   5.203   2.734 -0.2136 -0.0962 -0.6564
   90MOL   O28143179   7.303   4.904   2.949 -0.2646  0.6564 -0.4356
   90MOL   H28243180   7.249   5.381   2.165  0.8579  0.0869 -1.1155
   90MOL   H28343181   7.393   5.435   2.370  0.5524  0.8583 -1.3470
   90MOL   H28443182   7.541   5.023   2.358 -0.3421 -0.7284 -1.5497
   90MOL   H28543183   7.417   4.986   2.152 -0.3755 -0.8754  0.8905
   90MOL   H28643184   7.573   4.948   2.596 -1.3545 -1.0638  0.1232
   90MOL   H28743185   7.495   4.821   2.774 -0.7307 -0.1379 -1.3510
   90MOL   H28843186   7.280   5.184   2.910  1.0723 -0.0347  0.8102
   90MOL   H28943187   7.399   5.311   2.725  2.4150 -0.0068  0.5438
   90MOL   C29043188   7.296   4.800   3.167  0.2265 -0.1762 -0.0953
   90MOL   C29143189   7.355   4.763   3.293  0.5012  0.4028  0.5044
   90MOL   C29243190   7.497   4.782   3.310  0.0330 -0.1775 -0.2247
   90MOL   C29343191   7.564   4.854   3.216 -0.1111  0.3380 -0.3033
   90MOL   C29443192   7.509   4.890   3.090 -1.0971  0.1525  0.0424
   90MOL   C29543193   7.370   4.863   3.065 -0.3690 -1.0139  0.3982
   90MOL   S29643194   7.578   4.727   3.460 -0.1222  0.1197  0.1898
   90MOL   O29743195   7.485   4.743   3.574  0.1331  0.0716  0.2528
   90MOL   O29843196   7.704   4.799   3.452  0.7008  0.3229  0.3243
   90MOL   C29943197   7.631   4.553   3.451 -0.5329 -0.3068 -0.5844
   90MOL   C30043198   7.748   4.509   3.514  0.2820  0.3341  0.2515
   90MOL   C30143199   7.774   4.371   3.535  0.0288  0.0079  0.2061
   90MOL   C30243200   7.693   4.280   3.468 -0.0735  0.5045  0.6225
   90MOL   C30343201   7.580   4.319   3.388  0.1965 -0.0463 -0.4945
   90MOL   C30443202   7.545   4.457   3.390 -0.2448  0.4280 -0.0755
   90MOL   O30543203   7.713   4.144   3.490  0.5105 -0.2449  0.4616
   90MOL   H30643204   7.190   4.784   3.147 -0.3728 -1.4033  3.7269
   90MOL   H30743205   7.301   4.709   3.369  0.2207  1.4109  1.0332
   90MOL   H30843206   7.669   4.876   3.234 -0.0193 -1.7126  1.8999
   90MOL   H30943207   7.565   4.937   3.011  0.4348  0.0890  1.0584
   90MOL   H31043208   7.817   4.577   3.561  1.7441 -1.5518  0.8884
   90MOL   H31143209   7.856   4.334   3.595  0.4017 -0.1641 -0.4095
   90MOL   H31243210   7.516   4.240   3.352  0.8575 -0.9875  0.3595
   90MOL   H31343211   7.453   4.496   3.349 -1.2036 -1.4533  0.2407
   90MOL   C31443212   7.789   4.094   3.272 -0.4972 -0.2663  0.2438
   90MOL   C31543213   7.778   4.019   3.150 -0.4568 -0.3179 -0.7109
   90MOL   C31643214   7.683   3.918   3.140 -0.1983  0.4574 -0.0270
   90MOL   C31743215   7.597   3.888   3.247  0.1116 -0.3171 -0.2919
   90MOL   C31843216   7.613   3.957   3.368 -0.0595 -0.2792  0.1972
   90MOL   C31943217   7.711   4.061   3.380  0.0516  0.6728  0.0856
   90MOL   S32043218   7.686   3.816   2.989  0.1243  0.0807 -0.2029
   90MOL   O32143219   7.624   3.685   3.019 -0.0374  0.1992 -0.0119
   90MOL   O32243220   7.823   3.821   2.934  0.1609 -0.0139 -0.3715
   90MOL   C32343221   7.584   3.904   2.875 -0.2038 -0.1184  0.1053
   90MOL   C32443222   7.452   3.927   2.906  0.0358  0.1988  0.1402
   90MOL   C32543223   7.364   3.979   2.810  0.0166 -0.1678  0.1436
   90MOL   C32643224   7.408   4.016   2.681 -0.2514 -0.7317  0.2442
   90MOL   C32743225   7.539   3.991   2.642  0.3760 -0.0298 -0.2715
   90MOL   C32843226   7.630   3.942   2.742 -0.3302 -0.3058  0.0916
   90MOL   O32943227   7.322   4.086   2.601 -0.2054 -0.0405  0.2922
   90MOL   H33043228   7.861   4.174   3.272 -0.8996  0.0965  0.6908
   90MOL   H33143229   7.850   4.031   3.070 -1.0715 -0.6626 -1.3186
   90MOL   H33243230   7.533   3.801   3.236 -0.9547  0.3571  0.4507
   90MOL   H33343231   7.558   3.923   3.454 -1.4040 -0.5849 -0.7650
   90MOL   H33443232   7.420   3.913   3.008 -1.9884  2.4562 -0.1594
   90MOL   H33543233   7.262   4.001   2.836 -0.0081  0.4387 -0.4571
   90MOL   H33643234   7.574   4.021   2.544 -1.9776  0.2336 -1.0720
   90MOL   H33743235   7.731   3.919   2.711 -0.6532  0.8537 -1.8690
   90MOL   C33843236   7.195   3.944   2.447  0.3915  0.1555  0.5240
   90MOL   C33943237   7.170   3.889   2.324 -0.6018  1.0339  0.1394
   90MOL   C34043238   7.264   3.910   2.217 -0.2413 -0.4546 -0.2881
   90MOL   C34143239   7.377   3.989   2.244 -0.5601  0.4732  0.3682
   90MOL   C34243240   7.391   4.059   2.364  0.5783 -0.1064 -0.5651
   90MOL   C34343241   7.304   4.036   2.474 -0.6774  0.4705  0.3995
   90MOL   S34443242   7.234   3.845   2.054 -0.6280  0.4449 -0.3564
   90MOL   O34543243   7.088   3.842   2.036 -0.0369 -0.4617  0.4012
   90MOL   O34643244   7.324   3.728   2.044  0.1019 -0.4127 -0.5893
   90MOL   C34743245   7.299   3.970   1.939  0.0295 -0.0632  0.3467
   90MOL   C34843246   7.226   4.090   1.922 -0.1862  0.3289  0.1764
   90MOL   C34943247   7.268   4.185   1.822 -0.0785 -0.0300  0.0250
   90MOL   C35043248   7.382   4.157   1.738  0.5456 -0.9664 -0.0531
   90MOL   C35143249   7.455   4.035   1.762 -0.2185  0.5127  1.0582
   90MOL   C35243250   7.416   3.949   1.866  0.4948  0.3427  0.3275
   90MOL   O35343251   7.411   4.247   1.633 -0.4457  0.0386 -0.1266
   90MOL   H35443252   7.135   3.912   2.530 -2.1128 -0.6839 -1.5504
   90MOL   H35543253   7.094   3.813   2.313 -0.4601  1.1299 -1.8352
   90MOL   H35643254   7.457   4.009   2.175 -0.5101  2.1145  0.8784
   90MOL   H35743255   7.476   4.126   2.369  1.4843 -1.2975  0.0870
   90MOL   H35843256   7.141   4.109   1.986  1.0829  1.1206  1.6792
   90MOL   H35943257   7.203   4.271   1.808  1.6348  1.2479 -0.2744
   90MOL   H36043258   7.541   4.019   1.700 -1.4667 -0.3013 -0.4999
   90MOL   H36143259   7.474   3.858   1.876  0.6580  0.3180 -0.7646
   90MOL   C36243260   7.326   4.171   1.426  0.3778 -0.0422 -0.3715
   90MOL   C36343261   7.358   4.128   1.295 -0.8545 -0.3304  0.0756
   90MOL   C36443262   7.491   4.113   1.246 -0.1939  0.0619 -0.1175
   90MOL   C36543263   7.597   4.149   1.331 -0.0763 -0.1160  0.5525
   90MOL   C36643264   7.571   4.180   1.464  0.8581  0.3073  0.0511
   90MOL   C36743265   7.437   4.198   1.514 -0.3816  0.8546  0.3071
   90MOL   S36843266   7.524   4.049   1.083 -0.5003  0.3302 -0.2907
   90MOL   O36943267   7.671   4.041   1.065 -0.1490 -0.3408 -0.1494
   90MOL   O37043268   7.447   4.141   1.000  0.0328 -0.0577  0.4037
   90MOL   C37143269   7.446   3.890   1.074  0.0537 -0.1748  0.1158
   90MOL   C37243270   7.516   3.774   1.101  0.9134  0.8217  0.1013
   90MOL   C37343271   7.455   3.645   1.097  0.0886 -0.5044 -0.2056
   90MOL   C37443272   7.321   3.636   1.051  0.6812  0.1658  0.0653
   90MOL   C37543273   7.254   3.758   1.031 -0.1547  0.0362 -0.7913
   90MOL   C37643274   7.311   3.884   1.038 -0.3304  0.0518 -0.2054
   90MOL   O37743275   7.247   3.518   1.043  0.8854  0.1279 -0.3824
   90MOL   H37843276   7.225   4.189   1.460  0.4047 -0.8464  0.1700
   90MOL   H37943277   7.295   4.100   1.213  0.7201  0.7664 -1.5501
   90MOL   H38043278   7.698   4.152   1.293 -0.1048  1.1526  0.5637
   90MOL   H38143279   7.649   4.191   1.538  0.6027 -0.2680  0.4169
   90MOL   H38243280   7.620   3.771   1.129  1.2046  3.0702 -0.6187
   90MOL   H38343281   7.507   3.555   1.123  0.2990 -0.2397  0.2953
   90MOL   H38443282   7.150   3.751   1.001 -1.0899  1.4527  1.9608
   90MOL   H38543283   7.257   3.976   1.019 -3.7325 -1.4946  1.4670
   90MOL   C38643284   7.216   3.390   1.234  0.2225  0.6319 -0.2614
   90MOL   C38743285   7.148   3.361   1.355  0.3595  0.3973  0.2072
   90MOL   C38843286   7.026   3.430   1.383  0.1421  0.2765 -0.3282
   90MOL   C38943287   6.976   3.529   1.298 -0.4247 -0.3963 -0.0429
   90MOL   C39043288   7.051   3.566   1.186  0.2736 -0.1044  0.1795
   90MOL   C39143289   7.172   3.496   1.154 -0.6826  0.3327  0.7877
   90MOL   S39243290   6.931   3.381   1.531 -0.4947  0.1970 -0.1650
   90MOL   O39343291   6.815   3.477   1.543 -0.0836 -0.9357  0.0603
   90MOL   O39443292   7.022   3.358   1.644 -0.4510 -0.3972 -0.0037
   90MOL   C39543293   6.867   3.229   1.480 -0.1389  0.1820 -0.0373
   90MOL   C39643294   6.752   3.232   1.399 -0.0080  1.2994  0.4272
   90MOL   C39743295   6.715   3.106   1.342  0.7267  0.4367 -0.3543
   90MOL   C39843296   6.791   2.991   1.362 -0.1959  0.2288 -0.0958
   90MOL   C39943297   6.905   2.999   1.439  0.6982 -0.0843  0.4470
   90MOL   C40043298   6.947   3.118   1.499  0.4407 -0.3435 -1.0155
   90MOL   O40143299   6.771   2.886   1.279  0.5235  0.1428 -0.1874
   90MOL   H40243300   7.308   3.337   1.214  1.5621  1.9624  2.0890
   90MOL   H40343301   7.185   3.284   1.421 -1.4937 -1.5225 -0.9085
   90MOL   H40443302   6.882   3.581   1.309 -0.5221 -0.6772  0.4505
   90MOL   H40543303   7.006   3.638   1.120  2.6221  0.3589 -0.9640
   90MOL   H40643304   6.699   3.321   1.368 -1.0945  0.5379  0.0566
   90MOL   H40743305   6.639   3.104   1.266 -0.8289  0.5848  1.1556
   90MOL   H40843306   6.978   2.920   1.443  1.9642  1.0763  0.5305
   90MOL   H40943307   7.038   3.113   1.558  1.2697  0.1912 -2.2276
   90MOL   C41043308   6.622   2.732   1.382 -0.3819  0.4301 -0.4501
   90MOL   C41143309   6.600   2.597   1.418  0.5698 -0.3301  0.0208
   90MOL   C41243310   6.702   2.504   1.419 -0.5612  0.8720 -0.3854
   90MOL   C41343311   6.828   2.545   1.385  0.6563 -0.3876 -0.4175
   90MOL   C41443312   6.855   2.672   1.340 -0.4709 -0.0365  0.0847
   90MOL   C41543313   6.750   2.769   1.332  0.6630 -0.3846  0.1910
   90MOL   S41643314   6.688   2.332   1.478  0.1475  0.0460 -0.3309
   90MOL   O41743315   6.736   2.238   1.375 -0.4901 -0.1031 -0.4080
   90MOL   O41843316   6.558   2.311   1.545  0.4755  0.1260 -0.4460
   90MOL   C41943317   6.808   2.329   1.613  0.4388  0.2150  0.5338
   90MOL   C42043318   6.913   2.241   1.607  0.2008  0.3442  0.2940
   90MOL   C42143319   7.011   2.233   1.709  0.5249  0.8243  0.2915
   90MOL   C42243320   7.010   2.323   1.812 -0.0115 -0.0164  0.1469
   90MOL   C42343321   6.899   2.410   1.822 -0.1480  0.1662  0.0593
   90MOL   C42443322   6.801   2.411   1.726  0.4579 -0.2068 -0.3509
   90MOL   O42543323   7.104   2.322   1.917 -0.4532 -0.4024  0.1936
   90MOL   H42643324   6.539   2.801   1.372  0.3179  0.9959 -2.4897
   90MOL   H42743325   6.498   2.579   1.446  1.2284 -2.3493  1.2484
   90MOL   H42843326   6.904   2.468   1.374  0.7314 -0.3933  0.1048
   90MOL   H42943327   6.951   2.694   1.295  1.4251 -3.3215  2.2635
   90MOL   H43043328   6.920   2.170   1.526 -0.3446  0.2162  0.3549
   90MOL   H43143329   7.099   2.172   1.693  1.0406  2.0534 -1.7270
   90MOL   H43243330   6.887   2.457   1.918 -0.9324  0.3343 -0.1190
   90MOL   H43343331   6.712   2.469   1.746  0.4425 -0.3223 -0.0850
   90MOL   C43443332   7.217   2.536   1.926 -0.2870  0.1729 -0.5361
   90MOL   C43543333   7.336   2.615   1.923 -0.6754  0.2993 -0.4465
   90MOL   C43643334   7.450   2.552   1.878  0.2680 -0.1723  0.6216
   90MOL   C43743335   7.447   2.418   1.833 -0.5811  0.2253 -0.0361
   90MOL   C43843336   7.338   2.337   1.838  0.5526 -0.9859 -0.9121
   90MOL   C43943337   7.219   2.393   1.891  0.0010 -0.6004 -0.0999
   90MOL   S44043338   7.605   2.639   1.868 -0.0104  0.1797 -0.0162
   90MOL   O44143339   7.676   2.607   1.993 -0.0672  0.0347 -0.1107
   90MOL   O44243340   7.574   2.779   1.836 -0.8645  0.1155  0.0106
   90MOL   C44343341   7.701   2.570   1.730  0.7249  0.3155 -0.2396
   90MOL   C44443342   7.692   2.630   1.604  0.4221 -0.2828  0.5681
   90MOL   C44543343   7.745   2.552   1.504 -0.4320 -0.0420  0.0745
   90MOL   C44643344   7.823   2.434   1.523  0.3075 -0.2117 -0.3191
   90MOL   C44743345   7.848   2.391   1.656  0.4643  0.4268  0.1634
   90MOL   C44843346   7.780   2.462   1.760  0.0487 -0.2801 -0.4923
   90MOL   O44943347   7.888   2.367   1.419 -0.1888 -1.2227  0.6801
   90MOL   H45043348   7.121   2.569   1.961  0.0216  0.0017  0.5099
   90MOL   H45143349   7.326   2.720   1.950 -2.9828  0.2501 -0.9647
   90MOL   H45243350   7.539   2.384   1.786 -1.1864 -2.4618  0.6465
   90MOL   H45343351   7.335   2.238   1.795  0.5752 -2.0080  1.3668
   90MOL   H45443352   7.637   2.722   1.592 -0.9000 -0.8815  1.9427
   90MOL   H45543353   7.726   2.585   1.402 -1.5282 -0.7120  0.0614
   90MOL   H45643354   7.906   2.308   1.693  2.0723  2.1517  1.6662
   90MOL   H45743355   7.785   2.420   1.859 -0.8001  1.1134  0.1558
   90MOL   C45843356   7.865   2.133   1.385 -0.7531 -0.1128 -0.2884
   90MOL   C45943357   7.791   2.024   1.339 -0.2162  0.0780  0.1673
   90MOL   C46043358   7.662   2.042   1.291 -0.5835  0.0180  0.0767
   90MOL   C46143359   7.607   2.171   1.291 -0.1130  0.0142 -0.1404
   90MOL   C46243360   7.691   2.282   1.325 -0.2090  1.4538  0.3194
   90MOL   C46343361   7.819   2.263   1.371  0.7991 -0.0868  0.0115
   90MOL   S46443362   7.555   1.915   1.224  0.1304  0.0103  0.1004
   90MOL   O46543363   7.639   1.862   1.116  0.6003  0.0227 -0.2234
   90MOL   O46643364   7.419   1.970   1.196  0.3257 -0.0162  0.4074
   90MOL   C46743365   7.536   1.793   1.347  0.0052 -0.3775  0.1206
   90MOL   C46843366   7.430   1.780   1.436  0.6336  0.0184  0.1252
   90MOL   C46943367   7.430   1.675   1.535  1.3426  0.5579  0.6022
   90MOL   C47043368   7.540   1.582   1.537  1.3562  0.1182 -0.0420
   90MOL   C47143369   7.648   1.597   1.451 -0.2417  0.0350 -0.7327
   90MOL   C47243370   7.644   1.701   1.357 -0.2616 -0.3387  0.2502
   90MOL   O47343371   7.528   1.481   1.625  0.5589  0.1320 -0.4541
   90MOL   H47443372   7.962   2.103   1.422 -0.4430  0.0830 -0.9293
   90MOL   H47543373   7.817   1.921   1.355 -2.1457 -0.3107  0.9984
   90MOL   H47643374   7.506   2.192   1.259 -0.3997 -0.3239  0.5501
   90MOL   H47743375   7.645   2.380   1.318 -3.2621  0.0700  0.2052
   90MOL   H47843376   7.343   1.844   1.429  0.3333 -0.4964 -0.7877
   90MOL   H47943377   7.342   1.656   1.595  0.5836  1.2101 -0.2981
   90MOL   H48043378   7.725   1.522   1.457 -0.0816 -0.1936 -4.6534
   90MOL   H48143379   7.728   1.700   1.289 -0.0796 -1.7401  0.4880
   90MOL   H48243380   7.555   1.402   1.582  1.3258  0.5212 -0.6918
   91MOL     C143381   7.642   1.381   4.809  0.3596  0.2868  0.3544
   91MOL     C243382   7.588   1.419   4.935 -0.8820  0.2839 -0.2926
   91MOL     C343383   7.584   1.330   5.044 -0.4365  0.4037  0.0253
   91MOL     C443384   7.640   1.200   5.028  0.0533  0.2077  0.0060
   91MOL     C543385   7.697   1.164   4.903 -0.1188 -0.1045 -0.4801
   91MOL     C643386   7.694   1.255   4.793 -0.2494 -0.2016  0.6334
   91MOL     S743387   7.518   1.387   5.197  0.0941  0.4978 -0.1326
   91MOL     O843388   7.533   1.532   5.203  0.7134 -0.0783 -0.4668
   91MOL     O943389   7.578   1.307   5.307  0.7531 -0.3075 -0.0620
   91MOL    C1043390   7.343   1.354   5.171  0.0087  0.1734 -0.5326
   91MOL    C1143391   7.301   1.250   5.091  0.0551 -0.0347 -0.6281
   91MOL    C1243392   7.163   1.214   5.082  0.1414 -0.3976  0.0631
   91MOL    C1343393   7.073   1.298   5.138  0.3293 -0.1354 -0.5966
   91MOL    C1443394   7.112   1.403   5.219  0.4243 -0.2050  0.3832
   91MOL    C1543395   7.246   1.428   5.244 -0.1160 -0.7850  0.7852
   91MOL    O1643396   6.941   1.281   5.114 -0.1631  0.8266 -0.3614
   91MOL    H1743397   7.654   1.448   4.725 -0.3654 -0.0263 -0.0012
   91MOL    H1843398   7.553   1.520   4.947  2.5195  1.5013 -0.0003
   91MOL    H1943399   7.653   1.130   5.109  1.1706  1.5051  0.9748
   91MOL    H2043400   7.743   1.066   4.893 -1.8104 -0.9823  0.0727
   91MOL    H2143401   7.372   1.186   5.041 -1.0610 -2.1136  0.3375
   91MOL    H2243402   7.142   1.129   5.019  0.5191 -2.0879  2.1513
   91MOL    H2343403   7.031   1.462   5.258 -1.8831 -0.8905 -3.1258
   91MOL    H2443404   7.265   1.515   5.305 -0.2696  0.3597 -0.7738
   91MOL    H2543405   7.736   1.227   4.698  0.7802  1.5826  0.5604
   91MOL    C2643406   6.850   1.123   5.269 -0.6898  0.5296 -0.0244
   91MOL    C2743407   6.755   1.081   5.366  0.2621  0.4749 -0.8350
   91MOL    C2843408   6.663   1.180   5.413  0.2767 -0.3749 -0.4508
   91MOL    C2943409   6.678   1.308   5.360 -0.6144 -0.1595 -0.6670
   91MOL    C3043410   6.768   1.348   5.268 -0.4432 -0.2726 -0.0029
   91MOL    C3143411   6.856   1.251   5.218 -0.4978  0.2321 -0.5195
   91MOL    S3243412   6.530   1.129   5.509  0.0512  0.0564 -0.1778
   91MOL    O3343413   6.459   1.248   5.548  0.4638 -0.3641  0.5334
   91MOL    O3443414   6.584   1.043   5.613  0.6895  0.1968  0.5218
   91MOL    C3543415   6.423   1.039   5.400  0.1661  0.3897 -0.4787
   91MOL    C3643416   6.445   0.898   5.388 -0.3425 -0.8572  0.7052
   91MOL    C3743417   6.369   0.824   5.297  0.1645 -0.0782 -0.2784
   91MOL    C3843418   6.255   0.882   5.241  0.1969  0.3478 -0.3299
   91MOL    C3943419   6.215   1.014   5.273  0.9377 -0.7462 -0.2438
   91MOL    C4043420   6.301   1.095   5.353  0.2108  0.3146 -0.1701
   91MOL    O4143421   6.173   0.806   5.162  0.0100 -0.1852  0.1812
   91MOL    H4243422   6.916   1.049   5.227 -0.8612 -0.3741  1.2642
   91MOL    H4343423   6.752   0.979   5.400 -1.4229  1.4646  2.2504
   91MOL    H4443424   6.612   1.373   5.417 -1.3482 -1.7153  0.2992
   91MOL    H4543425   6.762   1.449   5.232  3.8122  0.1300  0.1459
   91MOL    H4643426   6.529   0.854   5.440  0.8181 -1.2692 -1.4389
   91MOL    H4743427   6.381   0.717   5.286  2.0213 -0.0812  1.4212
   91MOL    H4843428   6.119   1.053   5.242  1.6734 -1.2278 -3.3647
   91MOL    H4943429   6.280   1.197   5.380  0.2097  0.2471  0.0829
   91MOL    C5043430   6.287   0.787   4.949 -0.0157 -0.0723  0.2115
   91MOL    C5143431   6.276   0.772   4.809 -0.3150  0.2727 -0.0385
   91MOL    C5243432   6.157   0.799   4.741  0.0859  0.3892 -0.2251
   91MOL    C5343433   6.043   0.827   4.821 -0.2081  1.2578  0.7309
   91MOL    C5443434   6.048   0.842   4.958 -0.5429  0.0529 -0.7340
   91MOL    C5543435   6.172   0.810   5.025  0.0172 -0.9670  0.1232
   91MOL    S5643436   6.148   0.779   4.562 -0.3084  0.0689 -0.2004
   91MOL    O5743437   6.267   0.701   4.521 -0.0873 -0.2789  0.2065
   91MOL    O5843438   6.128   0.920   4.517  0.0794  0.1006  0.4991
   91MOL    C5943439   6.003   0.685   4.523 -0.2814  0.1938 -0.0329
   91MOL    C6043440   6.014   0.548   4.517 -0.2217  0.5140 -0.3378
   91MOL    C6143441   5.916   0.462   4.470  0.0468 -0.5726  0.3119
   91MOL    C6243442   5.794   0.522   4.422 -0.6383  0.4166 -0.2174
   91MOL    C6343443   5.784   0.664   4.425 -0.1780  0.7595 -0.0187
   91MOL    C6443444   5.890   0.740   4.472  0.0113  0.3361  0.1347
   91MOL    O6543445   5.691   0.452   4.361  0.1947  0.7024  0.5561
   91MOL    H6643446   6.384   0.779   4.997  0.7897 -2.4048 -1.7289
   91MOL    H6743447   6.365   0.747   4.755  0.0858  0.6565  0.4375
   91MOL    H6843448   5.950   0.847   4.769  1.4078 -1.2259 -3.3197
   91MOL    H6943449   5.958   0.853   5.015 -0.6003  1.4072 -1.0744
   91MOL    H7043450   6.103   0.496   4.550 -0.7993 -0.3105 -0.0591
   91MOL    H7143451   5.925   0.355   4.474  0.9257 -0.5062  0.2733
   91MOL    H7243452   5.692   0.706   4.388 -0.6837 -2.1256 -2.2080
   91MOL    H7343453   5.885   0.848   4.468  2.3230  0.4376 -0.9995
   91MOL    C7443454   5.617   0.365   4.574  0.2451  0.0345  0.4386
   91MOL    C7543455   5.545   0.263   4.643  0.0840  0.0076  0.2099
   91MOL    C7643456   5.488   0.158   4.570 -0.3409  0.1086  0.1499
   91MOL    C7743457   5.478   0.161   4.430 -0.2728 -0.5614 -0.2583
   91MOL    C7843458   5.542   0.261   4.361 -0.5415 -0.0523 -0.4291
   91MOL    C7943459   5.617   0.360   4.432  0.3227 -0.3244  0.2819
   91MOL    S8043460   5.434   0.010   4.651  0.1478 -0.1580  0.1324
   91MOL    O8143461   5.356   8.362   4.551 -0.2284 -0.6618 -0.2112
   91MOL    O8243462   5.380   0.060   4.782  0.6176  0.1103  0.0946
   91MOL    C8343463   5.586   8.340   4.674  0.0894 -0.1464  0.0369
   91MOL    C8443464   5.644   8.345   4.797  0.1462 -1.2930 -0.0505
   91MOL    C8543465   5.770   8.276   4.814 -0.5858  0.0981 -0.4588
   91MOL    C8643466   5.835   8.223   4.696 -0.1050 -0.1466  0.9264
   91MOL    C8743467   5.773   8.220   4.567 -0.1409 -0.5102 -0.2053
   91MOL    C8843468   5.648   8.281   4.562  0.5580 -0.4018 -0.1620
   91MOL    O8943469   5.960   8.170   4.704  0.2179  0.6971  0.6861
   91MOL    H9043470   5.648   0.451   4.632  1.8059 -1.8959  2.5953
   91MOL    H9143471   5.551   0.258   4.751  1.1501 -2.3156  0.0574
   91MOL    H9243472   5.417   0.088   4.379  0.2861 -2.3378  1.5568
   91MOL    H9343473   5.549   0.259   4.253 -0.3967  2.0556 -0.4697
   91MOL    H9443474   5.600   8.407   4.874  3.4246  2.9183 -1.3360
   91MOL    H9543475   5.823   8.274   4.908  2.3143  2.1811 -1.9424
   91MOL    H9643476   5.828   8.177   4.485  2.7345 -1.4179  2.1077
   91MOL    H9743477   5.612   8.281   4.460  0.7433 -1.7317 -0.2344
   91MOL    C9843478   6.126   8.002   4.666 -0.0833  0.0307  0.0490
   91MOL    C9943479   6.165   7.869   4.658  0.2079 -0.4643  0.2884
   91MOL   C10043480   6.068   7.770   4.686 -0.5660  0.3904 -0.6234
   91MOL   C10143481   5.942   7.804   4.731  0.0556 -0.7487 -0.5184
   91MOL   C10243482   5.899   7.939   4.744 -0.2076  0.8701 -0.0668
   91MOL   C10343483   5.993   8.038   4.705 -0.4909  0.1507 -0.1016
   91MOL   S10443484   6.104   7.597   4.680  0.0110 -0.1951  0.0340
   91MOL   O10543485   5.984   7.527   4.726  0.2227  0.6658 -0.3621
   91MOL   O10643486   6.232   7.575   4.752  0.4497  0.5139  0.2805
   91MOL   C10743487   6.134   7.559   4.508  0.2926  0.1897  0.3148
   91MOL   C10843488   6.187   7.431   4.474 -0.3353 -0.8399 -0.6523
   91MOL   C10943489   6.198   7.404   4.338 -0.3213 -0.0738  0.1627
   91MOL   C11043490   6.152   7.492   4.238  0.3610 -0.8033  0.1677
   91MOL   C11143491   6.106   7.622   4.274  0.7086  0.3224  0.1453
   91MOL   C11243492   6.096   7.654   4.414 -0.3713  0.0683 -0.3233
   91MOL   O11343493   6.150   7.449   4.112  1.1490  0.8986  0.1928
   91MOL   H11443494   6.184   8.086   4.633  0.5637 -0.6264 -0.5195
   91MOL   H11543495   6.254   7.847   4.601  1.2876  3.1684  0.4120
   91MOL   H11643496   5.878   7.720   4.753  2.5814 -3.1721 -1.9977
   91MOL   H11743497   5.803   7.969   4.782  0.1259  1.5169  0.2899
   91MOL   H11843498   6.209   7.356   4.549 -0.8303  0.5051  0.8596
   91MOL   H11943499   6.236   7.308   4.308 -0.0244 -0.5187  1.9183
   91MOL   H12043500   6.059   7.693   4.207  0.5406  0.1323  0.0616
   91MOL   H12143501   6.062   7.751   4.450 -0.0203 -0.2170  0.8017
   91MOL   C12243502   6.117   7.572   3.916  0.1318  0.6234 -0.3583
   91MOL   C12343503   6.030   7.623   3.820 -0.1651 -0.1258  0.1890
   91MOL   C12443504   5.891   7.609   3.826 -0.6784 -0.6855  0.3536
   91MOL   C12543505   5.833   7.544   3.941 -0.0399  0.6758  0.7401
   91MOL   C12643506   5.921   7.484   4.032 -0.1514  0.0805  0.2433
   91MOL   C12743507   6.061   7.499   4.023 -0.2324 -0.2742  0.3433
   91MOL   S12843508   5.795   7.671   3.688  0.0692  0.0440  0.5600
   91MOL   O12943509   5.712   7.563   3.638 -0.2518 -0.2042 -0.5085
   91MOL   O13043510   5.878   7.745   3.601  0.2717 -0.2212 -0.6984
   91MOL   C13143511   5.676   7.796   3.745  0.2568 -0.0379 -0.0752
   91MOL   C13243512   5.569   7.759   3.833  0.0343 -0.2948  0.1890
   91MOL   C13343513   5.474   7.853   3.871  0.0095  0.0586  0.2960
   91MOL   C13443514   5.496   7.990   3.833  0.3544  0.2337 -0.2789
   91MOL   C13543515   5.604   8.028   3.748 -0.6523  0.2124 -0.6950
   91MOL   C13643516   5.704   7.935   3.716  0.5955 -0.0858  0.5558
   91MOL   O13743517   5.402   8.082   3.859  0.3719 -0.2026  0.0645
   91MOL   H13843518   6.224   7.585   3.914  0.1087  0.7970 -0.4318
   91MOL   H13943519   6.079   7.678   3.741  0.9489  0.7152  1.4411
   91MOL   H14043520   5.726   7.532   3.945 -0.3178  2.5424 -0.4278
   91MOL   H14143521   5.874   7.431   4.113 -0.0326 -0.9689 -0.3665
   91MOL   H14243522   5.558   7.654   3.856 -2.3588 -0.2030 -0.3520
   91MOL   H14343523   5.383   7.809   3.910  0.9311 -1.8023  0.3923
   91MOL   H14443524   5.605   8.128   3.707 -1.3997  0.6391  0.3017
   91MOL   H14543525   5.795   7.965   3.666  0.1782 -1.7236 -1.2587
   91MOL   C14643526   5.267   8.152   3.673  0.7172 -0.0867  0.2162
   91MOL   C14743527   5.208   8.261   3.607  0.4760  0.1528 -0.2113
   91MOL   C14843528   5.249   8.385   3.624 -0.3384  0.0941 -0.0694
   91MOL   C14943529   5.354   8.418   3.716 -0.7926  0.5292 -0.3736
   91MOL   C15043530   5.402   8.311   3.792 -0.6194  0.1189 -0.2140
   91MOL   C15143531   5.368   8.178   3.768  1.2757 -0.9289  0.4187
   91MOL   S15243532   5.172   0.099   3.526 -0.3996 -0.0262 -0.1570
   91MOL   O15343533   5.142   0.058   3.389 -0.3243  0.0528 -0.4104
   91MOL   O15443534   5.245   0.224   3.555 -0.2372 -0.3887  0.5632
   91MOL   C15543535   5.010   0.120   3.613 -0.4977  0.0967 -0.1351
   91MOL   C15643536   4.989   0.225   3.703 -0.0290  0.1888  0.2036
   91MOL   C15743537   4.863   0.243   3.761 -0.6112  0.5230 -0.3300
   91MOL   C15843538   4.754   0.160   3.728  0.0870 -0.9711 -0.4176
   91MOL   C15943539   4.769   0.069   3.631  0.3019 -0.1544  0.7132
   91MOL   C16043540   4.896   0.047   3.569  0.2209 -0.0386 -0.5595
   91MOL   O16143541   4.638   0.172   3.804 -0.3293 -0.0843 -0.2460
   91MOL   H16243542   5.224   8.056   3.648  0.3650  0.8345 -2.8808
   91MOL   H16343543   5.142   8.245   3.523  0.0411 -1.2646  0.3712
   91MOL   H16443544   5.385   0.095   3.730  1.3246 -0.1472  0.0846
   91MOL   H16543545   5.470   8.330   3.874 -1.4181  0.4566  0.3745
   91MOL   H16643546   5.070   0.291   3.728  0.2808  0.8756 -2.5029
   91MOL   H16743547   4.857   0.324   3.831 -0.5129  0.6119 -0.4236
   91MOL   H16843548   4.690   8.424   3.606  0.2209  0.7355 -1.7058
   91MOL   H16943549   4.910   8.405   3.486  1.3353  0.9874 -1.2274
   91MOL   C17043550   4.514   8.409   3.874 -0.4134 -0.1133  0.6948
   91MOL   C17143551   4.497   8.321   3.980  0.0383 -0.5048  0.3613
   91MOL   C17243552   4.580   8.308   4.091 -0.2593 -0.7529 -0.4651
   91MOL   C17343553   4.682   8.401   4.108 -0.5872  0.4798 -0.5202
   91MOL   C17443554   4.700   0.070   4.011 -0.5032 -0.1211  0.5651
   91MOL   C17543555   4.621   0.074   3.895 -1.0189 -0.4293  0.2589
   91MOL   S17643556   4.551   8.187   4.224 -0.0142  0.6277 -0.0157
   91MOL   O17743557   4.679   8.151   4.284  0.0989 -0.0969 -0.2797
   91MOL   O17843558   4.456   8.084   4.178  0.5904 -0.3518 -0.2262
   91MOL   C17943559   4.462   8.282   4.344 -0.3031 -0.5116 -0.7715
   91MOL   C18043560   4.337   8.241   4.388 -0.4334  0.0261 -0.5066
   91MOL   C18143561   4.275   8.310   4.498  0.4189 -0.1594 -0.1770
   91MOL   C18243562   4.345   8.412   4.560  0.2829 -0.0205  0.3581
   91MOL   C18343563   4.463   0.035   4.504  0.3077  0.2285  0.1933
   91MOL   C18443564   4.527   8.397   4.396 -0.7317  0.1063  0.2787
   91MOL   O18543565   4.296   0.046   4.676  0.0585  0.2373  0.1446
   91MOL   H18643566   4.453   8.413   3.785  1.9519 -1.5385 -1.0504
   91MOL   H18743567   4.416   8.252   3.966 -0.5140  0.1570  0.2669
   91MOL   H18843568   4.748   8.402   4.193  0.1098  2.6198 -1.0476
   91MOL   H18943569   4.770   0.150   4.028  0.5100 -0.5802 -1.3699
   91MOL   H19043570   4.289   8.151   4.351 -1.0873  0.3173 -0.3796
   91MOL   H19143571   4.184   8.269   4.541  0.9813 -0.9251  0.3007
   91MOL   H19243572   4.509   0.124   4.545  0.9306  0.4240 -0.9214
   91MOL   H19343573   4.629   8.424   4.372 -0.9921 -0.0490 -1.0646
   91MOL   C19443574   4.421   0.213   4.795 -0.2373 -0.6992  0.3335
   91MOL   C19543575   4.521   0.253   4.885 -0.0339  0.6995  0.3489
   91MOL   C19643576   4.582   0.154   4.962 -0.0488 -0.7860  0.5137
   91MOL   C19743577   4.555   0.023   4.943  0.4988 -0.3891  0.1990
   91MOL   C19843578   4.460   8.405   4.840  0.2026 -0.4861  0.1683
   91MOL   C19943579   4.387   0.079   4.775  0.1741  0.6450 -0.1106
   91MOL   S20043580   4.716   0.200   5.068  0.0398  0.1531 -0.0078
   91MOL   O20143581   4.813   0.095   5.066  0.5460  0.3094  0.0226
   91MOL   O20243582   4.651   0.228   5.202  0.2407  0.8853 -0.4376
   91MOL   C20343583   4.792   0.359   5.012 -0.5090 -0.1049  0.1652
   91MOL   C20443584   4.815   0.468   5.101  0.0306  0.8749  0.3754
   91MOL   C20543585   4.887   0.576   5.048 -0.0560  0.5894  0.5262
   91MOL   C20643586   4.937   0.578   4.912  0.0998 -0.1308 -0.0471
   91MOL   C20743587   4.910   0.471   4.826  0.9028  0.5157 -0.1737
   91MOL   C20843588   4.837   0.361   4.873  0.9264 -0.4370  0.0030
   91MOL   O20943589   5.019   0.681   4.870  1.0533  0.2486  0.0970
   91MOL   H21043590   4.370   0.286   4.734 -0.1966  0.2489  1.4136
   91MOL   H21143591   4.530   0.358   4.908  2.8994  0.5544  0.0342
   91MOL   H21243592   4.613   8.377   5.000  0.5086 -0.6719 -0.1571
   91MOL   H21343593   4.444   8.300   4.817 -0.5620 -0.2392 -0.4192
   91MOL   H21443594   4.764   0.463   5.197  0.6587 -0.7500  0.6482
   91MOL   H21543595   4.908   0.655   5.119 -2.2051 -0.8300  2.8133
   91MOL   H21643596   4.938   0.462   4.722 -2.1371  0.0735 -0.9955
   91MOL   H21743597   4.821   0.272   4.815 -1.3562  1.2031 -1.9537
   91MOL   C21843598   4.839   0.828   4.810  0.0498 -0.2178 -0.3191
   91MOL   C21943599   4.771   0.952   4.821  0.1498  0.8624  0.1018
   91MOL   C22043600   4.834   1.052   4.897  0.2669  0.7806  0.1079
   91MOL   C22143601   4.958   1.027   4.957  0.5618  0.4626  0.1183
   91MOL   C22243602   5.017   0.900   4.962 -0.4265  0.0292 -0.4332
   91MOL   C22343603   4.953   0.804   4.880 -0.7250 -0.7834 -0.2878
   91MOL   S22443604   4.767   1.209   4.902  0.7902  0.6653  0.1887
   91MOL   O22543605   4.623   1.189   4.888  0.3921  0.0987 -0.9653
   91MOL   O22643606   4.852   1.285   4.804  0.3621 -0.3295  0.3418
   91MOL   C22743607   4.798   1.260   5.065  0.0779  0.1981  0.0118
   91MOL   C22843608   4.704   1.224   5.168 -0.2733  0.4174  0.2302
   91MOL   C22943609   4.734   1.245   5.302  0.5694  0.4363  0.3061
   91MOL   C23043610   4.857   1.313   5.344  0.5327 -0.1593 -0.7235
   91MOL   C23143611   4.947   1.347   5.241 -0.3471 -0.1899  0.0563
   91MOL   C23243612   4.920   1.319   5.107 -0.7127 -0.4081  0.6847
   91MOL   O23343613   4.882   1.336   5.476 -0.0513 -0.1502 -0.0821
   91MOL   H23443614   4.799   0.748   4.750 -0.5748 -0.3979  0.3238
   91MOL   H23543615   4.670   0.956   4.784  0.5486  0.2805 -1.0533
   91MOL   H23643616   5.002   1.117   4.998  0.1490  0.5120  0.4600
   91MOL   H23743617   5.112   0.884   5.009 -0.2815  1.0959 -0.3510
   91MOL   H23843618   4.620   1.162   5.139  1.7025 -0.9955 -2.7559
   91MOL   H23943619   4.676   1.198   5.380  1.2564 -1.1268 -0.1065
   91MOL   H24043620   5.038   1.401   5.261  0.6573 -1.3917 -1.1379
   91MOL   H24143621   5.000   1.348   5.040 -1.4529 -1.5193 -0.6903
   91MOL   C24243622   5.049   1.236   5.606  0.2203 -0.0776 -0.4202
   91MOL   C24343623   5.182   1.239   5.657  0.0425  0.3737 -0.5604
   91MOL   C24443624   5.264   1.344   5.625 -0.2615 -0.2256 -0.4714
   91MOL   C24543625   5.215   1.456   5.558  0.1396  0.0720  0.4839
   91MOL   C24643626   5.081   1.463   5.508  0.4383  0.7937  0.1971
   91MOL   C24743627   5.006   1.345   5.526  0.4890  0.3922 -0.1485
   91MOL   S24843628   5.446   1.347   5.669 -0.0974 -0.1362 -0.2148
   91MOL   O24943629   5.476   1.229   5.754 -0.1126 -0.7452  0.4193
   91MOL   O25043630   5.479   1.480   5.723  0.5095 -0.1559  0.2100
   91MOL   C25143631   5.532   1.314   5.521  0.2923 -0.1660  0.0722
   91MOL   C25243632   5.509   1.194   5.448  0.3131  0.3785 -0.2160
   91MOL   C25343633   5.592   1.166   5.336 -0.1907  0.1527  0.0360
   91MOL   C25443634   5.677   1.262   5.285 -0.4777 -0.5132  0.0270
   91MOL   C25543635   5.695   1.381   5.355 -0.7145 -0.2306  0.7382
   91MOL   C25643636   5.620   1.416   5.468 -0.0787  0.3237 -0.0154
   91MOL   O25743637   5.764   1.234   5.182 -0.2747  0.1731  0.7646
   91MOL   H25843638   4.979   1.153   5.613 -0.6826  0.5463 -1.8852
   91MOL   H25943639   5.219   1.151   5.707 -1.1517 -0.1503 -0.5935
   91MOL   H26043640   5.287   1.532   5.529 -0.5916  0.7710  0.4990
   91MOL   H26143641   5.051   1.546   5.446  0.2069 -0.3538 -1.2409
   91MOL   H26243642   5.435   1.126   5.488 -0.0236  0.9210  0.0861
   91MOL   H26343643   5.600   1.070   5.287 -1.5187  1.0082 -1.9249
   91MOL   H26443644   5.761   1.456   5.312 -0.7386  0.9778  2.7212
   91MOL   H26543645   5.628   1.509   5.522 -1.0434  2.2304 -3.0700
   91MOL   C26643646   5.726   1.032   5.059  0.0917  0.1331  0.4107
   91MOL   C26743647   5.708   0.961   4.941  0.2051  0.5496  0.1714
   91MOL   C26843648   5.666   1.032   4.825 -0.2805  0.0895 -0.6033
   91MOL   C26943649   5.648   1.170   4.832 -0.1332 -0.2006  0.3163
   91MOL   C27043650   5.686   1.245   4.948 -0.3376  0.1498 -0.3844
   91MOL   C27143651   5.720   1.174   5.064 -0.5283  0.2570 -0.4774
   91MOL   S27243652   5.660   0.953   4.671  0.3067 -0.4281  0.1487
   91MOL   O27343653   5.684   0.809   4.689 -0.1945 -0.1654  0.1471
   91MOL   O27443654   5.746   1.026   4.569 -0.7447 -0.3872 -0.0375
   91MOL   C27543655   5.489   0.971   4.607  0.0088  0.0605 -0.0421
   91MOL   C27643656   5.468   0.967   4.470 -0.2121 -1.1155  0.4030
   91MOL   C27743657   5.337   0.987   4.411  0.1865 -0.1291 -0.4402
   91MOL   C27843658   5.231   1.007   4.501 -0.8881 -0.0854  0.2346
   91MOL   C27943659   5.258   1.021   4.642 -0.0144  0.3448 -0.2789
   91MOL   C28043660   5.388   1.000   4.697 -0.2551 -0.4378  0.2019
   91MOL   O28143661   5.099   1.024   4.468 -0.2318 -0.6666  0.0318
   91MOL   H28243662   5.752   0.967   5.141  1.3607 -2.4718 -1.9895
   91MOL   H28343663   5.709   0.853   4.940 -2.8767  0.4699  1.1435
   91MOL   H28443664   5.621   1.219   4.739  1.7362 -1.4917 -0.9561
   91MOL   H28543665   5.685   1.352   4.963 -3.6601  0.4111 -1.8933
   91MOL   H28643666   5.555   0.951   4.409  0.1207 -0.9889  0.8473
   91MOL   H28743667   5.323   0.986   4.304 -2.1358  1.8294 -0.1845
   91MOL   H28843668   5.178   1.044   4.710 -1.2370 -0.2998 -1.4567
   91MOL   H28943669   5.407   1.005   4.803 -0.7576  0.0397  0.2746
   91MOL   C29043670   5.034   1.035   4.239 -0.4530  0.0231  0.0440
   91MOL   C29143671   5.002   1.108   4.125 -0.3719  0.3960  0.3049
   91MOL   C29243672   4.972   1.246   4.136  0.8035  0.0729 -0.6187
   91MOL   C29343673   4.984   1.308   4.270  0.2157 -0.0062 -0.2380
   91MOL   C29443674   5.027   1.231   4.378 -0.0780  0.5756  0.0718
   91MOL   C29543675   5.055   1.098   4.363  0.2702  0.0243 -0.4668
   91MOL   S29643676   4.902   1.337   3.994  0.3045  0.0059  0.1565
   91MOL   O29743677   4.921   1.275   3.866  0.0992  0.7636  0.0455
   91MOL   O29843678   4.959   1.470   4.009 -0.0875 -0.0649  0.4944
   91MOL   C29943679   4.723   1.352   4.030 -0.2303  0.5436  0.5036
   91MOL   C30043680   4.680   1.434   4.135 -0.0037 -0.2263 -0.0435
   91MOL   C30143681   4.546   1.465   4.160  0.0569  0.5068  0.4514
   91MOL   C30243682   4.455   1.396   4.080  0.4112  0.0250  0.6889
   91MOL   C30343683   4.492   1.309   3.978 -0.0619 -0.3554  0.0936
   91MOL   C30443684   4.627   1.283   3.953 -0.0171 -0.1894  0.6479
   91MOL   O30543685   4.318   1.411   4.089 -0.2837  0.3521 -0.7077
   91MOL   H30643686   5.060   0.931   4.229  0.3808  0.3548 -1.4393
   91MOL   H30743687   4.991   1.064   4.027  1.4772  1.7685 -0.5455
   91MOL   H30843688   4.970   1.414   4.283  0.0344 -0.3395  2.6465
   91MOL   H30943689   5.038   1.276   4.476 -1.9051  1.9699 -0.3449
   91MOL   H31043690   4.751   1.468   4.208 -0.0523 -0.0481 -0.0804
   91MOL   H31143691   4.518   1.526   4.245 -0.4038 -1.0540  1.4448
   91MOL   H31243692   4.410   1.276   3.916 -0.2545 -0.7622  0.5590
   91MOL   H31343693   4.663   1.242   3.859 -0.5524  2.9820 -0.9962
   91MOL   C31443694   4.191   1.458   4.294 -0.7607 -0.3586  0.7105
   91MOL   C31543695   4.131   1.549   4.381 -0.2106 -0.3450 -0.4269
   91MOL   C31643696   4.139   1.687   4.350 -0.1490 -0.2608 -0.2260
   91MOL   C31743697   4.204   1.730   4.234 -0.7757 -0.0784  0.2616
   91MOL   C31843698   4.263   1.636   4.146  0.8295 -0.2734  0.0227
   91MOL   C31943699   4.263   1.497   4.177 -0.4073 -1.0072 -0.6946
   91MOL   S32043700   4.069   1.814   4.456 -0.3050 -0.4423  0.1859
   91MOL   O32143701   4.112   1.948   4.408 -0.9336  0.4094 -0.6413
   91MOL   O32243702   4.087   1.774   4.598 -0.0053  0.4599 -0.2670
   91MOL   C32343703   3.893   1.809   4.428 -0.1273 -0.1856 -0.1453
   91MOL   C32443704   3.816   1.693   4.452  0.1605  0.3252  0.6294
   91MOL   C32543705   3.676   1.695   4.430 -0.5705 -0.6476 -0.2189
   91MOL   C32643706   3.613   1.814   4.391 -0.0474 -0.2488 -0.6764
   91MOL   C32743707   3.688   1.932   4.368  0.2387  0.1587 -0.3279
   91MOL   C32843708   3.828   1.929   4.390  0.2305  0.4203  0.8753
   91MOL   O32943709   3.478   1.817   4.369  0.0067 -0.4955 -0.2651
   91MOL   H33043710   4.173   1.352   4.308 -2.8205 -0.4342 -2.1267
   91MOL   H33143711   4.074   1.520   4.468  0.6971  1.3203  0.7573
   91MOL   H33243712   4.186   1.830   4.195 -1.1054  0.4274  1.6706
   91MOL   H33343713   4.319   1.664   4.057  0.3889  1.6702  0.3419
   91MOL   H33443714   3.870   1.602   4.475  1.8788  1.0726 -0.4000
   91MOL   H33543715   3.617   1.605   4.441  0.2578 -1.0371  1.1766
   91MOL   H33643716   3.644   2.027   4.342 -0.1727  0.5790  1.8732
   91MOL   H33743717   3.888   2.018   4.374 -1.0317  0.8295 -1.9395
   91MOL   C33843718   3.330   1.647   4.425 -0.7060 -0.0017  0.4354
   91MOL   C33943719   3.256   1.565   4.515 -0.9777 -0.1605  0.4548
   91MOL   C34043720   3.265   1.593   4.655 -0.4311  0.1562  0.1203
   91MOL   C34143721   3.337   1.700   4.701 -0.3538  0.6038 -0.9315
   91MOL   C34243722   3.403   1.781   4.607 -0.2483 -0.0790  0.2720
   91MOL   C34343723   3.399   1.757   4.469  0.0601 -0.0649 -0.3982
   91MOL   S34443724   3.181   1.479   4.774  0.2320 -0.0291  0.4076
   91MOL   O34543725   3.157   1.344   4.715 -0.3799 -0.5367 -0.2461
   91MOL   O34643726   3.064   1.562   4.808  0.1360  0.4377 -0.8447
   91MOL   C34743727   3.278   1.472   4.921  0.2463  0.2904  0.7193
   91MOL   C34843728   3.365   1.359   4.943 -0.2208 -0.7565 -0.0551
   91MOL   C34943729   3.445   1.355   5.057 -0.1165 -0.1167  0.1308
   91MOL   C35043730   3.445   1.460   5.148 -0.7860  0.5898  0.1182
   91MOL   C35143731   3.356   1.572   5.127 -0.5539  0.1458  1.1753
   91MOL   C35243732   3.277   1.579   5.018  0.4208  0.1676  0.2459
   91MOL   O35343733   3.513   1.436   5.264 -0.6851 -0.0620  0.0989
   91MOL   H35443734   3.326   1.624   4.319 -2.1878 -1.9793  0.8931
   91MOL   H35543735   3.199   1.480   4.482  1.2202 -1.0314 -1.2165
   91MOL   H35643736   3.359   1.728   4.803  2.1713  3.2233 -2.1166
   91MOL   H35743737   3.468   1.861   4.641 -0.6131  0.6503 -0.7471
   91MOL   H35843738   3.369   1.280   4.870  0.7281 -0.9460  0.2046
   91MOL   H35943739   3.514   1.276   5.085  1.7803  0.8897 -1.5899
   91MOL   H36043740   3.361   1.652   5.200  0.5901  0.3061  0.9359
   91MOL   H36143741   3.203   1.658   5.016 -0.5454 -0.7301  0.0684
   91MOL   C36243742   3.488   1.572   5.456  0.0556 -0.4033 -0.3905
   91MOL   C36343743   3.418   1.610   5.571  0.2328  0.5577 -0.1985
   91MOL   C36443744   3.321   1.523   5.625  0.2893  0.5228 -0.4354
   91MOL   C36543745   3.293   1.400   5.559  0.2433 -0.2078 -0.2543
   91MOL   C36643746   3.357   1.369   5.440  0.5611  0.5583 -0.2300
   91MOL   C36743747   3.454   1.455   5.387 -0.4288 -0.3219 -0.1208
   91MOL   S36843748   3.209   1.564   5.769  0.2907  0.2036  0.3805
   91MOL   O36943749   3.279   1.504   5.882 -0.1919 -1.2355 -0.2211
   91MOL   O37043750   3.076   1.521   5.734 -0.2951  0.4648  0.0900
   91MOL   C37143751   3.203   1.747   5.801  0.0950 -0.1331 -0.5206
   91MOL   C37243752   3.179   1.840   5.697 -0.1159  0.8076 -0.4474
   91MOL   C37343753   3.157   1.978   5.729 -0.8359 -0.3259 -0.9870
   91MOL   C37443754   3.153   2.027   5.862  0.7552  0.2269  0.0130
   91MOL   C37543755   3.185   1.930   5.964  0.3627  0.1548  0.2025
   91MOL   C37643756   3.206   1.793   5.934 -0.4564  0.0130  0.0229
   91MOL   O37743757   3.103   2.147   5.891 -0.1894  0.2954 -0.3202
   91MOL   H37843758   3.548   1.644   5.402 -1.5650  2.0061  0.9067
   91MOL   H37943759   3.445   1.702   5.620  1.6177  0.8057 -1.3873
   91MOL   H38043760   3.221   1.329   5.595 -0.0167  0.8380  1.3649
   91MOL   H38143761   3.335   1.278   5.385  2.5270  0.4947 -0.9500
   91MOL   H38243762   3.170   1.803   5.596  1.1350  1.4313 -0.7989
   91MOL   H38343763   3.144   2.044   5.645  0.5750  0.2869 -0.7293
   91MOL   H38443764   3.184   1.953   6.069  2.7044  1.4115 -0.0286
   91MOL   H38543765   3.220   1.725   6.018 -2.0493  0.9846  1.1060
   91MOL   C38643766   3.074   2.318   5.729  0.1467  0.3296 -0.0449
   91MOL   C38743767   3.128   2.426   5.655 -0.1128 -0.5747 -0.4405
   91MOL   C38843768   3.259   2.472   5.678 -0.2815 -0.2675 -0.0475
   91MOL   C38943769   3.343   2.409   5.768 -0.9445  0.0398 -0.2951
   91MOL   C39043770   3.288   2.292   5.836 -0.2331  0.4935 -0.0518
   91MOL   C39143771   3.157   2.248   5.820  0.5504  0.5347  0.4507
   91MOL   S39243772   3.319   2.621   5.600  0.5459  0.5647  0.3479
   91MOL   O39343773   3.376   2.704   5.708 -1.2880 -0.0637 -0.1135
   91MOL   O39443774   3.210   2.674   5.522  0.0433  0.2900  0.1502
   91MOL   C39543775   3.453   2.558   5.496 -0.3202 -0.2852  1.0571
   91MOL   C39643776   3.429   2.448   5.406 -0.2379 -0.2470 -0.3758
   91MOL   C39743777   3.530   2.401   5.319  0.2822 -0.1353 -0.2042
   91MOL   C39843778   3.659   2.453   5.327  0.7298 -0.3069  0.5647
   91MOL   C39943779   3.682   2.561   5.408 -0.7726 -0.1576 -0.5499
   91MOL   C40043780   3.583   2.615   5.497  0.0516  0.1523 -0.1154
   91MOL   O40143781   3.759   2.408   5.244 -0.0785  0.1304 -0.3939
   91MOL   H40243782   2.969   2.297   5.715  0.0568 -1.3816  2.7510
   91MOL   H40343783   3.072   2.489   5.588  1.2918 -0.7687 -1.7979
   91MOL   H40443784   3.446   2.432   5.793 -0.0685 -3.6155 -0.2778
   91MOL   H40543785   3.352   2.246   5.910 -0.6204  0.1884  0.1011
   91MOL   H40643786   3.334   2.401   5.385  0.2196 -1.5290  0.4231
   91MOL   H40743787   3.507   2.327   5.243 -0.0148 -0.7887  0.5041
   91MOL   H40843788   3.782   2.601   5.416  0.2490 -2.7731  0.2075
   91MOL   H40943789   3.614   2.695   5.562  0.5576 -0.5838  0.5733
   91MOL   C41043790   3.864   2.268   5.407  0.5538  0.4544  0.2891
   91MOL   C41143791   3.920   2.148   5.446 -0.1955  0.6693  0.4897
   91MOL   C41243792   3.941   2.051   5.349  0.3536  0.7110 -0.3199
   91MOL   C41343793   3.883   2.073   5.226  0.0395  0.1344  0.1735
   91MOL   C41443794   3.818   2.188   5.186 -0.2397  0.0280  0.8499
   91MOL   C41543795   3.816   2.291   5.276 -0.0421  0.1644 -0.6633
   91MOL   S41643796   4.021   1.900   5.391  0.2471 -0.1341  0.2020
   91MOL   O41743797   4.022   1.803   5.275 -0.0581  0.0331 -0.0106
   91MOL   O41843798   3.961   1.851   5.517 -0.5830  0.2573  0.3206
   91MOL   C41943799   4.189   1.936   5.428  0.4019 -0.3587  0.1660
   91MOL   C42043800   4.222   2.037   5.517  0.2522 -1.4762  0.4256
   91MOL   C42143801   4.359   2.072   5.535  0.6508 -0.9716  0.3345
   91MOL   C42243802   4.463   1.996   5.469 -0.5183  0.2250 -0.4708
   91MOL   C42343803   4.422   1.887   5.390 -0.3001  0.1858 -0.4982
   91MOL   C42443804   4.286   1.855   5.374 -0.5181 -0.1305 -0.2850
   91MOL   O42543805   4.586   2.045   5.468  0.6613  0.4010 -0.3999
   91MOL   H42643806   3.853   2.349   5.478  0.0650  2.0790 -1.5685
   91MOL   H42743807   3.949   2.134   5.549 -1.0558 -2.1635  0.3778
   91MOL   H42843808   3.893   1.992   5.155  1.9795 -0.3227  0.9384
   91MOL   H42943809   3.776   2.209   5.088  0.4787 -0.1729  0.4959
   91MOL   H43043810   4.145   2.094   5.565  1.4768 -0.8752  1.7182
   91MOL   H43143811   4.378   2.160   5.594 -0.0779  0.6360 -1.7603
   91MOL   H43243812   4.493   1.834   5.329  1.9460 -0.6300  2.7261
   91MOL   H43343813   4.262   1.790   5.291  1.1932  2.4096 -2.8462
   91MOL   C43443814   4.737   1.864   5.526  0.1067 -0.5583 -0.2871
   91MOL   C43543815   4.841   1.814   5.609  0.0960 -0.2901  0.5294
   91MOL   C43643816   4.868   1.884   5.725  0.5138  0.3596  0.5159
   91MOL   C43743817   4.800   2.005   5.758 -0.3024  0.1244 -0.0373
   91MOL   C43843818   4.705   2.064   5.675  0.2802  0.4381 -0.2153
   91MOL   C43943819   4.674   1.991   5.555 -0.0577 -0.0480 -0.1218
   91MOL   S44043820   5.000   1.830   5.829  0.2028  0.1348  0.3712
   91MOL   O44143821   4.995   1.686   5.833  0.5582 -0.6747  0.2745
   91MOL   O44243822   5.000   1.903   5.957  0.1974  0.4441 -0.4451
   91MOL   C44343823   5.155   1.877   5.749 -0.2749  1.0460 -0.1962
   91MOL   C44443824   5.163   2.002   5.680 -0.1970 -0.4274 -1.0993
   91MOL   C44543825   5.285   2.040   5.618 -0.8624  0.2571 -0.1303
   91MOL   C44643826   5.391   1.946   5.617  0.7073  0.3303  0.0078
   91MOL   C44743827   5.384   1.822   5.683  0.1989  0.2763 -0.3167
   91MOL   C44843828   5.267   1.787   5.751  0.2090 -0.7237 -0.5557
   91MOL   O44943829   5.503   1.972   5.543  0.2004  0.8607 -0.2139
   91MOL   H45043830   4.705   1.804   5.443 -0.5435  0.9719 -1.1689
   91MOL   H45143831   4.891   1.720   5.589  0.8978  0.0416  0.9426
   91MOL   H45243832   4.838   2.050   5.848 -3.7258  2.4817  0.3352
   91MOL   H45343833   4.657   2.159   5.695 -1.2718 -0.6980  1.6317
   91MOL   H45443834   5.080   2.071   5.683 -0.2064 -0.3747 -2.1918
   91MOL   H45543835   5.289   2.134   5.565 -2.2199 -0.7916 -2.1636
   91MOL   H45643836   5.459   1.745   5.674  0.8061  0.5541  1.8777
   91MOL   H45743837   5.253   1.684   5.778 -0.0895  0.3294  3.5579
   91MOL   C45843838   5.631   1.820   5.393 -0.6278 -0.1412 -0.7689
   91MOL   C45943839   5.638   1.743   5.273 -0.5453  0.0836  0.2913
   91MOL   C46043840   5.528   1.749   5.177 -0.3984 -0.0940  0.6789
   91MOL   C46143841   5.427   1.850   5.196 -0.7070 -0.7000 -0.5241
   91MOL   C46243842   5.425   1.925   5.316 -0.6824  0.4901  0.4967
   91MOL   C46343843   5.515   1.903   5.422 -0.3466 -0.2583  0.4646
   91MOL   S46443844   5.524   1.654   5.025  0.2306  0.0194  0.4006
   91MOL   O46543845   5.661   1.626   4.985 -0.2486 -0.4835 -0.6987
   91MOL   O46643846   5.434   1.730   4.932  0.0606  0.0096 -0.2458
   91MOL   C46743847   5.444   1.504   5.060 -0.0943  0.2712 -0.1251
   91MOL   C46843848   5.419   1.416   4.953 -0.0503  0.5044  0.1109
   91MOL   C46943849   5.353   1.298   4.987 -0.2053 -0.0663 -0.7085
   91MOL   C47043850   5.313   1.267   5.117 -0.2750 -0.0782  1.1557
   91MOL   C47143851   5.343   1.355   5.220  0.2437  0.5147  0.8055
   91MOL   C47243852   5.406   1.475   5.196  0.1761 -0.8898  0.1503
   91MOL   O47343853   5.234   1.160   5.148 -0.3939  0.1652 -0.0922
   91MOL   H47443854   5.710   1.815   5.466 -0.6289 -0.2306 -0.7745
   91MOL   H47543855   5.722   1.676   5.283  1.4977  2.1075 -2.7692
   91MOL   H47643856   5.354   1.867   5.117 -0.2902 -1.8919 -1.1813
   91MOL   H47743857   5.339   1.987   5.335 -3.2124 -2.9259  0.7673
   91MOL   H47843858   5.437   1.443   4.851 -0.0046 -0.2556 -0.0851
   91MOL   H47943859   5.320   1.231   4.909  1.3206  1.7515 -2.9787
   91MOL   H48043860   5.312   1.327   5.319 -2.0916 -1.2404 -0.3711
   91MOL   H48143861   5.420   1.534   5.286  2.2793  0.1007 -0.7900
   91MOL   H48243862   5.241   1.141   5.241 -2.2459  0.3058  0.1085
   92MOL     C143863   7.076   2.988   4.822  0.3255  0.3309 -0.3208
   92MOL     C243864   7.066   3.092   4.911 -0.0794 -0.4149  0.1376
   92MOL     C343865   7.084   3.228   4.864 -0.4351 -0.5282 -0.3321
   92MOL     C443866   7.129   3.247   4.731 -0.8081  0.3105 -0.0703
   92MOL     C543867   7.152   3.136   4.650 -0.3657  0.2753 -0.5435
   92MOL     C643868   7.121   3.009   4.689  0.0747  0.1642  0.4166
   92MOL     S743869   7.045   3.379   4.950 -0.1389 -0.1704  0.0016
   92MOL     O843870   6.915   3.431   4.897  0.3614  0.2580 -0.1379
   92MOL     O943871   7.169   3.454   4.937 -0.2805  0.2887  0.4241
   92MOL    C1043872   7.037   3.341   5.121  0.5101  0.4970  0.3006
   92MOL    C1143873   7.128   3.252   5.179  0.0136 -0.0658  0.5070
   92MOL    C1243874   7.135   3.241   5.321  0.7571  0.6644  0.5077
   92MOL    C1343875   7.041   3.304   5.403 -0.0138  0.1187  0.0944
   92MOL    C1443876   6.941   3.387   5.339  0.8020 -0.5078 -0.0585
   92MOL    C1543877   6.940   3.406   5.200 -0.0709 -0.1358 -0.6137
   92MOL    O1643878   7.040   3.290   5.540 -0.2215 -0.2130  0.2612
   92MOL    H1743879   7.056   2.891   4.865  0.4120  0.8615  0.9377
   92MOL    H1843880   7.029   3.071   5.010  0.5178 -1.2938  0.1751
   92MOL    H1943881   7.142   3.346   4.691 -1.4543  0.5782  0.3746
   92MOL    H2043882   7.188   3.148   4.549 -2.0207  0.6093 -1.1125
   92MOL    H2143883   7.188   3.182   5.122  0.5507  1.4199 -0.8080
   92MOL    H2243884   7.196   3.157   5.351 -1.6225 -0.7288  1.5594
   92MOL    H2343885   6.857   3.419   5.398  3.2792  1.5411  2.4780
   92MOL    H2443886   6.863   3.460   5.147  0.9575  0.3851 -1.5983
   92MOL    H2543887   7.147   2.926   4.625 -1.8647  0.2433 -0.5344
   92MOL    C2643888   7.228   3.262   5.694 -0.2233 -0.3892  0.5255
   92MOL    C2743889   7.334   3.324   5.765 -0.6928 -0.3682  0.4346
   92MOL    C2843890   7.355   3.463   5.752  0.6396 -0.4245 -0.0013
   92MOL    C2943891   7.257   3.546   5.687  0.6660 -0.2072 -0.2664
   92MOL    C3043892   7.153   3.482   5.617 -0.2911  0.4503  0.0947
   92MOL    C3143893   7.140   3.345   5.615 -0.0227 -0.3943  0.1067
   92MOL    S3243894   7.503   3.543   5.803 -0.0346  0.2645  0.1580
   92MOL    O3343895   7.512   3.540   5.950 -0.3532 -0.2914 -0.7075
   92MOL    O3443896   7.525   3.671   5.735  0.3584 -0.3469  0.4472
   92MOL    C3543897   7.641   3.434   5.749 -0.0224  0.2316  0.2216
   92MOL    C3643898   7.674   3.321   5.827 -0.3479 -0.0061  0.1484
   92MOL    C3743899   7.775   3.240   5.779 -0.1067  0.0223  0.4011
   92MOL    C3843900   7.856   3.276   5.663  0.3717  0.1448 -0.0236
   92MOL    C3943901   7.824   3.388   5.584  0.3255 -0.3764  0.9510
   92MOL    C4043902   7.703   3.463   5.626  0.1144 -0.4473  0.7673
   92MOL    O4143903   7.971   3.203   5.635 -0.2421 -0.3795 -0.0985
   92MOL    H4243904   7.197   3.159   5.691  0.3407 -0.5585  0.3835
   92MOL    H4343905   7.402   3.257   5.816 -0.1684  0.6213  1.0636
   92MOL    H4443906   7.276   3.651   5.668  1.5652  0.1081  2.1732
   92MOL    H4543907   7.084   3.543   5.560 -0.9436  1.6877  2.1481
   92MOL    H4643908   7.620   3.293   5.916 -1.9505 -0.8445 -1.0661
   92MOL    H4743909   7.801   3.157   5.844 -2.7871 -0.7844  0.5102
   92MOL    H4843910   7.870   3.408   5.488 -0.0405 -0.4765  0.7551
   92MOL    H4943911   7.664   3.537   5.558 -0.1715 -2.0670 -0.8972
   92MOL    C5043912   8.122   3.314   5.779 -0.4909 -0.2302  0.4622
   92MOL    C5143913   8.235   3.304   5.869  0.8742 -0.3142 -0.0313
   92MOL    C5243914   8.282   3.175   5.912  0.5311 -0.1933 -0.0073
   92MOL    C5343915   8.211   3.056   5.870 -0.0543 -0.1884  0.0956
   92MOL    C5443916   8.108   3.070   5.780  0.2478 -0.1715  0.1092
   92MOL    C5543917   8.069   3.198   5.730  0.9175 -0.4754  0.6012
   92MOL    S5643918   8.425   3.171   6.010  0.0879 -0.2540  0.2179
   92MOL    O5743919   8.379   3.218   6.141 -0.1560 -0.2190 -0.4983
   92MOL    O5843920   0.115   3.232   5.940 -0.0563  0.3331  0.3998
   92MOL    C5943921   0.044   3.000   6.037 -0.0887 -0.1016 -0.1469
   92MOL    C6043922   8.399   2.929   6.134 -0.2240  0.3161 -0.5092
   92MOL    C6143923   0.021   2.803   6.168 -0.4905  0.1796  0.1586
   92MOL    C6243924   0.131   2.746   6.103  0.0356  0.0660 -0.1421
   92MOL    C6343925   0.195   2.816   6.002  0.0475  0.1034  0.0935
   92MOL    C6443926   0.152   2.942   5.963 -0.4618  0.7942  0.2854
   92MOL    O6543927   0.178   2.632   6.165  0.1517 -0.2600  0.0797
   92MOL    H6643928   8.100   3.406   5.727 -0.6115 -0.9703 -0.8496
   92MOL    H6743929   8.300   3.387   5.893 -1.7200  1.8859 -0.3491
   92MOL    H6843930   8.245   2.959   5.902 -1.1966 -1.2268 -1.7896
   92MOL    H6943931   8.053   2.984   5.746  1.1490 -0.4270 -0.6981
   92MOL    H7043932   8.315   2.973   6.186  0.4702  0.8017  0.2165
   92MOL    H7143933   8.403   2.748   6.250 -2.9346  1.0504 -0.4984
   92MOL    H7243934   0.283   2.779   5.951 -0.7280  0.2743 -1.4104
   92MOL    H7343935   0.213   2.990   5.887 -0.9669  0.0553 -0.5940
   92MOL    C7443936   0.197   2.482   5.977  0.1391 -0.0270  0.1676
   92MOL    C7543937   0.275   2.396   5.900 -0.5592  0.0325 -0.2485
   92MOL    C7643938   0.407   2.359   5.944 -0.1095  0.0875 -0.2871
   92MOL    C7743939   0.459   2.417   6.060  0.3929  0.1019  0.4179
   92MOL    C7843940   0.384   2.513   6.133  0.0040  0.6764  0.2671
   92MOL    C7943941   0.251   2.544   6.091  0.2070  0.1582  0.4180
   92MOL    S8043942   0.504   2.243   5.845 -0.1944  0.3492 -0.0395
   92MOL    O8143943   0.637   2.232   5.907 -0.2511  0.1606  0.0744
   92MOL    O8243944   0.504   2.295   5.708  0.1184  0.4272  0.0740
   92MOL    C8343945   0.421   2.087   5.857 -0.3198  0.0541  0.8133
   92MOL    C8443946   0.400   2.019   5.979  0.0221  0.0075  0.0255
   92MOL    C8543947   0.320   1.900   5.974  0.1618  0.3993  0.4845
   92MOL    C8643948   0.261   1.855   5.859  0.3315  0.4144 -0.5237
   92MOL    C8743949   0.287   1.920   5.733  0.2952  0.2377 -0.0758
   92MOL    C8843950   0.368   2.034   5.735  0.2323  0.4334  0.3831
   92MOL    O8943951   0.182   1.741   5.859 -0.1253  0.4325 -0.0782
   92MOL    H9043952   0.099   2.515   5.948  0.1067 -0.9376 -0.7890
   92MOL    H9143953   0.236   2.351   5.810 -1.0808  0.5336 -0.2746
   92MOL    H9243954   0.558   2.386   6.090  1.4413  2.8040 -0.1503
   92MOL    H9343955   0.421   2.551   6.227  1.8777 -1.6279  0.5033
   92MOL    H9443956   0.444   2.040   6.075 -1.7429 -2.3087  1.4109
   92MOL    H9543957   0.296   1.840   6.061  1.9633 -0.7940  0.2031
   92MOL    H9643958   0.247   1.885   5.639 -0.7624 -0.1771  0.5134
   92MOL    H9743959   0.385   2.085   5.641  0.3735  0.7969  0.6072
   92MOL    C9843960   0.206   1.529   5.971  0.5036  0.0465  0.2973
   92MOL    C9943961   0.288   1.424   6.010  0.4944 -0.4239  0.1014
   92MOL   C10043962   0.409   1.398   5.939  0.2991  0.4502 -0.4724
   92MOL   C10143963   0.443   1.477   5.831  0.0398 -0.1863 -0.6120
   92MOL   C10243964   0.365   1.586   5.795  0.3165  0.9007  0.0568
   92MOL   C10343965   0.250   1.616   5.866 -0.7748 -0.1327  0.0615
   92MOL   S10443966   0.525   1.278   5.997 -0.4173  0.0301 -0.5491
   92MOL   O10543967   0.628   1.253   5.895  0.4453 -0.4142  0.2658
   92MOL   O10643968   0.451   1.162   6.046 -0.0933  0.3571  0.8025
   92MOL   C10743969   0.609   1.354   6.138  0.1998 -0.6373 -0.0436
   92MOL   C10843970   0.578   1.486   6.174 -0.7460 -0.1987  0.5730
   92MOL   C10943971   0.646   1.544   6.289  0.8944  0.3711 -0.2857
   92MOL   C11043972   0.735   1.472   6.361 -0.3291  0.0785  0.1131
   92MOL   C11143973   0.764   1.335   6.328  0.9175  0.2577  0.3244
   92MOL   C11243974   0.693   1.276   6.216 -0.3315  0.1570  0.2178
   92MOL   O11343975   0.812   1.532   6.457  0.1361 -0.2652 -0.1236
   92MOL   H11443976   0.111   1.539   6.022  1.0487  2.5525  0.8678
   92MOL   H11543977   0.258   1.358   6.090 -0.4472  1.2053  1.1368
   92MOL   H11643978   0.542   1.464   5.790  0.5181 -0.5497  0.6499
   92MOL   H11743979   0.404   1.650   5.717 -3.7472  0.5275 -2.4076
   92MOL   H11843980   0.504   1.543   6.121  1.4150 -0.1835 -2.5218
   92MOL   H11943981   0.610   1.641   6.318 -2.2212 -0.8531  0.1025
   92MOL   H12043982   0.838   1.273   6.377  0.2882 -1.2104 -0.5526
   92MOL   H12143983   0.714   1.174   6.190  0.4458  0.2404  0.4861
   92MOL   C12243984   0.662   1.464   6.643  0.0953 -0.3790  0.1197
   92MOL   C12343985   0.622   1.486   6.779  0.1163  0.6173  0.9999
   92MOL   C12443986   0.707   1.567   6.861 -0.1397  0.6996 -0.4797
   92MOL   C12543987   0.817   1.633   6.808 -0.3697 -0.3291  0.2054
   92MOL   C12643988   0.835   1.635   6.669 -0.7357 -0.2452 -0.1377
   92MOL   C12743989   0.763   1.544   6.583 -0.4493  0.1607 -0.2607
   92MOL   S12843990   0.654   1.576   7.029 -0.0356 -0.0295  0.3854
   92MOL   O12943991   0.772   1.558   7.119  0.0527 -0.9013 -0.3613
   92MOL   O13043992   0.539   1.487   7.038  0.1284 -0.0630  0.1421
   92MOL   C13143993   0.581   1.743   7.043  0.7980 -0.8982  0.7331
   92MOL   C13243994   0.673   1.847   7.058 -0.0102  0.2089  0.6818
   92MOL   C13343995   0.626   1.978   7.062  0.2221 -0.3806  0.0021
   92MOL   C13443996   0.484   2.003   7.061  0.3313  0.0244  1.1638
   92MOL   C13543997   0.391   1.895   7.046  0.1600 -0.1413 -0.1136
   92MOL   C13643998   0.443   1.767   7.037  0.0255  0.0324 -0.2402
   92MOL   O13743999   0.431   2.131   7.079  0.4228  0.2878  0.1830
   92MOL   H13844000   0.594   1.399   6.589 -0.3026 -0.0539  0.2307
   92MOL   H13944001   0.535   1.433   6.813 -0.4745  0.4464 -0.7423
   92MOL   H14044002   0.864   1.714   6.862 -1.6170 -0.3967  1.4213
   92MOL   H14144003   0.918   1.688   6.624 -0.1178 -1.3339 -0.2889
   92MOL   H14244004   0.781   1.835   7.057  0.1249  1.3106 -1.5340
   92MOL   H14344005   0.690   2.065   7.063  0.0436 -0.2607  2.0233
   92MOL   H14444006   0.286   1.916   7.034  0.4523  1.3913 -0.1326
   92MOL   H14544007   0.378   1.681   7.027 -1.4395  1.0826 -0.0032
   92MOL   C14644008   0.576   2.308   7.007  0.0616 -0.6324 -0.0169
   92MOL   C14744009   0.688   2.386   7.038  0.2861 -0.3138 -0.8036
   92MOL   C14844010   0.741   2.386   7.163 -0.0457 -0.9670 -0.3574
   92MOL   C14944011   0.679   2.317   7.266  0.9276  0.3041  0.4789
   92MOL   C15044012   0.576   2.232   7.242 -0.2291  0.3990  0.2316
   92MOL   C15144013   0.523   2.227   7.108  0.2500 -0.1538  0.3764
   92MOL   S15244014   0.891   2.478   7.188 -0.1663  0.2209  0.6208
   92MOL   O15344015   0.889   2.526   7.330  0.2387 -0.8665  0.1977
   92MOL   O15444016   0.910   2.568   7.076  0.0171 -0.2943 -0.2901
   92MOL   C15544017   1.017   2.345   7.173 -0.2900 -0.1500 -0.5193
   92MOL   C15644018   1.029   2.243   7.262  0.7831 -0.2278 -0.6108
   92MOL   C15744019   1.110   2.131   7.237 -0.1349  0.4055 -0.0864
   92MOL   C15844020   1.192   2.130   7.122 -0.2147 -0.3911 -0.2744
   92MOL   C15944021   1.190   2.243   7.035 -0.6687 -0.3764 -1.0508
   92MOL   C16044022   1.105   2.349   7.063 -0.1875  0.6289  0.2595
   92MOL   O16144023   1.266   2.019   7.097 -0.1711 -0.2575 -0.2545
   92MOL   H16244024   0.535   2.314   6.908 -1.1771  0.7936  0.5498
   92MOL   H16344025   0.723   2.449   6.957  1.2889 -1.3629 -1.2005
   92MOL   H16444026   0.722   2.315   7.365  0.7596 -0.8548  0.5404
   92MOL   H16544027   0.530   2.169   7.317  0.2915 -0.0161  0.2016
   92MOL   H16644028   0.959   2.238   7.344  2.0557  2.8583  0.7371
   92MOL   H16744029   1.107   2.045   7.302  0.7476  0.4679  0.0506
   92MOL   H16844030   1.255   2.238   6.949 -1.4181  1.0061 -1.7181
   92MOL   H16944031   1.097   2.427   6.988 -1.1496  0.2365 -0.0532
   92MOL   C17044032   1.227   1.934   6.885 -0.2921 -0.3199  0.0586
   92MOL   C17144033   1.258   1.887   6.754 -0.2788  0.6558 -1.2774
   92MOL   C17244034   1.395   1.882   6.715 -0.3703 -0.2303 -0.3880
   92MOL   C17344035   1.491   1.926   6.811  0.2051 -0.4222 -0.8252
   92MOL   C17444036   1.451   1.970   6.943 -0.4306 -0.0249  0.4337
   92MOL   C17544037   1.314   1.979   6.980  0.6349 -0.0957  0.1573
   92MOL   S17644038   1.445   1.837   6.548  0.0460 -0.1847  0.1429
   92MOL   O17744039   1.591   1.804   6.545  0.1306  0.5784  0.2732
   92MOL   O17844040   1.397   1.953   6.463  0.0319  0.4258 -0.1131
   92MOL   C17944041   1.345   1.702   6.485 -0.8216 -0.3533  0.0965
   92MOL   C18044042   1.209   1.726   6.455 -0.6799 -0.4596 -0.8323
   92MOL   C18144043   1.137   1.624   6.392 -0.4045  0.1920  0.2088
   92MOL   C18244044   1.193   1.503   6.355  0.8209  0.0419  0.2745
   92MOL   C18344045   1.326   1.475   6.398  0.4349 -0.0979 -0.2611
   92MOL   C18444046   1.403   1.576   6.455 -0.2860 -0.1016  0.0593
   92MOL   O18544047   1.123   1.413   6.281  0.4999 -0.1703 -0.3871
   92MOL   H18644048   1.120   1.932   6.904 -0.2779  0.0849  0.1882
   92MOL   H18744049   1.176   1.854   6.693 -1.3405 -1.4947  1.2327
   92MOL   H18844050   1.592   1.922   6.773  0.2087  0.6533 -0.9447
   92MOL   H18944051   1.526   2.006   7.012 -2.3016  0.2519  2.3871
   92MOL   H19044052   1.165   1.823   6.468  1.8732  0.4233  2.1013
   92MOL   H19144053   1.038   1.649   6.355 -0.3050  0.0352 -0.1594
   92MOL   H19244054   1.377   1.383   6.376  2.8660  1.5931 -1.8925
   92MOL   H19344055   1.506   1.564   6.486  0.3870 -0.3485 -2.1487
   92MOL   C19444056   1.172   1.395   6.050  0.0466 -0.1451  0.6292
   92MOL   C19544057   1.127   1.399   5.920 -0.5630 -0.3472 -0.4953
   92MOL   C19644058   1.018   1.477   5.882 -0.6420 -0.7732  0.3529
   92MOL   C19744059   0.940   1.540   5.986  0.1026 -0.0960 -0.5095
   92MOL   C19844060   0.975   1.511   6.116 -0.6947 -0.1397 -0.9277
   92MOL   C19944061   1.095   1.446   6.150 -0.4882  0.0093  0.5516
   92MOL   S20044062   0.983   1.504   5.713  0.1078  0.0544 -0.2690
   92MOL   O20144063   0.852   1.574   5.714 -0.5015 -0.3683 -0.2415
   92MOL   O20244064   0.998   1.381   5.638  0.0159  0.6873  0.2137
   92MOL   C20344065   1.111   1.613   5.652  0.5999 -0.5280 -0.7813
   92MOL   C20444066   1.172   1.603   5.525  0.1873 -0.6396 -0.2071
   92MOL   C20544067   1.267   1.699   5.486 -0.0683 -0.1338 -0.2318
   92MOL   C20644068   1.315   1.790   5.582  0.1360 -0.1099  0.1222
   92MOL   C20744069   1.253   1.808   5.706 -0.1206  0.3275  0.0622
   92MOL   C20844070   1.140   1.725   5.734  0.4924 -0.5058  0.6607
   92MOL   O20944071   1.430   1.868   5.562  0.0928 -0.1025  0.1546
   92MOL   H21044072   1.260   1.334   6.066  0.4587  0.4990  0.8552
   92MOL   H21144073   1.187   1.351   5.844 -0.4225 -2.2000  0.7581
   92MOL   H21244074   0.854   1.604   5.970  0.9063  0.7641 -1.4861
   92MOL   H21344075   0.909   1.551   6.191  0.6860  0.5362 -0.0460
   92MOL   H21444076   1.140   1.521   5.463 -1.1771 -0.5667  0.3855
   92MOL   H21544077   1.308   1.700   5.386 -0.2692 -2.9032 -0.3780
   92MOL   H21644078   1.278   1.887   5.775  1.4673  0.3099 -0.4604
   92MOL   H21744079   1.074   1.737   5.819  0.0489 -0.3118  0.2925
   92MOL   C21844080   1.320   2.043   5.437 -0.3758  0.6900  0.5778
   92MOL   C21944081   1.333   2.164   5.364  0.1839 -0.2456  0.0274
   92MOL   C22044082   1.455   2.216   5.325  0.3876  0.4647  0.0018
   92MOL   C22144083   1.571   2.141   5.346 -0.1047  0.3235  0.8109
   92MOL   C22244084   1.562   2.022   5.421 -0.4174 -0.2331  0.6364
   92MOL   C22344085   1.435   1.979   5.473  0.0039  0.1102  0.0141
   92MOL   S22444086   1.458   2.381   5.251 -0.3876 -0.3393 -0.0209
   92MOL   O22544087   1.589   2.381   5.184  0.4347  0.2263 -0.1670
   92MOL   O22644088   1.435   2.470   5.361 -0.3504 -1.1300  0.4526
   92MOL   C22744089   1.322   2.410   5.137  0.5380 -0.6010 -0.4116
   92MOL   C22844090   1.262   2.540   5.122 -1.0635 -0.2793  0.8987
   92MOL   C22944091   1.151   2.557   5.038  0.5166  0.4392 -0.6975
   92MOL   C23044092   1.106   2.442   4.969 -0.4733 -0.0714 -0.1200
   92MOL   C23144093   1.174   2.320   4.974 -0.2099 -0.3427  0.7122
   92MOL   C23244094   1.281   2.299   5.066 -0.0414  0.2936 -0.3056
   92MOL   O23344095   0.997   2.444   4.884 -0.2489  0.0078 -0.2150
   92MOL   H23444096   1.222   2.011   5.466  0.1778 -1.5733  0.0385
   92MOL   H23544097   1.252   2.232   5.345  0.9473  0.5095 -0.6154
   92MOL   H23644098   1.667   2.185   5.324  0.0277 -0.6277 -0.5734
   92MOL   H23744099   1.655   1.968   5.433 -0.0286 -0.1467 -1.7749
   92MOL   H23844100   1.287   2.621   5.188  2.4197 -1.2906  0.9188
   92MOL   H23944101   1.105   2.655   5.040  2.4998  1.3647  1.1656
   92MOL   H24044102   1.134   2.237   4.917 -0.8157  0.2738  0.2324
   92MOL   H24144103   1.338   2.209   5.084 -1.6644 -0.5854  0.6815
   92MOL   C24244104   0.835   2.625   4.879 -0.0570  0.2340  0.2111
   92MOL   C24344105   0.709   2.661   4.918 -0.0371  0.3506  0.3138
   92MOL   C24444106   0.624   2.583   5.004 -0.1191 -0.1361 -0.0710
   92MOL   C24544107   0.674   2.464   5.050 -0.2712  0.3153  0.5976
   92MOL   C24644108   0.805   2.417   5.012  0.1634 -0.3138  0.2360
   92MOL   C24744109   0.879   2.499   4.924 -0.5298 -0.0349  0.7613
   92MOL   S24844110   0.452   2.618   5.039  0.1366  0.3591  0.2060
   92MOL   O24944111   0.425   2.750   4.991  0.5848 -0.0487 -0.0832
   92MOL   O25044112   0.425   2.577   5.177  0.0354 -0.1638 -0.5345
   92MOL   C25144113   0.361   2.502   4.928 -0.1046 -0.0128  0.7569
   92MOL   C25244114   0.218   2.500   4.928 -0.2058 -0.4491  0.4458
   92MOL   C25344115   0.148   2.411   4.851  0.2944 -0.2770 -0.5670
   92MOL   C25444116   0.210   2.319   4.769 -0.2670 -0.4603  0.2415
   92MOL   C25544117   0.353   2.318   4.773 -0.1721 -0.2667 -0.5063
   92MOL   C25644118   0.426   2.408   4.850 -0.3291  0.2727 -0.2782
   92MOL   O25744119   0.140   2.231   4.692 -0.0030 -0.4721 -0.0547
   92MOL   H25844120   0.899   2.667   4.803 -0.6503 -0.2006 -0.5347
   92MOL   H25944121   0.663   2.745   4.868  0.7730  0.1936 -0.7025
   92MOL   H26044122   0.616   2.404   5.118  0.6744 -0.7232  0.4877
   92MOL   H26144123   0.847   2.322   5.042 -0.6707 -1.2685 -1.4948
   92MOL   H26244124   0.174   2.580   4.986 -2.4469 -1.2872 -0.0138
   92MOL   H26344125   0.041   2.394   4.858  0.3498 -0.0905  1.0159
   92MOL   H26444126   0.406   2.253   4.705 -1.9961 -1.4714 -0.8185
   92MOL   H26544127   0.534   2.407   4.838 -0.4821  0.5821 -1.7835
   92MOL   C26644128   8.373   2.331   4.588 -0.0324 -0.0183  0.5643
   92MOL   C26744129   8.316   2.395   4.475 -0.3291 -0.6811 -0.0405
   92MOL   C26844130   8.384   2.402   4.352  0.1623 -0.7675  0.1083
   92MOL   C26944131   0.094   2.351   4.345  0.1610 -0.3033  0.0450
   92MOL   C27044132   0.151   2.303   4.464 -0.1900 -0.7673  0.4680
   92MOL   C27144133   0.080   2.285   4.583  0.3339  0.5804  0.0612
   92MOL   S27244134   8.311   2.451   4.198 -0.1135  0.0826  0.0612
   92MOL   O27344135   8.408   2.527   4.118  0.1409  0.1640 -0.6759
   92MOL   O27444136   8.174   2.505   4.216  0.2298  0.3029 -0.2167
   92MOL   C27544137   8.285   2.291   4.116 -0.2710 -0.1713 -0.5615
   92MOL   C27644138   8.273   2.290   3.978 -0.3917  0.6031  0.5255
   92MOL   C27744139   8.243   2.164   3.915  0.1755 -0.5356  0.2663
   92MOL   C27844140   8.223   2.049   3.990 -0.3335  0.2489 -0.6950
   92MOL   C27944141   8.237   2.053   4.129  0.6144 -0.3243 -0.2023
   92MOL   C28044142   8.271   2.174   4.191 -0.6461 -0.5898 -0.2783
   92MOL   O28144143   8.190   1.931   3.930 -0.2483  0.0149 -0.3808
   92MOL   H28244144   8.316   2.317   4.679  0.3409  0.8168  0.9320
   92MOL   H28344145   8.211   2.420   4.472 -0.7855 -2.6233 -0.7873
   92MOL   H28444146   0.145   2.361   4.250 -0.7859 -0.8184 -0.5197
   92MOL   H28544147   0.254   2.269   4.458 -0.9031 -2.7551 -1.2211
   92MOL   H28644148   8.281   2.374   3.909 -2.4774  0.2358 -0.2173
   92MOL   H28744149   8.225   2.163   3.809 -1.3437 -0.5156  0.5074
   92MOL   H28844150   8.220   1.962   4.184 -0.5349 -1.0014 -1.6389
   92MOL   H28944151   8.278   2.168   4.299 -1.8587  0.4368 -0.1219
   92MOL   C29044152   8.291   1.738   4.027  0.5122 -0.1732 -0.1223
   92MOL   C29144153   8.413   1.674   4.061  1.2225 -0.0559 -0.1153
   92MOL   C29244154   0.104   1.710   4.003 -0.5654  0.1902  0.3039
   92MOL   C29344155   0.104   1.797   3.888 -0.4119  0.4977 -0.8678
   92MOL   C29444156   8.410   1.863   3.848  0.5702  0.5695 -0.2668
   92MOL   C29544157   8.290   1.838   3.927 -0.0798  0.1225  0.3458
   92MOL   S29644158   0.265   1.653   4.071  0.3254 -0.1000 -0.0005
   92MOL   O29744159   0.376   1.676   3.972  1.0997  0.2740 -1.3892
   92MOL   O29844160   0.239   1.521   4.130  0.7596 -0.2325 -0.0183
   92MOL   C29944161   0.301   1.763   4.213  0.4256  0.2362  0.7240
   92MOL   C30044162   0.430   1.750   4.272  0.1844  0.5869 -0.1543
   92MOL   C30144163   0.452   1.837   4.386 -0.1847 -0.2250  0.6168
   92MOL   C30244164   0.354   1.931   4.431  0.0164 -0.2970 -0.8521
   92MOL   C30344165   0.228   1.939   4.366 -0.0900  0.1603  0.1910
   92MOL   C30444166   0.198   1.851   4.262 -0.3717  0.2751  0.2866
   92MOL   O30544167   0.378   2.028   4.528 -0.4666  0.3146  0.4188
   92MOL   H30644168   8.210   1.715   4.095  1.6218 -2.7432  0.3588
   92MOL   H30744169   8.424   1.601   4.140  1.8898  0.6793  0.4731
   92MOL   H30844170   0.203   1.813   3.848  0.3668 -1.4408  0.2422
   92MOL   H30944171   8.407   1.926   3.760 -1.3315  0.0280 -0.6080
   92MOL   H31044172   0.503   1.677   4.240 -0.0074 -1.1014  3.1113
   92MOL   H31144173   0.543   1.828   4.443  0.1076 -0.6827  0.0925
   92MOL   H31244174   0.151   2.008   4.397  1.0653  1.1640  0.8996
   92MOL   H31344175   0.098   1.865   4.223 -0.3015  0.2110  0.0847
   92MOL   C31444176   0.602   2.050   4.620 -0.1481  0.0277 -0.5255
   92MOL   C31544177   0.683   2.065   4.738  0.1435 -0.3865 -0.3010
   92MOL   C31644178   0.629   2.036   4.866 -0.3143  0.3552 -0.4874
   92MOL   C31744179   0.498   1.982   4.873  0.7852 -0.0087 -0.1973
   92MOL   C31844180   0.414   1.975   4.762 -0.2224  0.0016 -0.1693
   92MOL   C31944181   0.466   2.007   4.633  0.2816 -0.1361 -0.4582
   92MOL   S32044182   0.728   2.047   5.016 -0.0391  0.1245 -0.0087
   92MOL   O32144183   0.655   2.126   5.119 -0.0802 -0.9265  0.4555
   92MOL   O32244184   0.858   2.098   4.972  0.5640 -0.3790  0.3626
   92MOL   C32344185   0.754   1.878   5.084 -0.1040 -0.1464 -0.1653
   92MOL   C32444186   0.862   1.855   5.173 -0.2829  0.7695  0.0901
   92MOL   C32544187   0.875   1.726   5.235  0.5031 -0.4036  0.2026
   92MOL   C32644188   0.787   1.614   5.204 -0.5234 -0.5835 -0.2096
   92MOL   C32744189   0.676   1.649   5.125 -0.5604  0.1483 -0.2460
   92MOL   C32844190   0.659   1.777   5.068 -0.1067 -0.1057  0.7823
   92MOL   O32944191   0.794   1.493   5.276 -0.1350  0.3688  0.1561
   92MOL   H33044192   0.648   2.066   4.523  1.2068 -3.0322 -0.4624
   92MOL   H33144193   0.789   2.079   4.723  0.1245  0.1907  0.0868
   92MOL   H33244194   0.456   1.955   4.969 -0.7121 -0.1668 -0.8976
   92MOL   H33344195   0.313   1.942   4.783 -0.4788  0.7616 -0.1869
   92MOL   H33444196   0.936   1.933   5.189 -1.2980  1.8868 -0.5718
   92MOL   H33544197   0.963   1.714   5.297  0.6545 -0.5884 -0.0482
   92MOL   H33644198   0.601   1.572   5.117  0.0187 -0.5859  1.2958
   92MOL   H33744199   0.569   1.779   5.009 -0.8668 -1.0119  1.8797
   92MOL   C33844200   0.932   1.311   5.363 -0.2696  0.3298  0.4505
   92MOL   C33944201   1.045   1.231   5.362 -0.0482 -0.0049  0.2865
   92MOL   C34044202   1.155   1.264   5.278 -0.2193  0.2930 -0.3383
   92MOL   C34144203   1.149   1.381   5.198  0.0949 -0.0534 -0.2996
   92MOL   C34244204   1.029   1.458   5.192 -0.3640  0.2848  0.5467
   92MOL   C34344205   0.915   1.420   5.274 -0.6093  0.0862 -1.0472
   92MOL   S34444206   1.308   1.171   5.296  0.0170 -0.1632 -0.4538
   92MOL   O34544207   1.272   1.036   5.245  0.1137 -0.1385 -0.0032
   92MOL   O34644208   1.358   1.191   5.429  0.1859  0.5486  0.0877
   92MOL   C34744209   1.422   1.241   5.182 -0.1430 -1.0441 -0.4166
   92MOL   C34844210   1.543   1.286   5.232 -0.4049  0.2653 -0.7668
   92MOL   C34944211   1.647   1.322   5.150  0.0338 -0.6636  0.1054
   92MOL   C35044212   1.629   1.317   5.011  0.6189  0.3182 -0.3095
   92MOL   C35144213   1.502   1.283   4.960  0.2311 -0.0780  0.5241
   92MOL   C35244214   1.402   1.236   5.043  0.4415  0.7786 -0.2678
   92MOL   O35344215   1.734   1.343   4.927 -0.2111 -0.2284  0.1784
   92MOL   H35444216   0.850   1.291   5.430 -0.2782  2.1188  0.9998
   92MOL   H35544217   1.048   1.145   5.427 -2.3905  1.0433  1.8778
   92MOL   H35644218   1.231   1.407   5.133  0.3610  0.8626  0.4125
   92MOL   H35744219   1.018   1.542   5.125 -1.0988 -1.1617 -1.1992
   92MOL   H35844220   1.567   1.282   5.337  1.9396  1.5224 -1.2113
   92MOL   H35944221   1.748   1.335   5.188  0.2382 -2.8552  0.3863
   92MOL   H36044222   1.494   1.279   4.853 -1.4710 -0.5251  0.6681
   92MOL   H36144223   1.308   1.200   5.003  0.3369  1.1509 -0.3648
   92MOL   C36244224   1.961   1.335   5.001 -0.0907  0.0083  0.1571
   92MOL   C36344225   2.078   1.399   5.053  0.8176  0.7466 -0.1530
   92MOL   C36444226   2.078   1.537   5.084 -0.3991 -0.3326 -0.1090
   92MOL   C36544227   1.969   1.615   5.041  0.1891 -0.5919  0.4491
   92MOL   C36644228   1.848   1.550   4.987  0.3016  0.5525 -0.1436
   92MOL   C36744229   1.847   1.408   4.976 -0.1753 -0.4484  0.1428
   92MOL   S36844230   2.220   1.618   5.157 -0.3828  0.0739 -0.0737
   92MOL   O36944231   2.332   1.517   5.165 -0.0742 -0.6022  0.1866
   92MOL   O37044232   2.171   1.678   5.282 -0.1110 -0.3846 -0.1498
   92MOL   C37144233   2.274   1.747   5.049 -0.1247 -0.5088  0.2025
   92MOL   C37244234   2.383   1.722   4.968  0.5110  1.0082  0.6462
   92MOL   C37344235   2.441   1.833   4.901  0.2516  1.2489 -0.3514
   92MOL   C37444236   2.379   1.959   4.897 -1.0555 -0.0050 -0.3741
   92MOL   C37544237   2.264   1.980   4.975  0.2844 -0.7647  0.1471
   92MOL   C37644238   2.212   1.875   5.051 -0.1454 -0.3576  0.3106
   92MOL   O37744239   2.428   2.058   4.819 -0.8939 -0.6961  0.3600
   92MOL   H37844240   1.960   1.230   4.980  0.5020  0.1223 -0.4814
   92MOL   H37944241   2.167   1.343   5.077 -1.1503 -1.7398  1.6338
   92MOL   H38044242   1.982   1.722   5.048  1.7205 -0.7880  0.6040
   92MOL   H38144243   1.767   1.611   4.948  1.0315  0.4913 -1.7905
   92MOL   H38244244   2.436   1.628   4.975 -0.5551  0.4017  0.6435
   92MOL   H38344245   2.535   1.819   4.849  0.4434  3.2986 -0.6053
   92MOL   H38444246   2.223   2.080   4.976 -0.3624 -1.0292  0.4230
   92MOL   H38544247   2.128   1.887   5.119 -0.7862 -0.3146 -0.4873
   92MOL   C38644248   2.559   2.160   5.001 -0.3099 -0.4819  0.0429
   92MOL   C38744249   2.611   2.275   5.063  0.1594  0.1032 -0.5124
   92MOL   C38844250   2.599   2.401   4.995  0.6426  0.2311  0.3757
   92MOL   C38944251   2.527   2.405   4.875  0.5651 -0.1054  0.1852
   92MOL   C39044252   2.469   2.292   4.816 -0.3670 -0.1696  0.0922
   92MOL   C39144253   2.486   2.167   4.878 -0.5697  0.5881 -0.1536
   92MOL   S39244254   2.658   2.551   5.066  0.4637 -0.4422 -0.0759
   92MOL   O39344255   2.607   2.549   5.206  0.0040  0.1439  0.5762
   92MOL   O39444256   2.621   2.656   4.969 -0.1948 -0.2485 -0.3710
   92MOL   C39544257   2.832   2.529   5.066  1.0106  0.3910 -0.1886
   92MOL   C39644258   2.899   2.518   4.943  0.5825  1.1541  0.7252
   92MOL   C39744259   3.039   2.503   4.944  0.0683 -0.1499  0.8009
   92MOL   C39844260   3.116   2.506   5.065  0.1934  0.2670 -0.2002
   92MOL   C39944261   3.043   2.519   5.188  0.1496  0.2759 -0.5394
   92MOL   C40044262   2.904   2.537   5.190  0.0541  0.5591  0.0161
   92MOL   O40144263   3.256   2.503   5.077 -0.5390 -0.1302 -0.0890
   92MOL   H40244264   2.565   2.065   5.053 -2.2969 -0.6783 -0.0646
   92MOL   H40344265   2.654   2.277   5.162  1.8488  0.7689 -1.2418
   92MOL   H40444266   2.508   2.493   4.816 -0.1821  0.6937  1.5982
   92MOL   H40544267   2.411   2.296   4.725  0.3307  4.6004 -0.2365
   92MOL   H40644268   2.841   2.532   4.854  0.4539 -1.1680  0.4114
   92MOL   H40744269   3.090   2.502   4.849  1.6686  1.5035  1.5988
   92MOL   H40844270   3.099   2.532   5.279 -0.6376  1.4058 -0.2037
   92MOL   H40944271   2.846   2.553   5.280  0.1452  1.3423 -0.0654
   92MOL   C41044272   3.387   2.324   5.006  0.3106  0.2253  0.4273
   92MOL   C41144273   3.469   2.263   4.909  0.5388 -0.1382 -0.3309
   92MOL   C41244274   3.500   2.334   4.786  1.0022  0.5521  0.1654
   92MOL   C41344275   3.438   2.463   4.772  0.5583 -0.0744 -0.5949
   92MOL   C41444276   3.359   2.522   4.869  0.7486  0.2379  0.2533
   92MOL   C41544277   3.326   2.449   4.985 -0.6884 -0.7902  0.3196
   92MOL   S41644278   3.609   2.260   4.672  0.0964  0.3071  0.2480
   92MOL   O41744279   3.612   2.114   4.694  0.0940  0.1711 -0.2899
   92MOL   O41844280   3.735   2.343   4.672  0.2584  0.6305 -0.5931
   92MOL   C41944281   3.525   2.291   4.511  0.2062  0.6555  0.4488
   92MOL   C42044282   3.607   2.333   4.405 -0.3076  0.5789  0.3177
   92MOL   C42144283   3.546   2.356   4.281  0.6543  0.6145  1.1597
   92MOL   C42244284   3.401   2.355   4.259  0.0466  0.0337 -0.0896
   92MOL   C42344285   3.327   2.299   4.358  0.0828 -0.5232 -0.4202
   92MOL   C42444286   3.381   2.263   4.488  0.3630 -0.3761  0.9619
   92MOL   O42544287   3.329   2.393   4.148  0.0115  0.7039  0.2109
   92MOL   H42644288   3.363   2.279   5.101 -1.2490 -1.5899 -0.8226
   92MOL   H42744289   3.512   2.165   4.925  1.1224 -0.1603 -1.9048
   92MOL   H42844290   3.458   2.530   4.690  0.7438  0.9916  0.3165
   92MOL   H42944291   3.314   2.620   4.860  0.7260  0.1038 -1.3761
   92MOL   H43044292   3.711   2.344   4.429 -0.2804  0.3927  0.2838
   92MOL   H43144293   3.606   2.371   4.193 -1.1650 -1.1044 -0.4020
   92MOL   H43244294   3.220   2.297   4.345 -0.1339  1.4686  0.8538
   92MOL   H43344295   3.324   2.223   4.570 -2.5770  1.2149 -0.2199
   92MOL   C43444296   3.457   2.456   3.947  0.6196  0.2258  0.3170
   92MOL   C43544297   3.492   2.563   3.861  0.0632 -0.3090  0.0538
   92MOL   C43644298   3.465   2.695   3.893 -0.2532  0.2018 -0.2136
   92MOL   C43744299   3.410   2.733   4.012  0.4333  0.3212  0.3776
   92MOL   C43844300   3.368   2.630   4.103  0.0108  0.1070 -0.1679
   92MOL   C43944301   3.382   2.494   4.068 -0.1143 -0.2275  0.1340
   92MOL   S44044302   3.531   2.822   3.782  0.0451  0.1330  0.1631
   92MOL   O44144303   3.480   2.952   3.811  0.1286 -0.5375  0.2872
   92MOL   O44244304   3.505   2.763   3.645  0.0000  0.1714 -0.4699
   92MOL   C44344305   3.702   2.824   3.816 -0.5166  0.3250  0.2754
   92MOL   C44444306   3.744   2.843   3.949  1.1653  1.0077  0.0122
   92MOL   C44544307   3.880   2.849   3.983 -0.7561 -0.0449 -0.3961
   92MOL   C44644308   3.972   2.821   3.877  0.7006  0.0909 -0.6309
   92MOL   C44744309   3.927   2.796   3.744 -0.6865 -0.1762 -0.9141
   92MOL   C44844310   3.791   2.796   3.714 -0.1376 -0.4910  0.8137
   92MOL   O44944311   4.105   2.810   3.899 -0.0685  0.2373 -0.2021
   92MOL   H45044312   3.449   2.355   3.910  0.6924  0.6861 -0.9711
   92MOL   H45144313   3.538   2.555   3.764  0.6599 -0.1905  0.3272
   92MOL   H45244314   3.401   2.838   4.035  0.9078  0.2368  0.9679
   92MOL   H45344315   3.323   2.657   4.197  0.7115 -1.5593  0.6703
   92MOL   H45444316   3.681   2.861   4.034  0.2104  0.4083 -0.5601
   92MOL   H45544317   3.916   2.876   4.081 -1.3209  0.4293 -0.3155
   92MOL   H45644318   4.006   2.783   3.671  0.2014  1.2427 -0.2176
   92MOL   H45744319   3.757   2.795   3.611  1.4691  2.1664  0.2129
   92MOL   C45844320   4.150   2.618   4.033 -0.5390  0.3733  0.1755
   92MOL   C45944321   4.187   2.559   4.153 -0.3356  0.3178  0.4756
   92MOL   C46044322   4.234   2.640   4.255 -0.2943  0.4529  0.4566
   92MOL   C46144323   4.241   2.783   4.239 -0.4042 -0.2736 -0.4337
   92MOL   C46244324   4.199   2.840   4.120  0.7433  0.2874 -0.3179
   92MOL   C46344325   4.147   2.756   4.013 -0.0277  0.4039 -0.0942
   92MOL   S46444326   4.300   2.570   4.408  0.5142  0.5462  0.1337
   92MOL   O46544327   4.223   2.452   4.441  0.8021 -0.2539 -0.1670
   92MOL   O46644328   4.319   2.682   4.501 -0.3310  0.2693  0.2232
   92MOL   C46744329   4.466   2.522   4.368 -0.4729  0.5019  0.5284
   92MOL   C46844330   4.498   2.449   4.249 -0.1804  0.6298  0.4151
   92MOL   C46944331   4.623   2.391   4.233  0.2211  0.0113 -0.8401
   92MOL   C47044332   4.728   2.426   4.324  0.2826 -0.2930 -0.5333
   92MOL   C47144333   4.695   2.484   4.444  0.0430 -0.3135  0.3499
   92MOL   C47244334   4.562   2.537   4.468  0.0626  0.2676  1.0550
   92MOL   O47344335   4.857   2.380   4.307 -0.0674 -0.0674  0.1222
   92MOL   H47444336   4.105   2.560   3.953 -0.5631  0.8639 -0.1652
   92MOL   H47544337   4.177   2.453   4.173 -2.2840  0.3932 -0.0129
   92MOL   H47644338   4.283   2.850   4.312 -1.9390  2.7306 -2.2048
   92MOL   H47744339   4.188   2.947   4.109  2.1549  0.8042  2.7571
   92MOL   H47844340   4.414   2.440   4.182 -0.3251  2.3159  0.3608
   92MOL   H47944341   4.637   2.337   4.141 -0.2311 -0.0472 -0.8739
   92MOL   H48044342   4.767   2.479   4.525  2.3840  0.4268 -1.6347
   92MOL   H48144343   4.541   2.589   4.560 -1.4798  0.8006  0.4116
   92MOL   H48244344   4.868   2.306   4.249 -0.7514 -0.4459  0.4639
   93MOL     C144345   0.870   1.454   2.901  0.4222 -0.5446 -0.2738
   93MOL     C244346   0.735   1.494   2.905  0.0854  0.4303  0.7456
   93MOL     C344347   0.640   1.431   2.993 -0.0021 -1.2583  0.1783
   93MOL     C444348   0.686   1.332   3.084  0.4685  0.4515 -0.1985
   93MOL     C544349   0.823   1.298   3.084 -0.1164 -0.6322 -0.3014
   93MOL     C644350   0.909   1.357   2.995 -0.5711 -0.8670  0.1236
   93MOL     S744351   0.466   1.482   2.988  0.2222 -0.5011  0.2673
   93MOL     O844352   0.462   1.627   3.020 -0.5186 -0.4376  0.5071
   93MOL     O944353   0.391   1.385   3.070 -0.0747  0.0072 -0.4514
   93MOL    C1044354   0.425   1.455   2.812 -0.6122 -0.8239  1.0002
   93MOL    C1144355   0.450   1.326   2.752 -0.2235 -0.0280  0.2956
   93MOL    C1244356   0.422   1.318   2.615 -0.4740 -0.7487 -0.1212
   93MOL    C1344357   0.381   1.425   2.536  0.0446 -0.0389  0.7982
   93MOL    C1444358   0.369   1.553   2.600 -0.3526  0.9290  0.1992
   93MOL    C1544359   0.395   1.564   2.737  0.0020 -0.1738  0.3672
   93MOL    O1644360   0.353   1.400   2.402 -0.0303  0.1057  0.2597
   93MOL    H1744361   0.940   1.513   2.844  0.1013  0.6223  0.5340
   93MOL    H1844362   0.700   1.565   2.833 -1.2957  0.3066  1.2860
   93MOL    H1944363   0.622   1.282   3.156  1.0559 -0.3495 -0.2252
   93MOL    H2044364   0.861   1.233   3.162  0.5609  0.0948 -0.0271
   93MOL    H2144365   0.458   1.245   2.822 -0.6946  0.8408  1.3781
   93MOL    H2244366   0.416   1.219   2.573 -0.8416 -0.7376 -0.1022
   93MOL    H2344367   0.325   1.637   2.548 -1.8749  0.8297  1.2747
   93MOL    H2444368   0.390   1.657   2.791  1.1424  0.1475 -0.0587
   93MOL    H2544369   1.016   1.342   2.997 -0.4095  0.2425  0.2616
   93MOL    C2644370   0.188   1.550   2.320 -0.3848 -0.8759 -0.4195
   93MOL    C2744371   0.051   1.570   2.280  0.6246 -0.5881 -0.4263
   93MOL    C2844372   8.375   1.475   2.304 -0.0890  0.0817 -0.1506
   93MOL    C2944373   8.417   1.348   2.352 -0.4361 -0.0689  0.1682
   93MOL    C3044374   0.126   1.321   2.391 -0.8042  0.3467  0.2699
   93MOL    C3144375   0.225   1.424   2.372  0.0608  0.5316  1.1330
   93MOL    S3244376   8.216   1.517   2.251 -0.3252 -0.3384  0.1053
   93MOL    O3344377   8.222   1.615   2.140  0.5212  0.2938 -0.2531
   93MOL    O3444378   8.129   1.548   2.369 -0.3726 -0.1787 -0.3868
   93MOL    C3544379   8.144   1.368   2.171 -0.7458  0.7723  0.1387
   93MOL    C3644380   8.221   1.257   2.116  0.4345 -0.3077 -1.0210
   93MOL    C3744381   8.157   1.155   2.042 -0.1598 -0.3190 -0.5583
   93MOL    C3844382   8.020   1.166   2.011 -0.2460  0.1892 -0.1889
   93MOL    C3944383   7.947   1.277   2.064 -0.2432 -0.1270 -0.6266
   93MOL    C4044384   8.008   1.373   2.152  0.5751  0.8846  0.4496
   93MOL    O4144385   7.965   1.065   1.938  0.3903 -0.4440 -0.0780
   93MOL    H4244386   0.253   1.635   2.313 -0.8955 -0.2739  1.6008
   93MOL    H4344387   0.028   1.669   2.242 -1.7902 -1.4766 -1.3482
   93MOL    H4444388   8.346   1.267   2.360  0.7742 -1.2102 -0.5741
   93MOL    H4544389   0.157   1.227   2.434  2.1092  0.9614 -0.3967
   93MOL    H4644390   8.328   1.246   2.124  0.7126  2.7957  0.2485
   93MOL    H4744391   8.210   1.065   2.012  0.5377 -0.6666  1.6549
   93MOL    H4844392   7.844   1.292   2.037  0.9645  3.2119 -3.7271
   93MOL    H4944393   7.949   1.457   2.186 -0.7154  0.2471 -0.1808
   93MOL    C5044394   7.755   0.958   1.978  0.3478  0.5827 -0.3663
   93MOL    C5144395   7.623   0.915   1.939  0.6275  0.1167 -0.0081
   93MOL    C5244396   7.562   0.987   1.830  0.0488  0.2440  0.0493
   93MOL    C5344397   7.629   1.100   1.778  0.1957  0.3908  0.3134
   93MOL    C5444398   7.759   1.129   1.813  0.2801 -0.1935  0.4733
   93MOL    C5544399   7.827   1.054   1.912 -0.1205 -0.3388 -0.2224
   93MOL    S5644400   7.407   0.923   1.747 -0.2507 -0.2080 -0.1081
   93MOL    O5744401   7.439   0.816   1.646 -0.4776  0.3002  0.8204
   93MOL    O5844402   7.327   1.039   1.700 -0.3586  0.5204  0.3907
   93MOL    C5944403   7.322   0.842   1.880  0.2748  0.5545 -0.4733
   93MOL    C6044404   7.248   0.727   1.856 -0.7431  0.5534  0.2850
   93MOL    C6144405   7.184   0.658   1.959  0.5662 -0.2639  0.0083
   93MOL    C6244406   7.193   0.702   2.087  0.6422 -0.5294 -0.9601
   93MOL    C6344407   7.260   0.826   2.117 -0.7869  0.1410  0.2904
   93MOL    C6444408   7.327   0.890   2.011  0.3864  0.7436  0.5888
   93MOL    O6544409   7.125   0.641   2.183 -0.2159  0.2104 -0.1358
   93MOL    H6644410   7.810   0.908   2.056  1.4294 -1.3040 -2.3066
   93MOL    H6744411   7.579   0.829   1.985  3.9261 -1.4243  0.4025
   93MOL    H6844412   7.581   1.158   1.701  0.3984 -1.1391 -1.0184
   93MOL    H6944413   7.826   1.190   1.755 -0.1851  1.2812  1.4552
   93MOL    H7044414   7.247   0.687   1.756  0.5058 -1.3094  0.9949
   93MOL    H7144415   7.125   0.568   1.947  0.7589 -0.9702  3.5083
   93MOL    H7244416   7.262   0.857   2.221  1.7009 -0.2112  0.3931
   93MOL    H7344417   7.389   0.977   2.023 -0.3715  1.4919 -0.8350
   93MOL    C7444418   7.195   0.410   2.169  0.2350  0.9841 -0.2490
   93MOL    C7544419   7.264   0.302   2.222 -0.5020  0.2147  0.7635
   93MOL    C7644420   7.348   0.325   2.336 -0.4234  0.2065 -0.1983
   93MOL    C7744421   7.362   0.450   2.399  0.1482 -0.4761 -0.3465
   93MOL    C7844422   7.283   0.552   2.349  0.4604 -0.5724 -0.0638
   93MOL    C7944423   7.197   0.534   2.236 -0.2578  0.4100 -0.2308
   93MOL    S8044424   7.438   0.181   2.397 -0.0722  0.0059 -0.0140
   93MOL    O8144425   7.510   0.110   2.286 -0.2505  0.4184 -0.5912
   93MOL    O8244426   7.339   0.107   2.478  0.1678 -0.0509  0.4047
   93MOL    C8344427   7.565   0.233   2.504  0.3665 -0.4910 -0.1403
   93MOL    C8444428   7.534   0.263   2.637 -0.3334 -0.3906 -0.3785
   93MOL    C8544429   7.636   0.296   2.723  0.3195  0.2796 -0.0072
   93MOL    C8644430   7.770   0.295   2.682  1.4377 -0.6891 -0.0141
   93MOL    C8744431   7.807   0.254   2.557  0.4555 -0.1544 -0.5716
   93MOL    C8844432   7.700   0.218   2.466  0.0742 -0.3078  0.2188
   93MOL    O8944433   7.865   0.342   2.762  0.1058 -0.3316 -0.2802
   93MOL    H9044434   7.136   0.395   2.080  1.5989  0.7056 -1.1321
   93MOL    H9144435   7.257   0.204   2.178 -0.0235  0.2653  0.5776
   93MOL    H9244436   7.423   0.477   2.484 -0.7299  3.7108 -0.8995
   93MOL    H9344437   7.288   0.651   2.393 -1.8202 -0.5647  0.2663
   93MOL    H9444438   7.429   0.279   2.661 -0.0418  1.6839 -0.3575
   93MOL    H9544439   7.596   0.323   2.820  0.9550 -0.2840  0.4128
   93MOL    H9644440   7.911   0.257   2.528  0.9625  2.0663  1.3149
   93MOL    H9744441   7.720   0.189   2.364  2.1911  1.2665  0.1586
   93MOL    C9844442   7.975   0.153   2.859 -0.0648  0.0754  0.2882
   93MOL    C9944443   8.029   0.091   2.971 -0.3280  0.0710  0.3919
   93MOL   C10044444   8.000   0.142   3.096  0.2904  0.5245  0.3147
   93MOL   C10144445   7.933   0.264   3.112 -0.3582  0.0936 -0.0815
   93MOL   C10244446   7.880   0.327   3.001 -0.1073  0.3414 -0.1200
   93MOL   C10344447   7.898   0.270   2.873  0.3326  0.1672  0.4457
   93MOL   S10444448   8.034   0.045   3.243 -0.0389  0.1781  0.4081
   93MOL   O10544449   8.046   8.328   3.207  0.3425 -0.4482  0.1667
   93MOL   O10644450   7.941   0.075   3.354  0.6646  0.0413 -0.4785
   93MOL   C10744451   8.201   0.070   3.297 -0.9186 -0.2145 -0.0159
   93MOL   C10844452   8.311   0.078   3.205 -1.0903  1.0457 -0.0144
   93MOL   C10944453   0.019   0.096   3.255  0.1832  0.2637  0.2608
   93MOL   C11044454   0.046   0.103   3.393  0.1633 -0.5547  0.4487
   93MOL   C11144455   8.363   0.090   3.485  0.5282  0.1965 -0.3394
   93MOL   C11244456   8.233   0.072   3.435  0.7431 -1.2105 -0.3098
   93MOL   O11344457   0.171   0.119   3.438 -0.0046 -0.3673 -0.0353
   93MOL   H11444458   7.992   0.115   2.759 -0.2873 -3.0355  1.3658
   93MOL   H11544459   8.072   8.417   2.962  1.1999  0.7187  0.4481
   93MOL   H11644460   7.921   0.293   3.215  1.5125  0.0542  0.1512
   93MOL   H11744461   7.832   0.423   3.011 -0.9819 -0.1485  0.4639
   93MOL   H11844462   8.302   0.055   3.100  0.3812 -1.8153  0.4054
   93MOL   H11944463   0.093   0.108   3.178  2.0322  0.9136  2.0994
   93MOL   H12044464   8.390   0.090   3.590  1.0262 -1.1488 -0.4600
   93MOL   H12144465   8.154   0.053   3.506  1.7146  1.3306  1.5379
   93MOL   C12244466   0.299   8.332   3.467  0.0783 -0.1703 -0.1377
   93MOL   C12344467   0.361   8.246   3.553  0.2480  0.2878  0.3534
   93MOL   C12444468   0.344   8.266   3.692  0.2526 -0.1750  0.8029
   93MOL   C12544469   0.278   8.385   3.747 -0.1915 -0.1311 -0.0270
   93MOL   C12644470   0.216   0.042   3.656 -0.3436 -1.1456 -0.8338
   93MOL   C12744471   0.227   0.016   3.516 -0.5456  0.2529  0.5623
   93MOL   S12844472   0.398   8.147   3.812 -0.0778  0.1787 -0.5028
   93MOL   O12944473   0.392   8.021   3.740 -0.2816  0.1804 -0.1598
   93MOL   O13044474   0.321   8.163   3.934  0.5860  0.0468 -0.1931
   93MOL   C13144475   0.566   8.190   3.842 -0.6759  0.4933 -1.1926
   93MOL   C13244476   0.602   8.244   3.966  0.1587 -0.1057 -0.4242
   93MOL   C13344477   0.736   8.277   3.998 -0.2170  0.9557  0.1514
   93MOL   C13444478   0.832   8.263   3.900  0.5171  0.8370  0.4924
   93MOL   C13544479   0.797   8.205   3.777 -0.1784  0.6791  0.1535
   93MOL   C13644480   0.666   8.168   3.746 -1.2663  0.0569 -0.2427
   93MOL   O13744481   0.961   8.285   3.933 -0.1126 -0.7199  0.7471
   93MOL   H13844482   0.311   8.311   3.361 -1.8587  1.3296 -0.6724
   93MOL   H13944483   0.424   8.165   3.518 -1.4577  0.2894 -2.9581
   93MOL   H14044484   0.275   8.391   3.855 -0.3886 -2.3407  0.1143
   93MOL   H14144485   0.159   0.127   3.691  1.3984 -0.5380  0.5956
   93MOL   H14244486   0.530   8.256   4.046  0.0651  1.3978 -0.7267
   93MOL   H14344487   0.750   8.325   4.094  0.7038  0.1516  0.4197
   93MOL   H14444488   0.877   8.181   3.709  0.4556  1.4214  0.6194
   93MOL   H14544489   0.634   8.120   3.655  0.7262 -1.0060 -0.4073
   93MOL   C14644490   1.005   0.044   3.777  0.8339  0.2266  0.1543
   93MOL   C14744491   1.101   0.124   3.708  0.0944  0.4335 -0.5243
   93MOL   C14844492   1.239   0.102   3.726 -0.1225 -1.2595 -0.4871
   93MOL   C14944493   1.281   8.421   3.813  0.6790  0.4373  0.0099
   93MOL   C15044494   1.185   8.334   3.880 -0.2109  0.2565  0.4239
   93MOL   C15144495   1.046   8.359   3.854 -0.3999  0.3179 -0.5751
   93MOL   S15244496   1.356   0.187   3.625 -0.0003  0.6960  0.1661
   93MOL   O15344497   1.286   0.271   3.525 -0.0136  0.0075  0.2498
   93MOL   O15444498   1.455   0.092   3.570 -0.1965  0.1149 -0.2604
   93MOL   C15544499   1.447   0.306   3.734 -0.5553  0.2736 -0.7340
   93MOL   C15644500   1.568   0.261   3.794  0.5982  0.6938  0.1696
   93MOL   C15744501   1.646   0.351   3.866 -0.6826  0.0853 -0.3146
   93MOL   C15844502   1.605   0.489   3.868 -0.3993 -0.1634 -0.2431
   93MOL   C15944503   1.481   0.532   3.814 -0.9214  0.0729  0.6926
   93MOL   C16044504   1.405   0.438   3.750  0.0419 -0.0731 -0.2714
   93MOL   O16144505   1.680   0.580   3.936 -0.4689  0.4677 -0.0696
   93MOL   H16244506   0.900   0.055   3.756  0.7172  0.9524  1.0759
   93MOL   H16344507   1.075   0.201   3.637 -1.6918  0.2149 -0.1140
   93MOL   H16444508   1.388   8.408   3.819  0.6635 -0.0910 -0.8044
   93MOL   H16544509   1.212   8.259   3.953  0.9590  2.8328  2.7361
   93MOL   H16644510   1.608   0.162   3.780  2.3040  1.0745  2.2272
   93MOL   H16744511   1.732   0.323   3.926 -1.7055 -1.1572  0.6329
   93MOL   H16844512   1.456   0.637   3.822  1.8976  0.7438  1.0553
   93MOL   H16944513   1.308   0.453   3.703 -1.1549 -1.3306  1.7608
   93MOL   C17044514   1.878   0.690   3.979 -0.0563 -0.3774 -0.9858
   93MOL   C17144515   2.009   0.733   3.947  0.2192 -0.8671 -0.0778
   93MOL   C17244516   2.065   0.683   3.828 -0.3168 -0.5233  0.1965
   93MOL   C17344517   1.998   0.594   3.746 -0.2600 -0.0126  0.0356
   93MOL   C17444518   1.868   0.560   3.777 -0.4174  0.2932  0.1836
   93MOL   C17544519   1.804   0.609   3.896 -0.2470  0.2879  0.5794
   93MOL   S17644520   2.230   0.717   3.791 -0.0386  0.7217 -0.4792
   93MOL   O17744521   2.300   0.588   3.811 -0.1209  0.1382  0.2033
   93MOL   O17844522   2.276   0.841   3.856  0.7095 -0.0800 -0.3200
   93MOL   C17944523   2.220   0.755   3.620  0.7797 -0.2811  0.3580
   93MOL   C18044524   2.226   0.651   3.525 -0.5284  1.1806  1.1626
   93MOL   C18144525   2.200   0.679   3.386 -0.0275  0.2757 -0.8481
   93MOL   C18244526   2.167   0.817   3.354 -0.5150  0.6719  0.0582
   93MOL   C18344527   2.166   0.919   3.450  0.1506  0.0845 -0.1719
   93MOL   C18444528   2.200   0.886   3.581 -0.2266  0.2870  0.6048
   93MOL   O18544529   2.147   0.852   3.219  0.4226 -0.0781 -0.1860
   93MOL   H18644530   1.828   0.738   4.061 -0.1884  0.4559 -1.5492
   93MOL   H18744531   2.079   0.790   4.007 -0.0206 -0.8378  0.1715
   93MOL   H18844532   2.044   0.547   3.661 -2.8645 -2.1364 -0.2706
   93MOL   H18944533   1.821   0.496   3.704  0.0392 -1.0772  1.0762
   93MOL   H19044534   2.252   0.549   3.550  1.0243  1.6307  1.4765
   93MOL   H19144535   2.203   0.607   3.306  0.8666  0.9164 -1.4005
   93MOL   H19244536   2.158   1.023   3.422 -1.0977 -0.3462 -1.5028
   93MOL   H19344537   2.198   0.957   3.663 -1.3756  1.2404 -0.2285
   93MOL   C19444538   1.909   0.852   3.159 -0.3583 -0.1036  0.2076
   93MOL   C19544539   1.796   0.915   3.105 -0.4386  0.3054 -0.3145
   93MOL   C19644540   1.814   1.044   3.051 -0.1125 -0.3646  0.1551
   93MOL   C19744541   1.931   1.121   3.074 -0.1584 -0.5325  0.1411
   93MOL   C19844542   2.045   1.057   3.134  0.3149 -0.1464 -0.3096
   93MOL   C19944543   2.035   0.918   3.173 -0.2698  0.4079  0.6932
   93MOL   S20044544   1.675   1.117   2.966 -0.2312  0.1177 -0.2076
   93MOL   O20144545   1.562   1.022   2.961  0.7173 -0.4654 -0.3615
   93MOL   O20244546   1.731   1.175   2.838 -0.2275  0.0833  0.1927
   93MOL   C20344547   1.630   1.262   3.062 -0.2023 -0.1878  0.8646
   93MOL   C20444548   1.716   1.380   3.054  0.5134  0.3339 -0.1551
   93MOL   C20544549   1.675   1.498   3.122 -0.3784 -0.0380  0.3018
   93MOL   C20644550   1.568   1.496   3.214  0.9171  0.0842 -0.5339
   93MOL   C20744551   1.489   1.382   3.222 -0.3020  0.8053  0.2809
   93MOL   C20844552   1.520   1.265   3.146  0.1303 -0.2319  0.5908
   93MOL   O20944553   1.520   1.615   3.268  0.5235  0.0136 -0.5123
   93MOL   H21044554   1.899   0.748   3.187 -1.8838  0.8783  3.5437
   93MOL   H21144555   1.701   0.865   3.093 -0.3411  0.0836 -0.1737
   93MOL   H21244556   1.926   1.221   3.033  2.5769 -1.3361 -2.3450
   93MOL   H21344557   2.134   1.116   3.145 -0.9869  1.5305  1.5771
   93MOL   H21444558   1.803   1.378   2.990 -0.3367  0.2977 -1.3420
   93MOL   H21544559   1.720   1.594   3.102 -0.7762  0.4747  1.7718
   93MOL   H21644560   1.395   1.383   3.276 -1.1791 -1.4460 -1.1628
   93MOL   H21744561   1.457   1.178   3.148  0.8955 -0.7925  0.4336
   93MOL   C21844562   1.589   1.817   3.359 -0.4711 -0.1271 -0.8314
   93MOL   C21944563   1.642   1.901   3.455  0.5461  0.4020 -0.6675
   93MOL   C22044564   1.705   1.840   3.563 -0.0063 -0.3414 -0.4284
   93MOL   C22144565   1.719   1.698   3.569 -0.1056  0.3607 -0.1648
   93MOL   C22244566   1.660   1.614   3.473  0.4668 -0.2517 -0.0438
   93MOL   C22344567   1.595   1.679   3.364  0.5923  0.5125  0.4598
   93MOL   S22444568   1.798   1.937   3.686  0.3877  0.2240 -0.2526
   93MOL   O22544569   1.741   2.069   3.693  0.3312  0.2805  0.0934
   93MOL   O22644570   1.940   1.925   3.643  0.5567  0.4287 -0.2205
   93MOL   C22744571   1.779   1.854   3.842  0.5123 -0.2022  0.4056
   93MOL   C22844572   1.890   1.790   3.907 -0.6568  0.3997  0.1573
   93MOL   C22944573   1.869   1.723   4.038  0.0029  0.2323 -0.0400
   93MOL   C23044574   1.743   1.740   4.107 -0.8543  0.0275  0.2386
   93MOL   C23144575   1.638   1.803   4.044 -0.1347 -0.7503  0.1082
   93MOL   C23244576   1.655   1.852   3.909 -0.2987  0.2540  0.0915
   93MOL   O23344577   1.729   1.705   4.242  0.6546  0.4348 -0.1845
   93MOL   H23444578   1.536   1.856   3.273  0.3254  4.3251  0.5614
   93MOL   H23544579   1.638   2.009   3.446 -1.0046  0.3615 -0.6088
   93MOL   H23644580   1.777   1.650   3.646  0.1807 -1.2072 -1.3378
   93MOL   H23744581   1.665   1.506   3.480 -0.6393 -0.3108 -0.1419
   93MOL   H23844582   1.988   1.786   3.862 -1.7525  2.9846 -2.6377
   93MOL   H23944583   1.953   1.675   4.087 -0.2471  1.3692  1.5276
   93MOL   H24044584   1.541   1.800   4.090 -0.1317 -0.5237  0.1305
   93MOL   H24144585   1.572   1.890   3.851  0.1025 -1.4952 -1.6724
   93MOL   C24244586   1.635   1.484   4.223  0.8870 -0.4078  0.1837
   93MOL   C24344587   1.520   1.399   4.251 -0.6449 -0.4731  0.0647
   93MOL   C24444588   1.415   1.440   4.333  0.0294 -0.6598 -0.0300
   93MOL   C24544589   1.415   1.572   4.379  0.5750  0.2587 -0.2170
   93MOL   C24644590   1.520   1.661   4.352  0.2564 -0.6576  0.7187
   93MOL   C24744591   1.629   1.613   4.275 -1.1948 -0.4268  0.0009
   93MOL   S24844592   1.271   1.330   4.388 -0.0791 -0.0795  0.1127
   93MOL   O24944593   1.155   1.419   4.394  0.5341 -0.5479 -0.3621
   93MOL   O25044594   1.311   1.256   4.510 -0.0667  0.3319  0.2115
   93MOL   C25144595   1.240   1.208   4.266  0.1027 -0.4127 -0.3027
   93MOL   C25244596   1.187   1.085   4.306 -0.2192 -0.6270  0.3466
   93MOL   C25344597   1.139   0.992   4.208  0.1445 -0.3403 -0.2710
   93MOL   C25444598   1.139   1.020   4.068 -0.2975 -0.3282 -0.6405
   93MOL   C25544599   1.192   1.142   4.030  0.9269  0.2498 -0.4208
   93MOL   C25644600   1.244   1.231   4.125 -0.2921 -0.0598 -0.4663
   93MOL   O25744601   1.089   0.927   3.974  0.7770 -0.4353 -0.3676
   93MOL   H25844602   1.714   1.457   4.155 -0.4169  0.3414 -1.6739
   93MOL   H25944603   1.540   1.300   4.211  1.9903 -0.2218  0.6315
   93MOL   H26044604   1.328   1.595   4.439 -0.0983  1.4896 -1.6430
   93MOL   H26144605   1.513   1.763   4.385 -1.2373 -0.2474 -0.7934
   93MOL   H26244606   1.194   1.053   4.409  0.4123 -2.0525 -0.1312
   93MOL   H26344607   1.092   0.900   4.238  0.2657 -0.1373  0.5501
   93MOL   H26444608   1.191   1.168   3.925  0.1660  0.5676 -0.3415
   93MOL   H26544609   1.273   1.321   4.074  0.6937  0.2422  0.6171
   93MOL   C26644610   1.225   0.738   4.026  0.1857 -0.2193  0.4038
   93MOL   C26744611   1.241   0.601   4.041 -0.2722  0.0225  0.5333
   93MOL   C26844612   1.127   0.521   4.061 -0.3155  0.6213  0.4471
   93MOL   C26944613   0.998   0.579   4.047  0.3894  0.3953 -0.7681
   93MOL   C27044614   0.984   0.717   4.019 -0.3829 -0.8752 -0.1639
   93MOL   C27144615   1.096   0.800   4.003 -1.0014  0.8918  0.2378
   93MOL   S27244616   1.156   0.344   4.106 -0.4547  0.0106  0.0382
   93MOL   O27344617   1.226   0.331   4.234 -0.7204 -0.6694  0.3331
   93MOL   O27444618   1.227   0.278   3.996  0.2854  0.3001 -0.2200
   93MOL   C27544619   0.993   0.274   4.122  0.1377  0.2508  0.7617
   93MOL   C27644620   0.934   0.252   4.251  0.9957  0.6832 -0.1181
   93MOL   C27744621   0.798   0.214   4.263 -0.0789  0.1137  0.2638
   93MOL   C27844622   0.728   0.194   4.147  0.0265  0.2572 -0.2082
   93MOL   C27944623   0.783   0.221   4.019 -0.7731 -0.1293  0.2171
   93MOL   C28044624   0.921   0.260   4.005 -0.4259  0.1592 -0.1589
   93MOL   O28144625   0.593   0.167   4.153 -0.2243 -0.0905  0.4723
   93MOL   H28244626   1.308   0.805   4.009  0.6195 -1.7597 -4.1803
   93MOL   H28344627   1.337   0.555   4.060 -1.1189 -2.8724 -1.8817
   93MOL   H28444628   0.911   0.517   4.061  1.3966 -1.0277 -0.6693
   93MOL   H28544629   0.890   0.769   4.011  0.6034  0.6216 -3.0097
   93MOL   H28644630   0.996   0.267   4.339 -0.6121  1.7242  0.8561
   93MOL   H28744631   0.751   0.200   4.360 -1.4349  0.0284 -0.4045
   93MOL   H28844632   0.733   0.206   3.924 -1.2092  2.1368  0.0537
   93MOL   H28944633   0.955   0.290   3.907  0.1237  1.7623  0.5081
   93MOL   C29044634   0.486   0.339   4.027  0.2734 -0.1425  0.3848
   93MOL   C29144635   0.395   0.447   4.027 -0.1505  0.2117  0.5724
   93MOL   C29244636   0.328   0.485   4.149 -0.2085 -0.2417 -0.1539
   93MOL   C29344637   0.356   0.416   4.268  0.3464  1.1732  0.7785
   93MOL   C29444638   0.447   0.313   4.264  0.2521 -0.0707  0.1912
   93MOL   C29544639   0.508   0.273   4.145 -0.1849 -0.2534  0.3109
   93MOL   S29644640   0.218   0.625   4.143 -0.2115  0.0746 -0.0632
   93MOL   O29744641   0.130   0.636   4.263 -0.4810  0.3632 -0.3563
   93MOL   O29844642   0.163   0.639   4.005  0.2068  0.1305 -0.1277
   93MOL   C29944643   0.335   0.767   4.162  0.3349  0.7301 -0.3044
   93MOL   C30044644   0.363   0.810   4.292  0.3016  0.2909  0.8472
   93MOL   C30144645   0.457   0.918   4.309 -0.2212 -0.3324 -0.1667
   93MOL   C30244646   0.510   0.985   4.198  0.9709 -0.3961  0.4536
   93MOL   C30344647   0.476   0.940   4.068  0.2437 -0.3939 -0.1174
   93MOL   C30444648   0.389   0.833   4.051 -0.7741  0.0225  0.3209
   93MOL   O30544649   0.598   1.091   4.226  0.1646  0.0342 -0.1623
   93MOL   H30644650   0.525   0.306   3.932 -0.1840 -0.5750  0.3456
   93MOL   H30744651   0.375   0.507   3.939  3.2849  2.0315  0.9742
   93MOL   H30844652   0.314   0.448   4.362  1.2676 -0.8608  1.9111
   93MOL   H30944653   0.458   0.254   4.353 -1.0495  0.4394  0.7062
   93MOL   H31044654   0.322   0.749   4.370  0.5015 -2.6771 -1.2842
   93MOL   H31144655   0.487   0.954   4.407  0.2753 -1.8987  0.2643
   93MOL   H31244656   0.515   0.992   3.981 -0.1937  1.1248  0.5618
   93MOL   H31344657   0.369   0.794   3.953 -3.6797 -2.5542  1.8549
   93MOL   C31444658   0.766   1.106   4.056  0.1165  0.5363  0.3809
   93MOL   C31544659   0.812   1.165   3.939 -0.8670 -0.0046  0.3432
   93MOL   C31644660   0.748   1.271   3.879 -0.5125 -0.7087 -0.0313
   93MOL   C31744661   0.642   1.334   3.948  0.5362  0.0738 -0.1073
   93MOL   C31844662   0.605   1.283   4.073  0.6909 -0.3601  0.1213
   93MOL   C31944663   0.655   1.157   4.119  0.1743  0.3025 -0.8830
   93MOL   S32044664   0.805   1.341   3.727 -0.2078  0.0317  0.0160
   93MOL   O32144665   0.950   1.315   3.717  0.2874 -0.1454  0.3880
   93MOL   O32244666   0.754   1.482   3.717 -0.4734  0.3217  0.5450
   93MOL   C32344667   0.725   1.236   3.600  0.6145 -0.2605 -0.1119
   93MOL   C32444668   0.623   1.285   3.519  0.2724 -0.6177  0.7537
   93MOL   C32544669   0.564   1.201   3.419  0.6912  0.1594  0.4773
   93MOL   C32644670   0.607   1.070   3.405  0.0900 -0.1319 -0.2786
   93MOL   C32744671   0.704   1.014   3.489  0.3781  0.9648 -0.1049
   93MOL   C32844672   0.758   1.099   3.590 -0.0104  0.3729 -0.5076
   93MOL   O32944673   0.548   0.992   3.309  0.5251 -0.6513  0.4043
   93MOL   H33044674   0.799   1.012   4.100 -0.1718 -0.0627 -0.6636
   93MOL   H33144675   0.895   1.120   3.886  0.7955 -0.1626  2.9756
   93MOL   H33244676   0.588   1.420   3.911  1.4232  0.1849 -1.1483
   93MOL   H33344677   0.525   1.329   4.128 -0.1521  1.1820 -2.3106
   93MOL   H33444678   0.601   1.390   3.535  1.3024 -0.4561  1.2030
   93MOL   H33544679   0.483   1.240   3.359  1.0614  1.0218  0.5172
   93MOL   H33644680   0.734   0.910   3.484 -0.9336  0.5272  0.6691
   93MOL   H33744681   0.827   1.061   3.664 -1.0934 -0.1126  0.2804
   93MOL   C33844682   0.730   0.979   3.157  0.2822  0.2902  0.6966
   93MOL   C33944683   0.783   0.978   3.030 -0.2310 -0.0935  0.1930
   93MOL   C34044684   0.696   0.981   2.919 -0.2913  0.8766  0.2378
   93MOL   C34144685   0.561   1.006   2.941 -0.5719  0.0826  0.0841
   93MOL   C34244686   0.512   1.011   3.074 -0.4031 -0.7560  0.1288
   93MOL   C34344687   0.593   0.993   3.179  0.0201 -0.1416  0.4244
   93MOL   S34444688   0.765   0.963   2.750 -0.3370  0.1341 -0.0273
   93MOL   O34544689   0.650   0.992   2.661  0.4383  0.0141  0.3614
   93MOL   O34644690   0.839   0.832   2.748  0.0829 -0.6255  0.2395
   93MOL   C34744691   0.894   1.086   2.731  0.4089 -0.0119  0.0801
   93MOL   C34844692   1.025   1.054   2.771  0.6697  0.5141 -0.2063
   93MOL   C34944693   1.132   1.134   2.733  0.4008 -0.5566 -0.0977
   93MOL   C35044694   1.110   1.250   2.659 -0.0116  0.3223 -0.0979
   93MOL   C35144695   0.975   1.290   2.629 -1.1083 -0.0334  0.5922
   93MOL   C35244696   0.868   1.211   2.670  0.4926 -0.0248 -0.2614
   93MOL   O35344697   1.215   1.323   2.612  1.0028 -0.1020 -0.5244
   93MOL   H35444698   0.800   0.962   3.238 -1.3700 -1.5156  1.7729
   93MOL   H35544699   0.890   0.969   3.015 -0.1750 -1.1268  1.1624
   93MOL   H35644700   0.492   1.002   2.858 -0.5110 -2.9915  0.1547
   93MOL   H35744701   0.409   1.028   3.101 -0.1686  1.2383 -0.1208
   93MOL   H35844702   1.044   0.962   2.825 -2.4982 -0.2684 -0.3237
   93MOL   H35944703   1.234   1.108   2.757  1.0791  2.6213  0.7224
   93MOL   H36044704   0.942   1.370   2.563 -1.8552 -0.3015  0.6384
   93MOL   H36144705   0.768   1.243   2.641  0.2339 -0.0868  0.5390
   93MOL   C36244706   1.192   1.546   2.699  0.1684  0.3499  0.9196
   93MOL   C36344707   1.224   1.647   2.783 -0.1189 -0.2864 -0.2185
   93MOL   C36444708   1.329   1.626   2.874 -0.5055 -0.1528 -0.0655
   93MOL   C36544709   1.394   1.500   2.879 -0.5414  0.5108 -0.3233
   93MOL   C36644710   1.362   1.400   2.785 -0.3007 -0.4488  0.0264
   93MOL   C36744711   1.255   1.423   2.697  0.8624 -0.0221  0.0734
   93MOL   S36844712   1.403   1.763   2.969 -0.2706 -0.1013 -0.5435
   93MOL   O36944713   1.545   1.732   2.989 -0.4032  0.3526  0.2727
   93MOL   O37044714   1.319   1.791   3.089 -0.3178  0.3327  0.3889
   93MOL   C37144715   1.405   1.921   2.867 -0.3976  0.1081 -0.2985
   93MOL   C37244716   1.408   1.922   2.730 -0.2679 -0.2694 -0.4920
   93MOL   C37344717   1.426   2.044   2.664  0.2647 -0.5661  0.9568
   93MOL   C37444718   1.433   2.164   2.730 -0.0320  0.4078 -0.0053
   93MOL   C37544719   1.418   2.164   2.868 -0.2653  0.5748 -0.0544
   93MOL   C37644720   1.414   2.041   2.937 -0.3802 -0.0853 -0.5343
   93MOL   O37744721   1.440   2.276   2.654 -0.5785  0.3918 -0.3840
   93MOL   H37844722   1.108   1.557   2.633  0.8584 -0.5117 -0.1315
   93MOL   H37944723   1.173   1.742   2.772 -2.0991 -1.1486  1.2485
   93MOL   H38044724   1.482   1.492   2.941 -0.1660  0.3286 -0.8726
   93MOL   H38144725   1.418   1.309   2.770  0.4962 -0.1798  1.2409
   93MOL   H38244726   1.405   1.830   2.674  3.9050 -1.4979  1.1094
   93MOL   H38344727   1.437   2.046   2.557  0.4608 -0.8287  0.9702
   93MOL   H38444728   1.428   2.253   2.928  1.3737 -0.4812  1.3028
   93MOL   H38544729   1.419   2.035   3.044 -1.1025  1.8354 -0.3686
   93MOL   C38644730   1.469   2.496   2.738 -0.3973  0.3866  0.6721
   93MOL   C38744731   1.555   2.607   2.762 -0.0632 -0.7341  0.2514
   93MOL   C38844732   1.694   2.591   2.745 -0.0541 -0.9565 -0.1386
   93MOL   C38944733   1.750   2.467   2.723 -0.0449 -0.0658 -0.5724
   93MOL   C39044734   1.666   2.356   2.703 -0.4056 -0.4880  0.1089
   93MOL   C39144735   1.527   2.374   2.693 -0.5951  0.7684 -0.4683
   93MOL   S39244736   1.808   2.725   2.781 -0.0258  0.3990  0.0300
   93MOL   O39344737   1.830   2.799   2.653 -0.1130 -0.2345 -0.3824
   93MOL   O39444738   1.925   2.670   2.851 -0.0760 -0.6732 -0.3008
   93MOL   C39544739   1.717   2.843   2.889 -0.0384  0.5977  0.8412
   93MOL   C39644740   1.652   2.791   3.008 -0.5055 -0.4637 -0.7720
   93MOL   C39744741   1.597   2.883   3.096 -0.8028  0.0967 -0.5708
   93MOL   C39844742   1.604   3.023   3.079  0.3779  0.1605  1.1236
   93MOL   C39944743   1.672   3.066   2.963 -0.4733 -0.1542  0.1417
   93MOL   C40044744   1.728   2.978   2.865  0.4267 -0.7097  0.3557
   93MOL   O40144745   1.542   3.110   3.166  0.0110 -0.0141  0.2051
   93MOL   H40244746   1.363   2.512   2.747 -0.4796 -0.0716  0.4872
   93MOL   H40344747   1.515   2.700   2.799  1.1878  0.0744 -0.3619
   93MOL   H40444748   1.856   2.449   2.721 -0.3243 -1.8747 -0.8988
   93MOL   H40544749   1.707   2.259   2.677 -0.6982 -0.4421 -0.5318
   93MOL   H40644750   1.654   2.685   3.028 -1.3273 -0.7083 -1.9870
   93MOL   H40744751   1.539   2.852   3.181 -2.2392  1.0010 -1.2141
   93MOL   H40844752   1.680   3.172   2.945  3.2286 -0.3243  0.3441
   93MOL   H40944753   1.790   3.004   2.781 -0.6341  1.2792  0.1718
   93MOL   C41044754   1.399   3.072   3.350 -0.6944 -0.5084  0.2892
   93MOL   C41144755   1.382   3.045   3.487 -0.1689 -0.5729  0.0647
   93MOL   C41244756   1.499   2.998   3.566 -0.2846 -0.2588  0.3381
   93MOL   C41344757   1.627   3.011   3.514  0.3522 -0.6822  0.0092
   93MOL   C41444758   1.636   3.051   3.378  0.3679 -0.1814 -0.1699
   93MOL   C41544759   1.525   3.078   3.296  0.5239 -0.3478  0.2233
   93MOL   S41644760   1.475   2.931   3.735  0.2011 -0.1317  0.4231
   93MOL   O41744761   1.539   2.800   3.725 -0.6776 -0.2933  0.3203
   93MOL   O41844762   1.333   2.942   3.765  0.0338 -0.1767 -0.8733
   93MOL   C41944763   1.555   3.037   3.851 -0.2106 -0.4794 -0.1761
   93MOL   C42044764   1.586   2.983   3.978 -0.5313 -0.5171  0.3968
   93MOL   C42144765   1.624   3.072   4.086  0.1338  0.1620  0.1350
   93MOL   C42244766   1.634   3.214   4.062  0.1434  0.2106  0.6090
   93MOL   C42344767   1.620   3.258   3.931  0.6444 -0.3054 -0.2541
   93MOL   C42444768   1.576   3.172   3.829  0.1378 -0.6084  0.8865
   93MOL   O42544769   1.669   3.303   4.159  0.0594 -0.4250  0.7357
   93MOL   H42644770   1.314   3.105   3.293  0.8008  3.1779  0.1060
   93MOL   H42744771   1.284   3.047   3.533  0.3274 -1.0006  1.1567
   93MOL   H42844772   1.721   2.989   3.561 -0.5684 -1.7085  1.4393
   93MOL   H42944773   1.732   3.067   3.332  0.2105  0.3207 -0.3300
   93MOL   H43044774   1.585   2.876   3.990  0.9649 -0.5969 -0.0916
   93MOL   H43144775   1.640   3.035   4.186 -1.5266  0.6114  0.5847
   93MOL   H43244776   1.646   3.362   3.919 -1.5080  0.3929  0.8824
   93MOL   H43344777   1.562   3.218   3.732 -0.1017 -1.8074  0.3417
   93MOL   C43444778   1.454   3.281   4.271 -0.0654 -0.7689 -0.1810
   93MOL   C43544779   1.371   3.288   4.387 -0.1992 -0.6619  0.4297
   93MOL   C43644780   1.434   3.333   4.505  0.7190 -0.2857  0.1636
   93MOL   C43744781   1.573   3.360   4.512  0.5749  0.6222 -0.0836
   93MOL   C43844782   1.651   3.360   4.394  0.6705 -0.2571 -0.3117
   93MOL   C43944783   1.591   3.319   4.272  0.4260  0.4598 -0.2362
   93MOL   S44044784   1.343   3.347   4.654  0.3718  0.1531 -0.0863
   93MOL   O44144785   1.200   3.351   4.613  0.0307 -0.2601  0.4295
   93MOL   O44244786   1.398   3.458   4.731 -0.0565 -0.1436 -0.4651
   93MOL   C44344787   1.388   3.192   4.735 -0.0989 -0.4497  0.7113
   93MOL   C44444788   1.343   3.177   4.868 -0.0029  0.4937  0.3099
   93MOL   C44544789   1.352   3.056   4.936  0.2246 -0.5535 -0.3288
   93MOL   C44644790   1.408   2.946   4.866  1.0014  0.8345  0.2342
   93MOL   C44744791   1.455   2.957   4.733  0.2677  0.0429 -0.0494
   93MOL   C44844792   1.443   3.080   4.669  0.4414 -0.6841  0.8798
   93MOL   O44944793   1.416   2.822   4.928 -0.3515 -0.3929 -0.1675
   93MOL   H45044794   1.403   3.248   4.181  1.1634 -0.6135 -0.9472
   93MOL   H45144795   1.264   3.276   4.385 -0.5168  1.4498  3.0727
   93MOL   H45244796   1.625   3.385   4.603  1.8784  0.7711 -0.8530
   93MOL   H45344797   1.755   3.388   4.389 -0.1543  3.2751  0.7543
   93MOL   H45444798   1.284   3.260   4.904 -0.5130  0.7515 -1.0656
   93MOL   H45544799   1.326   3.052   5.041 -0.2454 -0.4767 -0.4448
   93MOL   H45644800   1.499   2.875   4.677 -0.4558 -1.5874  1.7203
   93MOL   H45744801   1.462   3.100   4.565 -1.2739 -1.6162  0.3690
   93MOL   C45844802   1.558   2.640   4.911  0.0302 -0.1920 -0.5557
   93MOL   C45944803   1.598   2.518   4.859  0.7219  0.3460  0.2197
   93MOL   C46044804   1.527   2.456   4.752  0.3558 -0.5857  0.6618
   93MOL   C46144805   1.407   2.515   4.705 -0.5777 -0.4759 -0.1199
   93MOL   C46244806   1.365   2.641   4.762  0.2100 -0.1726  0.3677
   93MOL   C46344807   1.448   2.709   4.860  0.3556 -0.0212  0.2039
   93MOL   S46444808   1.565   2.282   4.703  0.1251 -0.0337 -0.2380
   93MOL   O46544809   1.539   2.258   4.559 -0.1542 -0.7557 -0.3032
   93MOL   O46644810   1.504   2.203   4.814  0.7058  0.0220  0.2032
   93MOL   C46744811   1.740   2.272   4.730  0.1069 -0.4579 -0.0784
   93MOL   C46844812   1.787   2.224   4.856 -0.1645 -0.7475  0.3632
   93MOL   C46944813   1.928   2.226   4.872  0.0950 -0.8528  0.1332
   93MOL   C47044814   2.014   2.279   4.774 -0.6840  0.0105 -0.5455
   93MOL   C47144815   1.967   2.316   4.649  0.1452  0.0515 -0.1872
   93MOL   C47244816   1.828   2.311   4.630  0.4170 -0.4118 -0.9976
   93MOL   O47344817   2.142   2.275   4.808 -0.1781 -0.4210 -0.0371
   93MOL   H47444818   1.611   2.689   4.992  0.3115  0.1933 -0.9687
   93MOL   H47544819   1.677   2.463   4.908 -0.5845 -1.3836  0.4185
   93MOL   H47644820   1.342   2.462   4.637 -1.5839 -0.2275  0.6358
   93MOL   H47744821   1.268   2.679   4.733  0.6698  2.0300  1.6252
   93MOL   H47844822   1.727   2.185   4.937 -1.1735 -0.3131 -0.1716
   93MOL   H47944823   1.967   2.176   4.960  2.2031 -2.2115 -1.5368
   93MOL   H48044824   2.035   2.356   4.575  1.2593 -0.8313  0.3510
   93MOL   H48144825   1.781   2.330   4.535  0.0181  2.0352 -0.3246
   93MOL   H48244826   2.159   2.262   4.901 -1.5564 -0.6808  0.1907
   94MOL     C144827   8.020   3.364   7.415  0.2661 -0.0578  1.1129
   94MOL     C244828   8.071   3.404   7.291  0.2366 -0.0737 -0.4165
   94MOL     C344829   8.073   3.535   7.257 -0.6227 -0.0960  0.2329
   94MOL     C444830   8.023   3.634   7.349 -0.1437 -0.4517  0.0427
   94MOL     C544831   7.963   3.595   7.466 -0.7324 -0.7092 -0.1288
   94MOL     C644832   7.962   3.458   7.503  0.3069 -0.1773 -0.1352
   94MOL     S744833   8.167   3.593   7.116  0.2008 -0.3540  0.1405
   94MOL     O844834   8.193   3.732   7.150  0.2144  0.5762 -0.4625
   94MOL     O944835   8.098   3.560   6.991 -0.3454 -0.0556 -0.5616
   94MOL    C1044836   8.328   3.509   7.116 -0.5320 -0.8050  0.0940
   94MOL    C1144837   8.368   3.447   6.995  0.5678  0.2425 -0.3943
   94MOL    C1244838   0.066   3.390   6.982  0.8272 -0.0648 -0.5246
   94MOL    C1344839   0.146   3.372   7.092 -0.8928 -0.6241  0.0823
   94MOL    C1444840   0.110   3.419   7.222 -0.3602 -0.2018 -0.0432
   94MOL    C1544841   8.411   3.488   7.234 -0.3154  0.2074  0.2551
   94MOL    O1644842   0.261   3.302   7.068 -0.0872 -0.0983 -0.6809
   94MOL    H1744843   8.005   3.262   7.445  0.2573 -0.3430  0.1409
   94MOL    H1844844   8.101   3.333   7.215  0.6098  0.5463 -0.8499
   94MOL    H1944845   8.023   3.739   7.324  0.5063 -0.6682 -0.9016
   94MOL    H2044846   7.913   3.672   7.524  0.0155  0.2728 -0.7888
   94MOL    H2144847   8.306   3.460   6.907 -0.3111 -2.2956 -0.2070
   94MOL    H2244848   0.086   3.354   6.882  0.1008 -0.6816 -0.4534
   94MOL    H2344849   0.173   3.406   7.309 -3.1050  1.0292  2.1950
   94MOL    H2444850   8.393   3.525   7.334 -1.1174  0.8317 -0.1065
   94MOL    H2544851   7.915   3.428   7.596  0.9555 -0.6721  0.0331
   94MOL    C2644852   0.266   3.103   7.209  0.7327  0.0206 -0.3217
   94MOL    C2744853   0.269   2.962   7.221  0.9310  0.4487 -0.1456
   94MOL    C2844854   0.259   2.893   7.104  0.6379 -0.6023  0.0320
   94MOL    C2944855   0.248   2.951   6.977 -0.1796 -0.5364  0.4295
   94MOL    C3044856   0.244   3.090   6.966 -0.0918  0.8865 -0.6011
   94MOL    C3144857   0.256   3.168   7.083 -0.4631  0.6324  0.1440
   94MOL    S3244858   0.262   2.714   7.121  0.4072 -0.4297  0.1054
   94MOL    O3344859   0.121   2.670   7.117  0.2168  0.7577 -0.1686
   94MOL    O3444860   0.350   2.667   7.226  0.3094  0.1576  0.5437
   94MOL    C3544861   0.327   2.643   6.970 -0.1480  0.6605 -0.2016
   94MOL    C3644862   0.450   2.686   6.924 -0.5199  0.0313 -0.1545
   94MOL    C3744863   0.504   2.634   6.802 -0.4511  0.4156  0.2071
   94MOL    C3844864   0.425   2.550   6.722 -0.2439  0.0096  0.9380
   94MOL    C3944865   0.294   2.514   6.769  0.6781 -0.5494  0.7398
   94MOL    C4044866   0.246   2.560   6.893  0.0977  0.5290  0.3740
   94MOL    O4144867   0.470   2.492   6.607 -0.2800  0.0605  0.1973
   94MOL    H4244868   0.266   3.168   7.295 -0.0366 -0.4732  0.0548
   94MOL    H4344869   0.281   2.907   7.313 -2.6524  1.4908  1.0215
   94MOL    H4444870   0.250   2.890   6.888  1.0372 -0.0452  0.1125
   94MOL    H4544871   0.237   3.146   6.873  0.1960 -0.0876 -1.2096
   94MOL    H4644872   0.514   2.744   6.989  0.9134 -0.1927 -1.3273
   94MOL    H4744873   0.600   2.671   6.769  0.1963 -1.8801 -0.5839
   94MOL    H4844874   0.233   2.442   6.716 -0.4997  1.0049 -0.0684
   94MOL    H4944875   0.149   2.528   6.928  0.1150  0.2315  0.1426
   94MOL    C5044876   0.700   2.426   6.630 -0.1377 -0.9467  0.6676
   94MOL    C5144877   0.797   2.333   6.661 -0.1416 -0.3725  0.2350
   94MOL    C5244878   0.749   2.195   6.682 -0.3965 -0.4774 -0.2571
   94MOL    C5344879   0.617   2.159   6.654 -0.2989  0.6118  0.0535
   94MOL    C5444880   0.523   2.258   6.628  0.2207  0.2308 -0.6082
   94MOL    C5544881   0.561   2.394   6.623  0.1212  0.3841 -0.3164
   94MOL    S5644882   0.867   2.068   6.720  0.0812 -0.1751 -0.7839
   94MOL    O5744883   0.791   1.952   6.766 -0.2666  0.9788  0.1088
   94MOL    O5844884   0.971   2.127   6.800  0.4091 -0.4648  0.2033
   94MOL    C5944885   0.930   2.021   6.568 -0.2395  0.6394 -0.3394
   94MOL    C6044886   0.866   1.923   6.487  0.0404 -0.4007 -0.4121
   94MOL    C6144887   0.908   1.900   6.353 -0.1334  0.0253  0.2347
   94MOL    C6244888   1.022   1.970   6.308 -0.5473 -0.1539 -0.8021
   94MOL    C6344889   1.094   2.055   6.397  0.1858  0.0824  0.3666
   94MOL    C6444890   1.047   2.086   6.526  0.0157  0.2679 -0.3663
   94MOL    O6544891   1.085   1.938   6.195 -0.2406  0.2271 -0.1636
   94MOL    H6644892   0.726   2.527   6.603 -1.0916 -0.6579  0.8236
   94MOL    H6744893   0.904   2.350   6.660 -0.1822 -0.1960 -1.1138
   94MOL    H6844894   0.593   2.055   6.664 -1.3162  0.5907 -2.4674
   94MOL    H6944895   0.422   2.224   6.616  1.1855 -1.6938 -3.9698
   94MOL    H7044896   0.777   1.874   6.523 -0.2214 -0.3093 -0.9249
   94MOL    H7144897   0.857   1.831   6.288  0.4060 -0.4780  0.3382
   94MOL    H7244898   1.193   2.092   6.377  0.2296 -0.3137 -0.1440
   94MOL    H7344899   1.106   2.155   6.585 -1.0252  1.1098 -0.2997
   94MOL    C7444900   1.221   2.050   6.033 -0.1604 -0.8693  0.4654
   94MOL    C7544901   1.238   2.132   5.917  0.5329  0.6876 -0.9345
   94MOL    C7644902   1.122   2.189   5.862  0.1159 -0.0422 -0.1049
   94MOL    C7744903   0.991   2.160   5.910 -0.4730  0.6437 -0.1904
   94MOL    C7844904   0.978   2.087   6.030 -0.1011 -0.5561  0.5127
   94MOL    C7944905   1.096   2.033   6.093  0.5792  0.1877 -0.3843
   94MOL    S8044906   1.134   2.308   5.730 -0.1294  0.0657 -0.1926
   94MOL    O8144907   1.037   2.416   5.743 -0.3684  0.1662 -0.2641
   94MOL    O8244908   1.136   2.223   5.612  0.1028  0.2073  0.1052
   94MOL    C8344909   1.296   2.396   5.742  0.5498  0.0684  0.6318
   94MOL    C8444910   1.320   2.528   5.784 -0.5161  0.0471 -0.0571
   94MOL    C8544911   1.456   2.573   5.788  0.7372 -1.1377 -0.4514
   94MOL    C8644912   1.566   2.485   5.770  0.1457 -0.5717 -0.1888
   94MOL    C8744913   1.539   2.355   5.725 -0.7719  0.2009 -0.2049
   94MOL    C8844914   1.410   2.309   5.709  0.1132  0.1306  1.1027
   94MOL    O8944915   1.696   2.533   5.787 -0.6291 -0.2173 -0.3215
   94MOL    H9044916   1.306   2.004   6.081  0.8865  0.2377 -0.3039
   94MOL    H9144917   1.338   2.141   5.878  1.0950 -2.9201 -0.5115
   94MOL    H9244918   0.897   2.192   5.868  0.3339  1.8570 -1.1117
   94MOL    H9344919   0.873   2.076   6.052 -0.4455 -0.4138 -1.0526
   94MOL    H9444920   1.244   2.601   5.808 -0.4639  0.2973 -0.6249
   94MOL    H9544921   1.479   2.676   5.813 -1.5410 -0.7849  0.3176
   94MOL    H9644922   1.617   2.285   5.699 -0.0112  0.5368  1.1448
   94MOL    H9744923   1.400   2.205   5.684 -1.9840  0.1241  1.8197
   94MOL    C9844924   1.665   2.555   6.020 -0.2580 -0.7851 -0.7547
   94MOL    C9944925   1.720   2.584   6.146 -0.0080  1.3112  0.6046
   94MOL   C10044926   1.850   2.628   6.162  0.1515 -0.2473 -0.4562
   94MOL   C10144927   1.928   2.642   6.042 -0.0858 -1.1621 -0.0262
   94MOL   C10244928   1.877   2.607   5.916 -0.2170 -0.1932 -0.0923
   94MOL   C10344929   1.746   2.569   5.906 -1.0846 -0.1637 -0.1934
   94MOL   S10444930   1.913   2.687   6.324  0.1207 -0.0802 -0.1662
   94MOL   O10544931   2.044   2.630   6.345 -0.3202 -0.1769  0.4577
   94MOL   O10644932   1.818   2.656   6.428  0.0028 -0.0295 -0.2405
   94MOL   C10744933   1.941   2.869   6.325  0.0567  0.0642 -0.3427
   94MOL   C10844934   2.073   2.917   6.285  0.6961 -0.3334  1.2344
   94MOL   C10944935   2.099   3.054   6.299 -0.0038  0.1583 -0.1348
   94MOL   C11044936   2.004   3.147   6.336 -0.1237 -0.3176  0.3665
   94MOL   C11144937   1.876   3.097   6.373 -0.6582 -0.1453  0.6317
   94MOL   C11244938   1.845   2.959   6.370 -0.6791  0.2282  0.6005
   94MOL   O11344939   2.031   3.283   6.339  0.5783 -0.1948 -0.0314
   94MOL   H11444940   1.564   2.518   6.012 -0.2299 -0.8793 -0.6696
   94MOL   H11544941   1.651   2.566   6.227 -0.5552 -1.5524 -0.4348
   94MOL   H11644942   2.032   2.665   6.052 -0.4046  0.3974 -0.2075
   94MOL   H11744943   1.935   2.615   5.825  0.9372 -0.2763  0.6339
   94MOL   H11844944   2.153   2.849   6.259  0.8896  0.7861 -1.1751
   94MOL   H11944945   2.200   3.088   6.285  0.5114 -0.4802  1.8155
   94MOL   H12044946   1.796   3.166   6.397 -2.1713 -0.9830 -1.8049
   94MOL   H12144947   1.745   2.923   6.389  0.0567 -1.5118  1.2126
   94MOL   C12244948   1.895   3.451   6.237 -0.4616  0.9795 -0.5134
   94MOL   C12344949   1.841   3.510   6.123  0.1492  0.3543 -0.9147
   94MOL   C12444950   1.887   3.469   5.993 -0.3329 -0.2408 -0.6854
   94MOL   C12544951   1.991   3.373   5.984  0.1540 -0.5330  0.0941
   94MOL   C12644952   2.041   3.314   6.102  0.3871 -0.1566  0.1545
   94MOL   C12744953   1.991   3.348   6.226  0.0859 -0.9177  0.4104
   94MOL   S12844954   1.792   3.536   5.856  0.0766 -0.1854  0.1936
   94MOL   O12944955   1.828   3.679   5.840 -0.2392 -0.3671 -0.1226
   94MOL   O13044956   1.651   3.501   5.881  0.3815  0.4214 -0.3621
   94MOL   C13144957   1.857   3.450   5.710  0.7561  0.5473 -0.7684
   94MOL   C13244958   1.780   3.338   5.675 -0.5746  0.7323 -0.4267
   94MOL   C13344959   1.810   3.278   5.549 -0.9710  0.6832  0.7078
   94MOL   C13444960   1.912   3.324   5.466  0.3773  0.0531 -0.1854
   94MOL   C13544961   1.995   3.432   5.506  0.5843 -0.2757  0.3581
   94MOL   C13644962   1.962   3.500   5.624 -0.2903  0.0664  0.1683
   94MOL   O13744963   1.933   3.262   5.347  0.4210  0.2432 -0.1373
   94MOL   H13844964   1.855   3.460   6.337  0.8884  0.3970  0.0968
   94MOL   H13944965   1.766   3.587   6.130  1.4673  1.5062  1.5547
   94MOL   H14044966   2.034   3.349   5.888  0.7698  0.6486  0.0736
   94MOL   H14144967   2.124   3.246   6.102  0.9241  0.4839  1.7251
   94MOL   H14244968   1.700   3.301   5.736 -0.1023  1.1806  0.4692
   94MOL   H14344969   1.756   3.192   5.512  3.4924 -1.8127 -0.4127
   94MOL   H14444970   2.066   3.475   5.437  0.6076  0.8992  1.0966
   94MOL   H14544971   2.017   3.588   5.654 -1.9897  1.7309 -1.3737
   94MOL   C14644972   2.150   3.230   5.256  0.0118  0.4543  0.2627
   94MOL   C14744973   2.268   3.148   5.251 -0.4137  0.8509  0.1249
   94MOL   C14844974   2.267   3.020   5.315 -0.3244  0.9598 -0.5949
   94MOL   C14944975   2.155   2.979   5.386  0.5170 -0.0195  0.2463
   94MOL   C15044976   2.043   3.061   5.406  0.6397  0.0993  0.4056
   94MOL   C15144977   2.044   3.183   5.336 -0.0331 -0.4706  0.1508
   94MOL   S15244978   2.399   2.909   5.280  0.1399 -0.2787  0.4355
   94MOL   O15344979   2.393   2.800   5.381 -0.1240 -0.2763  0.2744
   94MOL   O15444980   2.519   2.992   5.265  0.0916  0.1132  0.3082
   94MOL   C15544981   2.349   2.842   5.117  0.3676  0.3822 -0.4386
   94MOL   C15644982   2.308   2.708   5.105 -0.3966 -1.1047 -0.2400
   94MOL   C15744983   2.294   2.651   4.972  0.2534 -0.2884 -0.1309
   94MOL   C15844984   2.296   2.740   4.863  0.2987 -1.3267  0.2888
   94MOL   C15944985   2.334   2.874   4.875 -0.2942  0.4202  0.1540
   94MOL   C16044986   2.364   2.922   5.003 -0.4461 -0.6248  0.5336
   94MOL   O16144987   2.263   2.691   4.739 -0.0303 -0.2382 -0.0055
   94MOL   H16244988   2.144   3.324   5.204 -1.2681 -0.5237 -1.3843
   94MOL   H16344989   2.353   3.163   5.185 -1.8198 -0.8785 -2.1927
   94MOL   H16444990   2.153   2.888   5.445 -0.4565 -0.6126 -0.6864
   94MOL   H16544991   1.955   3.046   5.466  0.3536 -0.0476 -0.0518
   94MOL   H16644992   2.298   2.643   5.191 -0.0900 -0.6714  0.1255
   94MOL   H16744993   2.265   2.547   4.962  2.5337 -0.7651 -2.5547
   94MOL   H16844994   2.342   2.938   4.789 -0.7240 -1.3353 -1.2240
   94MOL   H16944995   2.414   3.017   5.018  0.5005 -0.7359 -1.6327
   94MOL   C17044996   2.025   2.656   4.744  0.0131  0.4202 -0.0770
   94MOL   C17144997   1.899   2.667   4.681  1.0652 -0.5710 -0.6430
   94MOL   C17244998   1.883   2.750   4.565 -0.2481 -0.9264 -0.4986
   94MOL   C17344999   1.995   2.825   4.518 -0.5871 -0.0400 -0.0885
   94MOL   C17445000   2.125   2.811   4.582 -0.1640  0.0913 -0.0526
   94MOL   C17545001   2.143   2.719   4.690  0.3663 -0.3665  0.1523
   94MOL   S17645002   1.730   2.760   4.487 -0.0884 -0.3578  0.2235
   94MOL   O17745003   1.685   2.903   4.481  0.0958  0.2974 -0.0180
   94MOL   O17845004   1.641   2.658   4.546 -0.3050 -0.9931 -0.4197
   94MOL   C17945005   1.787   2.709   4.324 -0.2987  0.5282  0.6766
   94MOL   C18045006   1.821   2.804   4.222 -0.4217 -0.4039 -0.0448
   94MOL   C18145007   1.859   2.762   4.096  0.2107 -0.5146 -0.1350
   94MOL   C18245008   1.868   2.625   4.072  0.1306 -0.6514  0.4143
   94MOL   C18345009   1.829   2.527   4.174 -0.4921  0.0849 -0.0036
   94MOL   C18445010   1.790   2.577   4.298  0.1177  0.7266  0.7269
   94MOL   O18545011   1.894   2.582   3.945 -0.2079 -0.2363 -0.1448
   94MOL   H18645012   2.037   2.608   4.840 -1.3042 -1.1162 -0.6533
   94MOL   H18745013   1.817   2.621   4.734 -0.5747  0.2276 -2.4205
   94MOL   H18845014   1.976   2.887   4.432 -1.6347 -0.6128 -0.2723
   94MOL   H18945015   2.211   2.852   4.531 -0.1807  0.3649  0.1448
   94MOL   H19045016   1.797   2.909   4.234  0.0810 -0.2682 -0.2087
   94MOL   H19145017   1.878   2.832   4.016 -1.0847 -1.1226 -0.9956
   94MOL   H19245018   1.822   2.421   4.157 -3.2530  0.2035  0.2863
   94MOL   H19345019   1.749   2.515   4.377  0.9892  1.0191  1.4261
   94MOL   C19445020   2.113   2.479   3.972  0.1347 -0.4363 -0.1895
   94MOL   C19545021   2.195   2.371   3.959 -0.5833  0.0664 -0.3558
   94MOL   C19645022   2.139   2.253   3.901  0.1495 -0.1178 -0.9141
   94MOL   C19745023   2.005   2.245   3.853 -0.2939 -0.2204 -0.0935
   94MOL   C19845024   1.929   2.360   3.860  0.4897  0.0881  0.0447
   94MOL   C19945025   1.981   2.476   3.922  1.0444 -0.0246 -0.4121
   94MOL   S20045026   2.243   2.114   3.861 -0.0026 -0.4164  0.3635
   94MOL   O20145027   2.180   1.983   3.878  0.1910  0.2132 -0.1602
   94MOL   O20245028   2.373   2.135   3.926  0.4471 -0.3587 -0.2955
   94MOL   C20345029   2.275   2.134   3.684 -0.0340  0.6539 -0.5138
   94MOL   C20445030   2.324   2.258   3.641  0.3765 -0.2724  0.5363
   94MOL   C20545031   2.362   2.277   3.507  0.1862 -0.5129 -0.4018
   94MOL   C20645032   2.368   2.166   3.421 -0.6220  0.3275  0.3906
   94MOL   C20745033   2.315   2.037   3.470 -0.2149 -0.2610  0.1055
   94MOL   C20845034   2.255   2.025   3.593  0.0079  0.0461  0.6083
   94MOL   O20945035   2.424   2.186   3.292 -0.6253  0.7115  0.4573
   94MOL   H21045036   2.146   2.566   4.027 -2.3896 -0.3812  1.3022
   94MOL   H21145037   2.297   2.368   3.993  1.4937 -0.0464 -5.9272
   94MOL   H21245038   1.962   2.154   3.814  0.5191 -0.2700 -0.8793
   94MOL   H21345039   1.831   2.362   3.815  1.5700  3.4598 -2.2866
   94MOL   H21445040   2.320   2.339   3.713 -2.7301  0.9597 -0.9020
   94MOL   H21545041   2.394   2.367   3.458  1.1825 -0.6957 -0.0904
   94MOL   H21645042   2.308   1.947   3.410  1.3695  1.2008 -2.3644
   94MOL   H21745043   2.218   1.929   3.623  0.1787  0.1443  1.1414
   94MOL   C21845044   2.620   2.055   3.305  0.2406  0.0197  0.1374
   94MOL   C21945045   2.758   2.040   3.288 -0.4085 -0.0325 -0.6879
   94MOL   C22045046   2.836   2.148   3.254 -0.0043 -0.2694 -0.4059
   94MOL   C22145047   2.778   2.278   3.244  0.6839  0.2914  0.2333
   94MOL   C22245048   2.642   2.295   3.262  0.1704  0.0667  0.3336
   94MOL   C22345049   2.559   2.179   3.288 -0.0343 -0.2181  0.3867
   94MOL   S22445050   3.012   2.132   3.228  0.2558 -0.3742  0.2093
   94MOL   O22545051   3.052   2.193   3.099  0.3229 -0.0970  0.0614
   94MOL   O22645052   3.056   1.993   3.249  0.2713 -0.4581 -0.1433
   94MOL   C22745053   3.091   2.226   3.351 -0.7497 -0.4125  0.3365
   94MOL   C22845054   3.171   2.338   3.307 -0.2381  0.7158  0.1481
   94MOL   C22945055   3.258   2.405   3.404  0.2004 -0.1734  0.1578
   94MOL   C23045056   3.253   2.362   3.536  0.4190 -0.1618  0.1554
   94MOL   C23145057   3.174   2.247   3.574 -0.0840 -0.4844 -0.4165
   94MOL   C23245058   3.085   2.188   3.485  0.6939  0.3859  0.0234
   94MOL   O23345059   3.314   2.439   3.636  1.1892 -0.1989 -0.3294
   94MOL   H23445060   2.557   1.970   3.326 -0.4629  0.3564 -0.5561
   94MOL   H23545061   2.801   1.942   3.303  0.2396  0.0613 -1.8946
   94MOL   H23645062   2.834   2.365   3.213  3.0388 -1.0116  0.7322
   94MOL   H23745063   2.603   2.395   3.266 -0.2238  0.0157 -1.7661
   94MOL   H23845064   3.177   2.370   3.204  0.4799  0.0534 -0.0155
   94MOL   H23945065   3.324   2.486   3.377 -0.2968  0.7796  1.7306
   94MOL   H24045066   3.163   2.205   3.673  3.1536  0.8467  0.5920
   94MOL   H24145067   3.028   2.101   3.513 -0.1260  0.8472 -0.2015
   94MOL   C24245068   3.168   2.466   3.823 -0.5706 -0.0249  1.8473
   94MOL   C24345069   3.083   2.540   3.905 -0.1062 -0.2810  0.1358
   94MOL   C24445070   3.067   2.673   3.866  0.7141 -0.1592 -0.0973
   94MOL   C24545071   3.120   2.729   3.746  0.0133 -0.0135 -0.1703
   94MOL   C24645072   3.207   2.651   3.666 -0.3579 -0.1820 -0.6899
   94MOL   C24745073   3.228   2.517   3.705 -0.1073  0.6415 -0.4017
   94MOL   S24845074   2.958   2.778   3.962  0.3454  0.2429 -0.0648
   94MOL   O24945075   3.026   2.903   3.998  0.1658 -0.0552  0.5171
   94MOL   O25045076   2.903   2.692   4.074 -0.7031  0.0937 -0.3044
   94MOL   C25145077   2.818   2.814   3.854 -0.2460  1.0282 -0.4523
   94MOL   C25245078   2.729   2.912   3.901 -0.3014 -0.2168  0.3474
   94MOL   C25345079   2.601   2.925   3.827 -0.3609  0.5956 -0.5097
   94MOL   C25445080   2.578   2.843   3.711 -0.8487  0.3336 -0.7207
   94MOL   C25545081   2.678   2.755   3.668 -0.3153  0.2693 -0.0536
   94MOL   C25645082   2.792   2.738   3.744 -0.0135 -0.3702 -0.0973
   94MOL   O25745083   2.465   2.856   3.631 -0.9246  0.1124 -0.0549
   94MOL   H25845084   3.190   2.365   3.854 -1.5068 -1.0385 -0.6578
   94MOL   H25945085   3.039   2.496   3.994 -2.2028  0.5294 -0.4820
   94MOL   H26045086   3.096   2.834   3.739 -1.1734 -0.0497  2.8165
   94MOL   H26145087   3.268   2.696   3.588  1.7809  0.2386  1.1771
   94MOL   H26245088   2.764   2.972   3.983  0.7124  0.8187 -0.8164
   94MOL   H26345089   2.532   3.001   3.861 -2.0605 -1.9010  1.8146
   94MOL   H26445090   2.661   2.692   3.582  0.8315  1.5924 -1.2791
   94MOL   H26545091   2.863   2.663   3.711 -0.2114  0.2168 -1.9276
   94MOL   C26645092   2.248   2.830   3.714  0.3354  0.4366 -0.0418
   94MOL   C26745093   2.127   2.884   3.757 -0.3188  0.3027  0.2285
   94MOL   C26845094   2.116   3.025   3.778 -0.7419 -0.3452 -0.5385
   94MOL   C26945095   2.222   3.109   3.745  0.6861  0.6430 -0.3671
   94MOL   C27045096   2.339   3.056   3.695  0.3134 -0.8793  0.3725
   94MOL   C27145097   2.354   2.918   3.683  0.1784  0.5810  0.6331
   94MOL   S27245098   1.961   3.092   3.821 -0.0071 -0.0999 -0.0661
   94MOL   O27345099   1.979   3.155   3.951 -0.2097  0.1033  0.1510
   94MOL   O27445100   1.862   2.983   3.821 -0.0913 -0.0983 -0.1220
   94MOL   C27545101   1.922   3.212   3.700  0.5251 -0.6139  0.4835
   94MOL   C27645102   1.918   3.169   3.561 -0.2513 -0.1816  0.2102
   94MOL   C27745103   1.888   3.259   3.460  0.7837 -0.3458  0.2708
   94MOL   C27845104   1.878   3.391   3.499 -0.1824 -0.2202  0.0896
   94MOL   C27945105   1.873   3.438   3.628 -0.6848  0.0375  0.3926
   94MOL   C28045106   1.898   3.345   3.731  0.1966 -0.2875 -0.7072
   94MOL   O28145107   1.861   3.492   3.404 -0.2041  0.0447  0.4274
   94MOL   H28245108   2.244   2.725   3.689 -0.3203 -0.2287  2.7046
   94MOL   H28345109   2.040   2.822   3.776  0.6197 -1.8262 -2.1054
   94MOL   H28445110   2.223   3.215   3.768  0.7377  0.2311  1.5835
   94MOL   H28545111   2.419   3.126   3.675 -1.5977  0.7941 -1.7438
   94MOL   H28645112   1.950   3.070   3.534  1.6319  0.2065  0.9371
   94MOL   H28745113   1.884   3.233   3.356 -1.1116  1.5882 -0.1876
   94MOL   H28845114   1.862   3.540   3.661 -3.0542  0.0370 -0.2689
   94MOL   H28945115   1.907   3.385   3.831 -1.1143  3.0106 -1.8198
   94MOL   C29045116   1.622   3.465   3.379  0.5080 -0.4467  0.2987
   94MOL   C29145117   1.506   3.438   3.303 -0.0553 -0.1464 -0.1711
   94MOL   C29245118   1.528   3.436   3.163  0.4190 -0.2903 -0.4102
   94MOL   C29345119   1.654   3.455   3.100  0.6578  0.1864 -0.4453
   94MOL   C29445120   1.770   3.463   3.184  0.9469  0.8955 -0.2130
   94MOL   C29545121   1.752   3.471   3.327  0.0043 -0.2296  0.0531
   94MOL   S29645122   1.386   3.414   3.063  0.0728  0.0596 -0.0726
   94MOL   O29745123   1.295   3.329   3.140  0.1947  0.0621  0.0403
   94MOL   O29845124   1.429   3.367   2.929  0.0258 -0.2754 -0.8089
   94MOL   C29945125   1.316   3.578   3.036  0.3947  0.2821  0.6532
   94MOL   C30045126   1.355   3.688   3.110 -0.1762 -0.3977  0.9671
   94MOL   C30145127   1.277   3.806   3.096 -0.2900 -0.2724  0.4012
   94MOL   C30245128   1.158   3.808   3.018 -0.5190 -0.1638 -0.1423
   94MOL   C30345129   1.123   3.698   2.938 -0.2235  0.1024 -0.0221
   94MOL   C30445130   1.202   3.579   2.951 -0.3821 -0.2579 -0.4628
   94MOL   O30545131   1.099   3.929   2.987 -0.1155  0.3235  0.5193
   94MOL   H30645132   1.593   3.479   3.482 -0.7359 -2.6948  0.3014
   94MOL   H30745133   1.406   3.427   3.343 -0.2764 -1.6319 -1.0925
   94MOL   H30845134   1.677   3.453   2.995  0.5756  1.2742 -0.4886
   94MOL   H30945135   1.870   3.463   3.144  1.4000 -0.8499  0.8503
   94MOL   H31045136   1.431   3.685   3.186 -0.3433  1.6883  1.2271
   94MOL   H31145137   1.310   3.894   3.150  0.0719  0.6498 -1.2550
   94MOL   H31245138   1.039   3.699   2.871  0.7969  0.9798 -1.3239
   94MOL   H31345139   1.159   3.492   2.905 -2.5915 -2.2540  4.9633
   94MOL   C31445140   1.109   4.061   3.187  0.4475 -0.2246 -0.5286
   94MOL   C31545141   1.115   4.187   3.249 -0.6212  0.0339 -0.2585
   94MOL   C31645142   1.131   4.304   3.171 -0.0652  0.3585 -0.7034
   94MOL   C31745143   1.145   4.289   3.029 -0.4760 -0.3273  0.5751
   94MOL   C31845144   1.139   4.164   2.969 -0.3745  0.0387 -0.6525
   94MOL   C31945145   1.121   4.048   3.047  0.6461 -0.0292  0.1031
   94MOL   S32045146   1.140   4.470   3.244  0.6036 -0.1945 -0.1167
   94MOL   O32145147   1.247   4.545   3.183 -0.1986 -0.5893  0.4993
   94MOL   O32245148   1.124   4.462   3.395  0.8133 -0.1848  0.4371
   94MOL   C32345149   0.989   4.550   3.195 -0.6724  0.0072  0.4008
   94MOL   C32445150   0.990   4.693   3.168 -0.6333  0.2798  0.0743
   94MOL   C32545151   0.875   4.762   3.130  0.0868 -0.0268 -0.0650
   94MOL   C32645152   0.761   4.690   3.097 -0.6478 -0.2423  0.3188
   94MOL   C32745153   0.758   4.547   3.106 -0.5162 -0.6115  0.3926
   94MOL   C32845154   0.870   4.480   3.161  0.4385  0.1627  0.4082
   94MOL   O32945155   0.647   4.753   3.049  0.3395  0.5143 -0.4652
   94MOL   H33045156   1.092   3.976   3.251 -2.3272 -0.9021 -2.0534
   94MOL   H33145157   1.119   4.185   3.357  0.4624 -1.3148 -0.3141
   94MOL   H33245158   1.139   4.376   2.965 -0.0138  0.4421  1.5496
   94MOL   H33345159   1.139   4.153   2.861  0.6212  0.1318 -0.6697
   94MOL   H33445160   1.088   4.733   3.190  0.0090 -1.0586 -0.2883
   94MOL   H33545161   0.876   4.870   3.124  1.0360 -0.0023  0.4575
   94MOL   H33645162   0.668   4.494   3.083 -0.6978 -0.3862  0.5818
   94MOL   H33745163   0.873   4.376   3.192  0.9737  0.2720  0.7457
   94MOL   C33845164   0.433   4.639   3.124 -0.7965 -0.2498 -0.0406
   94MOL   C33945165   0.320   4.659   3.208 -0.1137 -0.1111  0.1031
   94MOL   C34045166   0.312   4.765   3.298 -0.2727  0.6601  0.0810
   94MOL   C34145167   0.417   4.857   3.304  0.4154 -1.0775 -0.5215
   94MOL   C34245168   0.522   4.852   3.217 -0.2987  0.6578 -1.3405
   94MOL   C34345169   0.535   4.742   3.129  0.0723  0.5839 -0.1440
   94MOL   S34445170   0.168   4.771   3.404 -0.3138  0.1875 -0.0285
   94MOL   O34545171   0.205   4.783   3.546  0.4941  0.2539  0.3869
   94MOL   O34645172   0.075   4.666   3.361  0.3788  0.6270 -0.1513
   94MOL   C34745173   0.091   4.923   3.353 -0.0610 -0.1946  0.8686
   94MOL   C34845174   0.116   5.043   3.421  0.6174  0.0502 -0.2103
   94MOL   C34945175   0.047   5.160   3.382  0.7270  0.5709 -0.7332
   94MOL   C35045176   8.378   5.160   3.273  0.2175  0.7429  0.1261
   94MOL   C35145177   8.360   5.038   3.201 -0.1869 -0.3662  0.5957
   94MOL   C35245178   0.007   4.925   3.240 -0.2458 -0.4974 -0.2945
   94MOL   O35345179   8.300   5.268   3.249  0.1299 -0.1006  0.0421
   94MOL   H35445180   0.441   4.557   3.054 -0.9056 -0.1537 -0.1657
   94MOL   H35545181   0.254   4.575   3.199  0.4528 -0.4743 -0.7690
   94MOL   H35645182   0.409   4.945   3.366  0.9581 -1.2762 -0.1742
   94MOL   H35745183   0.590   4.935   3.200 -1.5933  1.8791 -0.6768
   94MOL   H35845184   0.189   5.046   3.500  0.5759 -1.7949 -0.0845
   94MOL   H35945185   0.055   5.244   3.449  0.7494  0.1625 -0.2142
   94MOL   H36045186   8.300   5.028   3.111  1.5298 -0.6556 -0.5375
   94MOL   H36145187   8.424   4.827   3.195  2.1370 -0.6812 -0.3901
   94MOL   C36245188   8.208   5.414   3.083 -1.0462  0.9689  0.2909
   94MOL   C36345189   8.224   5.518   2.985 -0.6659  0.4410 -0.0210
   94MOL   C36445190   8.351   5.545   2.933  0.1186  0.6372  0.0717
   94MOL   C36545191   0.033   5.476   2.981  0.7249 -0.2942  0.4264
   94MOL   C36645192   0.023   5.387   3.084 -0.0584 -0.9915 -0.7101
   94MOL   C36745193   8.320   5.352   3.142 -0.5827 -0.1845 -0.7445
   94MOL   S36845194   8.376   5.679   2.817 -0.3611 -0.2569  0.0893
   94MOL   O36945195   0.039   5.768   2.893 -0.5228 -0.1316  0.3091
   94MOL   O37045196   8.249   5.730   2.758  0.2201 -0.5141 -0.3015
   94MOL   C37145197   0.049   5.604   2.687 -0.3002  0.4956  0.9288
   94MOL   C37245198   0.188   5.589   2.694  0.1430  1.0147 -0.4124
   94MOL   C37345199   0.256   5.514   2.599 -0.9766  0.2044 -0.7681
   94MOL   C37445200   0.194   5.479   2.481  0.4132 -0.2645 -0.5915
   94MOL   C37545201   0.057   5.492   2.470  0.1780 -0.6100 -0.0226
   94MOL   C37645202   8.400   5.557   2.574 -0.6115 -0.6772  0.8359
   94MOL   O37745203   0.259   5.441   2.375  0.3919 -0.1098 -0.3243
   94MOL   H37845204   8.107   5.387   3.112 -0.7773 -0.8843 -0.4166
   94MOL   H37945205   8.136   5.572   2.955 -0.2016  1.1972 -0.0197
   94MOL   H38045206   0.128   5.514   2.946  0.0263 -0.0738 -1.2580
   94MOL   H38145207   0.114   5.341   3.118 -1.0549 -2.3980  0.1309
   94MOL   H38245208   0.230   5.615   2.790  1.9059  0.6781 -1.0750
   94MOL   H38345209   0.362   5.506   2.619 -1.4599 -0.0128  2.0039
   94MOL   H38445210   0.009   5.460   2.379  2.7830  3.1675 -2.8702
   94MOL   H38545211   8.292   5.560   2.578 -0.6566  0.1550 -0.4448
   94MOL   C38645212   0.409   5.261   2.426  0.2792 -0.0025  0.2191
   94MOL   C38745213   0.463   5.134   2.392  0.7261 -0.3660  0.3761
   94MOL   C38845214   0.399   5.052   2.297 -0.7378  0.1055  0.4017
   94MOL   C38945215   0.280   5.099   2.240  0.8600 -0.2742 -0.6984
   94MOL   C39045216   0.223   5.223   2.268  0.5787  0.0789 -0.7138
   94MOL   C39145217   0.293   5.309   2.362 -0.5596  0.4310 -0.4133
   94MOL   S39245218   0.473   4.898   2.252 -0.0782 -0.2504  0.0846
   94MOL   O39345219   0.610   4.894   2.312  0.2385  0.5923 -0.1977
   94MOL   O39445220   0.455   4.884   2.106 -0.2439  0.1003  0.1651
   94MOL   C39545221   0.374   4.775   2.333 -0.0190  0.6376 -0.2938
   94MOL   C39645222   0.420   4.697   2.442  0.0777 -0.3498  0.0679
   94MOL   C39745223   0.334   4.622   2.521 -0.1621  0.2986  0.6073
   94MOL   C39845224   0.203   4.605   2.480  0.6162  0.0852  0.4046
   94MOL   C39945225   0.153   4.665   2.362  0.0180 -0.1970  0.0270
   94MOL   C40045226   0.237   4.756   2.294 -0.4961  0.0374 -0.6061
   94MOL   O40145227   0.130   4.528   2.561  0.2631 -0.0176  0.4635
   94MOL   H40245228   0.462   5.324   2.497 -1.3468  1.4100  0.2162
   94MOL   H40345229   0.557   5.100   2.434  1.3380  1.3076  0.4035
   94MOL   H40445230   0.237   5.037   2.163  1.8452  0.1904 -1.6384
   94MOL   H40545231   0.126   5.244   2.227 -0.5183 -1.9133  0.7900
   94MOL   H40645232   0.519   4.712   2.483 -0.2070 -1.1020  1.0362
   94MOL   H40745233   0.376   4.571   2.606 -0.5601  0.2508  0.7765
   94MOL   H40845234   0.048   4.658   2.337 -0.1160  3.1517 -0.6076
   94MOL   H40945235   0.201   4.815   2.211 -1.0662  0.5874  0.0217
   94MOL   C41045236   8.333   4.629   2.590 -0.2812  0.3035 -0.2899
   94MOL   C41145237   8.235   4.698   2.665 -0.2541  0.0505 -0.1520
   94MOL   C41245238   8.282   4.751   2.790  0.2081  0.1827 -0.1785
   94MOL   C41345239   8.411   4.724   2.843 -0.2418 -0.0089  0.0036
   94MOL   C41445240   0.072   4.645   2.768  0.5009 -0.3530 -0.4050
   94MOL   C41545241   0.040   4.600   2.638 -0.0501  0.6021  0.0194
   94MOL   S41645242   8.166   4.845   2.887 -0.0121  0.1522  0.3986
   94MOL   O41745243   8.211   4.981   2.881  0.3933 -0.2698  0.3403
   94MOL   O41845244   8.160   4.780   3.024 -0.3109  0.2832  0.4100
   94MOL   C41945245   8.000   4.827   2.817 -0.1736  0.0911  0.6208
   94MOL   C42045246   7.971   4.902   2.705  0.4649 -0.4043 -0.4608
   94MOL   C42145247   7.843   4.879   2.638 -0.1052 -0.7467 -0.2519
   94MOL   C42245248   7.766   4.769   2.674  0.2560  0.3610 -1.4688
   94MOL   C42345249   7.798   4.692   2.786 -0.3321 -0.0530  0.3458
   94MOL   C42445250   7.916   4.727   2.863  0.5211 -0.3444 -0.0388
   94MOL   O42545251   7.659   4.723   2.606  0.0502  0.6216  0.4367
   94MOL   H42645252   8.303   4.600   2.490  1.7790  2.7027 -1.6558
   94MOL   H42745253   8.132   4.707   2.635 -0.6585  1.4868  1.5458
   94MOL   H42845254   0.016   4.766   2.937 -0.8585  1.0457 -0.2663
   94MOL   H42945255   0.173   4.632   2.804  0.7903 -0.0525 -1.1094
   94MOL   H43045256   8.047   4.971   2.671 -1.3774  2.2076  0.5575
   94MOL   H43145257   7.809   4.932   2.550  2.6661  3.3340  0.9454
   94MOL   H43245258   7.734   4.612   2.821 -0.2362  0.5834  2.0253
   94MOL   H43345259   7.938   4.670   2.952 -1.1346 -0.9562 -0.0099
   94MOL   C43445260   7.785   4.643   2.407 -0.4037  0.0791  0.2698
   94MOL   C43545261   7.785   4.615   2.265  0.6441 -0.5238  0.3920
   94MOL   C43645262   7.664   4.633   2.192  0.4092 -0.1783  0.3718
   94MOL   C43745263   7.551   4.688   2.255 -0.4934  0.0614 -0.2398
   94MOL   C43845264   7.552   4.709   2.394  0.3534  0.7951  0.3075
   94MOL   C43945265   7.668   4.691   2.470 -0.5511  0.2287 -0.0610
   94MOL   S44045266   7.678   4.596   2.019  0.2678 -0.2022 -0.0383
   94MOL   O44145267   7.558   4.513   1.988  0.0674  0.5054 -0.0430
   94MOL   O44245268   7.815   4.551   1.987  0.9956  0.5328  0.0111
   94MOL   C44345269   7.663   4.754   1.930 -0.3035  0.0378 -0.0596
   94MOL   C44445270   7.551   4.836   1.934 -0.4701  0.0348 -0.7963
   94MOL   C44545271   7.540   4.955   1.864 -0.1292 -0.1839 -0.5669
   94MOL   C44645272   7.645   4.993   1.776  0.3976  0.0745 -0.5666
   94MOL   C44745273   7.762   4.915   1.768 -0.6216  0.2514  0.1387
   94MOL   C44845274   7.771   4.797   1.849 -0.1197 -0.8242  0.5244
   94MOL   O44945275   7.621   5.105   1.698  0.0093  0.5623  0.3203
   94MOL   H45045276   7.875   4.612   2.458 -0.6422 -1.7523 -0.3723
   94MOL   H45145277   7.865   4.562   2.214  1.6140 -1.6351  2.9885
   94MOL   H45245278   7.456   4.709   2.207 -0.0952  0.5261 -0.8219
   94MOL   H45345279   7.466   4.749   2.447 -0.9642 -1.3950 -0.1276
   94MOL   H45445280   7.474   4.805   2.003  0.4616 -0.8161 -0.1160
   94MOL   H45545281   7.456   5.022   1.878 -1.1696 -1.6789  0.6024
   94MOL   H45645282   7.830   4.950   1.691 -1.3359 -1.3886 -1.2719
   94MOL   H45745283   7.863   4.741   1.842 -0.0152 -0.4536 -1.2560
   94MOL   C45845284   7.402   5.168   1.646 -0.6151  0.3188  0.5883
   94MOL   C45945285   7.286   5.174   1.562  0.3049  0.1220  0.1743
   94MOL   C46045286   7.310   5.129   1.427  0.3344 -0.5353  0.2140
   94MOL   C46145287   7.433   5.081   1.387  0.6925 -0.4435  0.4727
   94MOL   C46245288   7.542   5.063   1.478 -0.1588  0.1869  0.9642
   94MOL   C46345289   7.521   5.109   1.611  0.2047  0.1540 -0.2989
   94MOL   S46445290   7.171   5.122   1.315  0.0306  0.2789 -0.0072
   94MOL   O46545291   7.169   4.995   1.237  0.1509  0.0850  0.0424
   94MOL   O46645292   7.150   5.252   1.250 -0.3274 -0.2888 -0.4699
   94MOL   C46745293   7.031   5.097   1.426 -0.6010  0.0878  0.0144
   94MOL   C46845294   7.004   4.966   1.481  0.1291 -0.6922 -0.4843
   94MOL   C46945295   6.896   4.958   1.572 -0.6261 -0.2211 -0.5528
   94MOL   C47045296   6.834   5.079   1.622 -0.6097  0.2017  0.5731
   94MOL   C47145297   6.862   5.205   1.564  0.0053  1.3494  1.4238
   94MOL   C47245298   6.960   5.209   1.462  0.3626  0.3418 -0.5405
   94MOL   O47345299   6.732   5.083   1.713 -0.2458  0.2409 -0.4412
   94MOL   H47445300   7.392   5.206   1.747 -0.7274  0.0226  0.6898
   94MOL   H47545301   7.185   5.207   1.580  0.1100  0.7868 -1.9162
   94MOL   H47645302   7.446   5.057   1.283 -0.8800 -0.7312  0.3412
   94MOL   H47745303   7.637   5.027   1.443 -1.0329  0.0862 -1.3706
   94MOL   H47845304   7.075   4.887   1.461 -0.3715 -1.5831  1.2327
   94MOL   H47945305   6.871   4.867   1.625  0.5818  0.4477  1.2054
   94MOL   H48045306   6.819   5.299   1.593 -0.4425  1.6175 -0.0674
   94MOL   H48145307   6.987   5.302   1.414  2.2360  0.8476  1.4238
   94MOL   H48245308   6.704   5.169   1.742 -0.1995  0.0615  0.1550
   95MOL     C145309   6.427   1.260   1.287  0.0696 -0.1663 -0.7897
   95MOL     C245310   6.514   1.365   1.295  0.5416 -0.8167  0.5726
   95MOL     C345311   6.634   1.367   1.215 -0.2578 -0.5973 -0.6229
   95MOL     C445312   6.674   1.247   1.154 -0.3172  0.6743  0.9600
   95MOL     C545313   6.596   1.135   1.163 -0.1909  0.8963  0.1179
   95MOL     C645314   6.469   1.137   1.228  0.7297 -0.6926 -0.4833
   95MOL     S745315   6.743   1.510   1.209  0.0163 -0.1122  0.1572
   95MOL     O845316   6.866   1.466   1.285 -0.2940  0.2760  0.9273
   95MOL     O945317   6.670   1.628   1.253  0.8035 -0.1164 -0.5445
   95MOL    C1045318   6.789   1.533   1.037  0.5785 -0.4860  0.6639
   95MOL    C1145319   6.684   1.541   0.942 -0.1362 -0.3801 -0.1141
   95MOL    C1245320   6.721   1.557   0.809 -0.7748  0.1253 -0.2968
   95MOL    C1345321   6.856   1.573   0.764  0.3599  0.2764 -0.0612
   95MOL    C1445322   6.956   1.576   0.868  0.1197 -0.2750  0.3772
   95MOL    C1545323   6.922   1.545   1.002  0.0784 -0.4770 -0.0310
   95MOL    O1645324   6.891   1.584   0.636 -0.4218 -0.1997  0.2933
   95MOL    H1745325   6.331   1.272   1.335  0.1240 -0.5561 -0.5835
   95MOL    H1845326   6.484   1.448   1.358  0.4689  0.0070 -0.5261
   95MOL    H1945327   6.768   1.235   1.102 -0.6494 -0.5315  0.6271
   95MOL    H2045328   6.634   1.054   1.102 -0.9864  0.9043 -0.3878
   95MOL    H2145329   6.584   1.525   0.980  0.7567 -0.9086  2.1034
   95MOL    H2245330   6.643   1.539   0.736 -0.3612  0.9458 -0.9429
   95MOL    H2345331   7.053   1.604   0.832 -0.4632  0.4177 -0.6731
   95MOL    H2445332   7.000   1.536   1.075  1.5106  2.9217 -1.0563
   95MOL    H2545333   6.405   1.052   1.212 -0.1450  0.0060 -0.7079
   95MOL    C2645334   6.764   1.795   0.585 -0.0230  0.2253  0.6989
   95MOL    C2745335   6.759   1.929   0.546 -1.1043 -1.3587 -0.4906
   95MOL    C2845336   6.877   1.986   0.491 -0.0884  0.0850 -0.0992
   95MOL    C2945337   6.996   1.916   0.505 -0.2427  0.3430 -0.1536
   95MOL    C3045338   6.995   1.787   0.552 -0.0479  0.1127  0.3072
   95MOL    C3145339   6.882   1.719   0.589  0.2200 -0.0459 -0.1111
   95MOL    S3245340   6.875   2.156   0.430  0.1795  0.3406  0.2063
   95MOL    O3345341   7.013   2.204   0.445 -0.6731  0.3381  0.2220
   95MOL    O3445342   6.762   2.221   0.497  0.2270  0.1261  0.0209
   95MOL    C3545343   6.840   2.144   0.255  0.1571  0.1010  0.3554
   95MOL    C3645344   6.919   2.223   0.168  0.1814  0.0916 -0.6365
   95MOL    C3745345   6.880   2.220   0.031  0.3626  0.3047  0.3510
   95MOL    C3845346   6.774   2.139   8.410  0.0844  0.6055  0.0528
   95MOL    C3945347   6.700   2.064   0.076  0.4241  0.8491  0.6111
   95MOL    C4045348   6.731   2.061   0.214  0.4163 -0.3663  0.0044
   95MOL    O4145349   6.752   2.129   8.277 -0.8479 -0.7929 -0.1721
   95MOL    H4245350   6.673   1.745   0.616 -0.1336 -0.5189 -0.7513
   95MOL    H4345351   6.661   1.974   0.547 -1.1280 -1.3781 -1.5380
   95MOL    H4445352   7.089   1.959   0.472 -0.2184  0.7935  0.5075
   95MOL    H4545353   7.094   1.744   0.548 -0.0206  0.2852 -1.7406
   95MOL    H4645354   6.991   2.292   0.210  0.1497 -0.2803  0.0373
   95MOL    H4745355   6.925   2.284   8.382  2.5466  0.7900  2.0734
   95MOL    H4845356   6.610   2.014   0.042  0.1961  0.3582  1.9211
   95MOL    H4945357   6.674   2.001   0.284 -0.3669  0.5107  0.1333
   95MOL    C5045358   6.527   2.194   8.222 -0.0318  0.6660  0.1187
   95MOL    C5145359   6.437   2.285   8.165  0.0901 -0.3466  0.1898
   95MOL    C5245360   6.483   2.403   8.100 -1.0980 -0.6691  0.2903
   95MOL    C5345361   6.621   2.429   8.100  0.4280  0.0394  0.2408
   95MOL    C5445362   6.710   2.336   8.159  0.2052  0.4901  0.3785
   95MOL    C5545363   6.664   2.219   8.224  0.2533 -0.7556  0.1937
   95MOL    S5645364   6.355   2.508   8.028  0.0599  0.1693  0.1020
   95MOL    O5745365   6.300   2.586   8.141 -0.1136 -0.0397 -0.3828
   95MOL    O5845366   6.265   2.412   7.952  0.3685 -0.6878  0.4085
   95MOL    C5945367   6.424   2.627   7.916  0.1267  0.6687 -0.1311
   95MOL    C6045368   6.490   2.580   7.801  0.2050  0.2447  0.1066
   95MOL    C6145369   6.536   2.665   7.703 -0.2212 -0.6905  0.1185
   95MOL    C6245370   6.532   2.808   7.726  0.8341  0.3012  0.7393
   95MOL    C6345371   6.469   2.857   7.847 -0.2182  0.0267 -0.5958
   95MOL    C6445372   6.418   2.767   7.946 -0.4041 -0.2443 -0.3610
   95MOL    O6545373   6.609   2.891   7.650  0.9164 -0.1255  0.0005
   95MOL    H6645374   6.489   2.105   8.270  0.1521 -0.4909 -1.8276
   95MOL    H6745375   6.329   2.276   8.172 -0.1927  1.4963 -1.3905
   95MOL    H6845376   6.657   2.516   8.047 -1.8454  0.8513 -0.0145
   95MOL    H6945377   6.817   2.347   8.149  0.2510  0.8070  1.2007
   95MOL    H7045378   6.500   2.473   7.792 -1.2203 -0.0411  1.6029
   95MOL    H7145379   6.589   2.628   7.617  2.7184  1.0166  1.0928
   95MOL    H7245380   6.470   2.962   7.869  1.7866 -0.4404  1.7657
   95MOL    H7345381   6.372   2.801   8.038  1.7349  0.7925  0.3849
   95MOL    C7445382   6.609   3.091   7.516 -0.0942 -0.0634  0.3693
   95MOL    C7545383   6.552   3.183   7.428 -0.0062 -0.4147  0.3448
   95MOL    C7645384   6.420   3.153   7.384  0.4205  0.4586  0.3772
   95MOL    C7745385   6.347   3.045   7.437 -0.3171 -0.1598  1.3457
   95MOL    C7845386   6.412   2.960   7.521  0.6897  0.5035  0.5924
   95MOL    C7945387   6.548   2.978   7.561  0.8532  0.3235 -0.2458
   95MOL    S8045388   6.344   3.252   7.258  0.1501 -0.1625  0.2643
   95MOL    O8145389   6.343   3.393   7.305  0.0933 -0.1679  0.3953
   95MOL    O8245390   6.224   3.196   7.199 -0.5355 -0.9297 -0.5560
   95MOL    C8345391   6.476   3.247   7.133 -0.2383 -0.5008  0.1834
   95MOL    C8445392   6.559   3.356   7.105  0.6052 -0.7226 -0.8501
   95MOL    C8545393   6.640   3.347   6.984 -0.5610 -0.3245 -0.6243
   95MOL    C8645394   6.640   3.232   6.904 -0.3418  0.0919 -0.3448
   95MOL    C8745395   6.563   3.126   6.935 -0.0779  0.0371 -0.2618
   95MOL    C8845396   6.489   3.125   7.058  0.4139 -0.3415  0.7461
   95MOL    O8945397   6.721   3.228   6.790  0.5721 -0.1135 -0.2512
   95MOL    H9045398   6.712   3.103   7.547  0.4242 -0.7191 -1.0981
   95MOL    H9145399   6.610   3.263   7.384 -0.8331  0.5916  1.0871
   95MOL    H9245400   6.248   3.014   7.406  0.3834 -1.3137  0.2763
   95MOL    H9345401   6.349   2.882   7.563  1.3688 -1.1719 -1.4266
   95MOL    H9445402   6.543   3.447   7.161  1.1472 -1.4144  0.4590
   95MOL    H9545403   6.701   3.428   6.947  0.3048 -0.2133  0.9986
   95MOL    H9645404   6.579   3.046   6.863 -0.2285  1.6740 -2.1541
   95MOL    H9745405   6.425   3.041   7.083  1.1971 -0.8032  1.1907
   95MOL    C9845406   6.747   3.235   6.551 -0.4786 -0.2516  0.7291
   95MOL    C9945407   6.702   3.251   6.416 -0.0229 -0.1246  0.2423
   95MOL   C10045408   6.567   3.283   6.404  0.0902 -0.3459 -0.3998
   95MOL   C10145409   6.485   3.312   6.512  0.4170  0.0138 -0.0574
   95MOL   C10245410   6.533   3.297   6.643  0.5310  0.0866  0.5179
   95MOL   C10345411   6.666   3.255   6.666  0.0351 -0.1873 -0.5508
   95MOL   S10445412   6.498   3.303   6.237 -0.0215  0.3688  0.2435
   95MOL   O10545413   6.390   3.204   6.217  0.0771 -0.2323  0.6692
   95MOL   O10645414   6.615   3.301   6.149 -0.1278 -0.9119 -0.1331
   95MOL   C10745415   6.431   3.467   6.241  0.5849 -0.1086  0.1344
   95MOL   C10845416   6.302   3.487   6.187 -0.3612  0.1070  0.2434
   95MOL   C10945417   6.238   3.614   6.201 -0.4583  0.4921 -0.1854
   95MOL   C11045418   6.301   3.724   6.259 -0.4443  0.2703  0.1869
   95MOL   C11145419   6.434   3.706   6.309 -0.9572  0.1513 -0.5914
   95MOL   C11245420   6.497   3.576   6.306  0.7566 -0.0239 -0.3853
   95MOL   O11345421   6.233   3.840   6.278  0.1749 -0.4871 -0.3350
   95MOL   H11445422   6.849   3.209   6.575 -0.0031  0.4771 -0.4692
   95MOL   H11545423   6.760   3.228   6.327  1.2687  3.4834  0.0617
   95MOL   H11645424   6.383   3.345   6.497  0.0705 -1.1321 -0.3141
   95MOL   H11745425   6.460   3.306   6.722  0.3680  1.2176  0.2406
   95MOL   H11845426   6.265   3.405   6.128 -0.8041 -0.4091  1.2294
   95MOL   H11945427   6.137   3.634   6.166 -0.4143  0.4198 -0.3516
   95MOL   H12045428   6.488   3.793   6.345  0.0653  0.4152 -2.7310
   95MOL   H12145429   6.589   3.561   6.360 -0.5966  0.9039  2.2652
   95MOL   C12245430   5.995   3.867   6.270  0.2557  0.2149  0.0725
   95MOL   C12345431   5.874   3.868   6.340 -0.0020 -0.2480  0.3815
   95MOL   C12445432   5.856   3.819   6.470  0.1371  1.1842  0.0834
   95MOL   C12545433   5.973   3.780   6.540 -0.2315  0.3597  0.0291
   95MOL   C12645434   6.104   3.794   6.475 -0.1211 -0.3940  0.4259
   95MOL   C12745435   6.111   3.831   6.340  0.0319 -0.3226 -0.9897
   95MOL   S12845436   5.697   3.808   6.546  0.0989  0.0292 -0.3228
   95MOL   O12945437   5.690   3.683   6.624  0.7395  0.1926  0.4765
   95MOL   O13045438   5.591   3.837   6.443  0.0440 -0.1260  0.1750
   95MOL   C13145439   5.683   3.944   6.660  0.6142 -0.7793  0.0101
   95MOL   C13245440   5.793   4.028   6.682 -0.1099 -0.8502 -0.2502
   95MOL   C13345441   5.779   4.134   6.783  0.0715 -0.9620 -0.1909
   95MOL   C13445442   5.659   4.154   6.854 -0.8010 -0.1811 -0.1443
   95MOL   C13545443   5.551   4.063   6.840 -0.7785 -0.3274  0.2341
   95MOL   C13645444   5.560   3.957   6.743  0.9055 -0.5855 -0.7909
   95MOL   O13745445   5.654   4.263   6.937 -0.8055  0.3132  0.4082
   95MOL   H13845446   5.999   3.915   6.173  3.1891  1.4791  0.7842
   95MOL   H13945447   5.794   3.917   6.286  1.6888 -0.4210 -2.3844
   95MOL   H14045448   5.966   3.745   6.642  1.3384  1.1111  0.4083
   95MOL   H14145449   6.196   3.757   6.518  1.2008  0.1027 -1.8603
   95MOL   H14245450   5.889   4.020   6.634  0.7331 -1.4037  1.4823
   95MOL   H14345451   5.866   4.197   6.792 -0.0037 -0.9676  0.5925
   95MOL   H14445452   5.460   4.082   6.895 -1.4459  1.1941 -1.3235
   95MOL   H14545453   5.474   3.893   6.735  0.9363 -0.7025 -0.2279
   95MOL   C14645454   5.433   4.348   6.999  0.0122 -0.4049 -0.4196
   95MOL   C14745455   5.316   4.418   6.970 -0.0115 -0.2588  0.2921
   95MOL   C14845456   5.312   4.489   6.851 -0.2879 -0.4916 -0.0128
   95MOL   C14945457   5.426   4.493   6.765  0.0934 -0.4033 -1.0195
   95MOL   C15045458   5.539   4.419   6.799 -0.6037 -0.4136 -0.1918
   95MOL   C15145459   5.547   4.343   6.910  0.0462  0.2276  0.0337
   95MOL   S15245460   5.166   4.575   6.805  0.0171 -0.0749 -0.2464
   95MOL   O15345461   5.062   4.545   6.906  0.1569  0.1665  0.1470
   95MOL   O15445462   5.137   4.545   6.663 -0.1352 -0.3853  0.2001
   95MOL   C15545463   5.209   4.753   6.829 -0.2545  0.7811  0.1823
   95MOL   C15645464   5.250   4.830   6.718 -0.1469  0.5218  0.0101
   95MOL   C15745465   5.302   4.960   6.746  0.9190 -0.0340  0.1446
   95MOL   C15845466   5.316   5.006   6.881  0.2051  0.3906  0.2297
   95MOL   C15945467   5.269   4.929   6.984 -0.2189 -0.3181 -0.3652
   95MOL   C16045468   5.217   4.797   6.961  0.5618  0.3244 -0.0932
   95MOL   O16145469   5.371   5.126   6.908 -0.4660  0.1995 -0.0983
   95MOL   H16245470   5.435   4.293   7.092 -1.9263  0.9910  0.4751
   95MOL   H16345471   5.240   4.419   7.047  0.2340 -0.2879  0.5380
   95MOL   H16445472   5.409   4.546   6.672  1.6964  1.7083 -0.1568
   95MOL   H16545473   5.615   4.417   6.722 -0.9035 -1.2165 -0.4850
   95MOL   H16645474   5.240   4.790   6.618  1.4392  2.5064 -0.9747
   95MOL   H16745475   5.327   5.023   6.663 -0.1222  0.3585  0.1151
   95MOL   H16845476   5.276   4.965   7.085  1.6714 -3.6729  0.8016
   95MOL   H16945477   5.166   4.738   7.036 -0.3788 -0.6314 -1.4658
   95MOL   C17045478   5.552   5.212   7.036 -0.9123 -0.1257  0.2222
   95MOL   C17145479   5.688   5.247   7.052  0.2852 -0.0860  0.1637
   95MOL   C17245480   5.783   5.222   6.949  0.9803  0.6057 -0.4511
   95MOL   C17345481   5.745   5.138   6.845  0.0960  0.0035 -0.0712
   95MOL   C17445482   5.604   5.103   6.825  0.1283  0.4857 -0.5901
   95MOL   C17545483   5.506   5.134   6.926 -0.9887 -0.7175  0.2240
   95MOL   S17645484   5.945   5.293   6.972  0.1960  0.2104 -0.0108
   95MOL   O17745485   5.934   5.420   7.038  0.1251  0.1329  0.3769
   95MOL   O17845486   6.004   5.284   6.836 -0.3905 -0.1115  0.8956
   95MOL   C17945487   6.036   5.189   7.085  0.4108 -0.0652  0.0127
   95MOL   C18045488   6.006   5.050   7.084  0.4462  0.1798 -0.0412
   95MOL   C18145489   6.085   4.971   7.169 -0.0294  0.2373 -0.3764
   95MOL   C18245490   6.198   5.025   7.237 -0.8061 -0.5436 -0.0083
   95MOL   C18345491   6.223   5.164   7.227  0.2260  0.1135 -0.1207
   95MOL   C18445492   6.147   5.245   7.147 -0.5103  0.0667  0.1631
   95MOL   O18545493   6.284   4.957   7.317 -0.0060  0.1371  0.3835
   95MOL   H18645494   5.475   5.245   7.104 -2.3555 -1.9270 -0.4913
   95MOL   H18745495   5.724   5.296   7.141  2.2480  1.2421 -1.3096
   95MOL   H18845496   5.819   5.121   6.767 -0.1557  0.8255 -0.4917
   95MOL   H18945497   5.565   5.058   6.735 -2.3139  0.8718  0.2198
   95MOL   H19045498   5.933   4.990   7.031  0.2341 -0.4178  0.9275
   95MOL   H19145499   6.078   4.864   7.177  1.0040  0.3263  2.3779
   95MOL   H19245500   6.298   5.212   7.289  0.3354 -0.0728 -0.1073
   95MOL   H19345501   6.174   5.347   7.125  1.5100 -0.5594 -0.3893
   95MOL   C19445502   6.473   4.925   7.164  0.2301 -0.2434  0.3192
   95MOL   C19545503   6.554   4.846   7.087 -0.0458  0.1406 -0.6629
   95MOL   C19645504   6.546   4.708   7.105  1.0660  0.3994  0.2764
   95MOL   C19745505   6.456   4.650   7.196  0.3449 -0.9592 -0.0462
   95MOL   C19845506   6.357   4.733   7.260 -0.2172 -0.6076  0.1380
   95MOL   C19945507   6.372   4.876   7.255 -0.5214 -0.3098  0.2692
   95MOL   S20045508   6.645   4.597   7.008  0.0299  0.3260 -0.0780
   95MOL   O20145509   6.580   4.470   7.030  0.1970  0.1178 -0.5572
   95MOL   O20245510   6.786   4.614   7.049 -0.3588  0.2575 -0.7530
   95MOL   C20345511   6.628   4.642   6.840 -0.0462  0.0537  0.3838
   95MOL   C20445512   6.684   4.757   6.778  0.1366 -0.1185 -0.2158
   95MOL   C20545513   6.640   4.797   6.651 -0.2387  0.3810  0.1434
   95MOL   C20645514   6.542   4.735   6.579  0.2520 -0.1341 -0.2184
   95MOL   C20745515   6.486   4.620   6.640 -0.3897  0.5802  0.3391
   95MOL   C20845516   6.534   4.568   6.761  0.0599  0.0892 -0.0635
   95MOL   O20945517   6.498   4.775   6.453 -0.0853 -0.1361 -0.1616
   95MOL   H21045518   6.481   5.033   7.155  0.5929 -0.2359  0.6865
   95MOL   H21145519   6.626   4.882   7.015 -1.6345  0.5741 -2.0930
   95MOL   H21245520   6.458   4.543   7.212  0.2811 -1.0153 -0.3988
   95MOL   H21345521   6.281   4.689   7.322  0.5631  0.6256  2.0290
   95MOL   H21445522   6.754   4.822   6.828  2.3248 -1.4685 -1.4523
   95MOL   H21545523   6.679   4.890   6.613 -2.7122  1.0068 -0.9684
   95MOL   H21645524   6.408   4.562   6.593 -1.9643  1.0122  2.3433
   95MOL   H21745525   6.477   4.491   6.810  0.3445  0.0746  0.2508
   95MOL   C21845526   6.501   4.736   6.223 -0.7324  0.2252 -0.8669
   95MOL   C21945527   6.573   4.706   6.106 -0.9307  0.6103  1.0704
   95MOL   C22045528   6.713   4.717   6.105  0.1653 -0.3141 -0.4367
   95MOL   C22145529   6.783   4.757   6.215  0.0261 -0.0036  0.1326
   95MOL   C22245530   6.715   4.779   6.338 -0.5284 -0.9607 -0.8153
   95MOL   C22345531   6.572   4.762   6.340  0.6219 -0.3383  0.2538
   95MOL   S22445532   6.800   4.672   5.954  0.4195  0.1327 -0.8446
   95MOL   O22545533   6.938   4.717   5.967 -0.2636 -0.3241 -0.9906
   95MOL   O22645534   6.725   4.713   5.835 -0.2896  0.0706  0.6806
   95MOL   C22745535   6.791   4.495   5.959  0.3816  0.0004  0.4578
   95MOL   C22845536   6.771   4.419   6.081 -0.0847  0.3185 -0.3661
   95MOL   C22945537   6.788   4.278   6.082  0.9271 -0.4028 -0.6332
   95MOL   C23045538   6.816   4.209   5.965 -0.3555 -0.2628  0.3340
   95MOL   C23145539   6.833   4.287   5.847 -0.6074  0.7689  0.1296
   95MOL   C23245540   6.813   4.424   5.841 -0.2195  0.0802  0.6107
   95MOL   O23345541   6.836   4.074   5.973 -0.1430  0.1442 -0.3323
   95MOL   H23445542   6.393   4.730   6.210 -0.9680  1.3522  0.5112
   95MOL   H23545543   6.535   4.681   6.008 -1.3480 -1.9596  1.8558
   95MOL   H23645544   6.891   4.762   6.221  0.0348 -1.8150  2.7498
   95MOL   H23745545   6.768   4.806   6.428 -1.7934  1.2727 -0.6925
   95MOL   H23845546   6.762   4.456   6.182  0.7143 -1.1117  0.2469
   95MOL   H23945547   6.770   4.217   6.169 -0.9427 -0.0791 -0.7805
   95MOL   H24045548   6.853   4.228   5.758  0.4774  2.9017 -1.0846
   95MOL   H24145549   6.843   4.473   5.750 -1.3783  1.6801  1.0754
   95MOL   C24245550   6.881   3.907   6.140 -0.1446  0.4714 -0.5432
   95MOL   C24345551   6.975   3.851   6.231  0.2357  0.1417 -0.4344
   95MOL   C24445552   7.099   3.911   6.250  0.3278 -0.7738  0.2191
   95MOL   C24545553   7.142   4.030   6.178  0.4791 -0.0078  0.2009
   95MOL   C24645554   7.047   4.080   6.084 -0.6778 -0.5827 -1.1849
   95MOL   C24745555   6.918   4.020   6.067 -0.3622 -0.2401  0.6128
   95MOL   S24845556   7.202   3.843   6.375 -0.0124  0.2589  0.1821
   95MOL   O24945557   7.218   3.697   6.352 -0.1475 -0.0444 -0.0225
   95MOL   O25045558   7.139   3.887   6.499 -0.0907  0.2416  0.2787
   95MOL   C25145559   7.362   3.925   6.358  0.9745 -0.0231  0.0766
   95MOL   C25245560   7.386   4.041   6.431  0.1358 -0.0896  0.4455
   95MOL   C25345561   7.517   4.110   6.417 -0.5914 -0.1074 -0.3762
   95MOL   C25445562   7.618   4.056   6.337 -0.6267  0.5979  0.3488
   95MOL   C25545563   7.592   3.937   6.264  0.9885  0.2343  0.1549
   95MOL   C25645564   7.462   3.874   6.277  0.1113  0.2142 -0.3266
   95MOL   O25745565   7.734   4.127   6.323 -0.2360 -0.9916 -0.7063
   95MOL   H25845566   6.784   3.862   6.124  0.0306 -0.1873  0.1777
   95MOL   H25945567   6.950   3.772   6.302 -0.1663  2.1865  1.7694
   95MOL   H26045568   7.241   4.072   6.187 -0.1537  1.8876 -1.2068
   95MOL   H26145569   7.079   4.164   6.025  0.3589 -0.0896  0.0715
   95MOL   H26245570   7.305   4.088   6.485 -0.7127 -0.9678 -0.0504
   95MOL   H26345571   7.545   4.197   6.474  1.3990 -0.9433 -0.0088
   95MOL   H26445572   7.673   3.893   6.208 -1.2692 -1.2301 -2.0856
   95MOL   H26545573   7.441   3.786   6.217  1.1284 -0.6398  0.5340
   95MOL   C26645574   7.896   4.084   6.164 -0.4753 -0.5489 -0.5167
   95MOL   C26745575   8.020   4.029   6.130 -0.0457  0.7799  0.4847
   95MOL   C26845576   8.096   3.948   6.224  0.4066  0.0975  0.3809
   95MOL   C26945577   8.050   3.930   6.356  0.1511  0.5294 -0.3531
   95MOL   C27045578   7.929   3.986   6.388  0.7668  0.3416  0.0062
   95MOL   C27145579   7.852   4.063   6.296 -0.1606 -0.0230 -0.4248
   95MOL   S27245580   8.231   3.848   6.167 -0.1976  0.0687 -0.2416
   95MOL   O27345581   8.241   3.733   6.252  0.1545 -0.2942  0.1471
   95MOL   O27445582   8.348   3.937   6.143 -0.8854 -0.2704 -0.2984
   95MOL   C27545583   8.178   3.779   6.011 -0.1757 -0.1947  0.4788
   95MOL   C27645584   8.047   3.725   6.003 -0.3193 -0.1640  0.1173
   95MOL   C27745585   7.993   3.674   5.881  0.7340 -0.2078 -0.1330
   95MOL   C27845586   8.075   3.678   5.768 -0.7917  0.2699  0.7097
   95MOL   C27945587   8.203   3.737   5.771  0.5807 -0.4853  0.2929
   95MOL   C28045588   8.255   3.785   5.890 -0.0174 -0.2452  0.1212
   95MOL   O28145589   8.021   3.637   5.652  0.3543  0.1790 -0.1825
   95MOL   H28245590   7.838   4.143   6.094  0.9697  2.0321  0.3999
   95MOL   H28345591   8.052   4.052   6.030 -1.2778  0.0066 -0.0999
   95MOL   H28445592   8.108   3.871   6.425  1.4795  2.0419 -0.1428
   95MOL   H28545593   7.887   3.958   6.484 -0.2299 -1.6344 -0.9796
   95MOL   H28645594   7.979   3.730   6.086  0.2065  1.0318  0.4870
   95MOL   H28745595   7.889   3.650   5.872  0.4667  0.5506  0.8370
   95MOL   H28845596   8.265   3.752   5.684 -0.7271 -0.0362 -0.5715
   95MOL   H28945597   8.355   3.825   5.883 -0.5800  1.1633  0.0601
   95MOL   C29045598   8.050   3.786   5.470  0.4178  0.0676  0.0506
   95MOL   C29145599   8.002   3.886   5.387  0.3130  0.5384  0.0838
   95MOL   C29245600   7.865   3.928   5.390 -0.4598  0.5177  0.0427
   95MOL   C29345601   7.778   3.869   5.486 -0.1733  0.2943  0.2259
   95MOL   C29445602   7.826   3.767   5.572  0.3965 -0.6207  0.7704
   95MOL   C29545603   7.962   3.724   5.566  0.2357  0.5179 -1.1115
   95MOL   S29645604   7.820   4.074   5.304 -0.1511 -0.3609 -0.3296
   95MOL   O29745605   7.939   4.121   5.227  0.3950 -0.6220  0.7176
   95MOL   O29845606   7.748   4.163   5.396 -0.1875  0.2615  0.1126
   95MOL   C29945607   7.699   4.017   5.175  0.3528  0.6359 -0.4812
   95MOL   C30045608   7.745   3.916   5.089  0.1587 -0.0646  0.2002
   95MOL   C30145609   7.671   3.878   4.974  0.0542 -0.3746 -0.8071
   95MOL   C30245610   7.550   3.951   4.946  0.5580 -1.0717 -0.2647
   95MOL   C30345611   7.504   4.052   5.034  0.4521  0.3664  0.2514
   95MOL   C30445612   7.582   4.090   5.146  0.2079 -0.4892  0.0440
   95MOL   O30545613   7.462   3.907   4.851 -0.1585 -0.2595 -0.0146
   95MOL   H30645614   8.155   3.766   5.453  0.3439 -1.9189  1.6422
   95MOL   H30745615   8.077   3.925   5.320 -1.5209  3.5048 -0.3230
   95MOL   H30845616   7.674   3.900   5.492 -1.2266 -2.2821 -3.3618
   95MOL   H30945617   7.762   3.725   5.648  0.9327 -2.1920  0.3640
   95MOL   H31045618   7.839   3.866   5.108  0.8977  0.4305 -2.0223
   95MOL   H31145619   7.694   3.797   4.906 -0.3639  0.6798 -2.2403
   95MOL   H31245620   7.405   4.093   5.019  1.1657  1.6054 -1.2053
   95MOL   H31345621   7.554   4.169   5.214 -0.6288 -2.1877  1.7497
   95MOL   C31445622   7.472   4.037   4.647  0.0522  0.7431 -0.8816
   95MOL   C31545623   7.415   4.123   4.558  0.0471 -0.3729  0.5790
   95MOL   C31645624   7.275   4.157   4.570 -0.0754 -0.0491 -0.0100
   95MOL   C31745625   7.198   4.114   4.683  0.3913  0.0468 -0.0342
   95MOL   C31845626   7.265   4.037   4.777  0.5296  0.6348 -0.1975
   95MOL   C31945627   7.401   3.992   4.758  0.2742 -0.0219 -0.1727
   95MOL   S32045628   7.195   4.260   4.443  0.1447  0.1791 -0.0690
   95MOL   O32145629   7.054   4.281   4.493 -0.1339 -0.2532  0.1048
   95MOL   O32245630   7.211   4.185   4.317  0.2765 -0.0522  0.4718
   95MOL   C32345631   7.293   4.402   4.435 -0.3496 -0.1810 -0.3716
   95MOL   C32445632   7.405   4.407   4.352 -0.0203 -0.7855  0.3461
   95MOL   C32545633   7.489   4.522   4.354 -0.6060 -1.0912 -0.3483
   95MOL   C32645634   7.459   4.637   4.422  0.4787  0.4866 -0.4940
   95MOL   C32745635   7.348   4.628   4.508 -0.4008  0.2016  0.2284
   95MOL   C32845636   7.266   4.513   4.519 -0.0944  0.7249  0.3757
   95MOL   O32945637   7.542   4.743   4.424 -0.0598  0.3452  0.2429
   95MOL   H33045638   7.576   4.007   4.640  0.1089 -0.0039  2.3389
   95MOL   H33145639   7.466   4.162   4.471 -1.0670  0.9069  0.4977
   95MOL   H33245640   7.092   4.134   4.684 -0.0813 -2.2436  2.1377
   95MOL   H33345641   7.213   3.988   4.859  0.1220  2.7327  0.8384
   95MOL   H33445642   7.427   4.316   4.297  0.4294 -0.6726  0.3401
   95MOL   H33545643   7.575   4.530   4.289 -0.8524 -0.5694 -0.6153
   95MOL   H33645644   7.317   4.714   4.564 -1.8991  0.5438 -1.0909
   95MOL   H33745645   7.184   4.525   4.587  0.6671  2.5298  0.9919
   95MOL   C33845646   7.605   4.931   4.549 -0.4950 -0.5542 -0.5759
   95MOL   C33945647   7.653   4.985   4.669  0.3514  0.4663  0.6509
   95MOL   C34045648   7.664   4.908   4.789  0.0335  0.0271  0.1585
   95MOL   C34145649   7.634   4.769   4.783 -0.3721 -0.3694  0.2904
   95MOL   C34245650   7.587   4.720   4.660  0.0975  0.2614 -0.3054
   95MOL   C34345651   7.575   4.795   4.542 -0.8824  0.6438  0.8108
   95MOL   S34445652   7.702   4.994   4.940  0.1385 -0.1644  0.0552
   95MOL   O34545653   7.579   4.990   5.023  0.3012 -0.2839 -0.1356
   95MOL   O34645654   7.757   5.121   4.893 -0.2758  0.6972 -0.8169
   95MOL   C34745655   7.830   4.895   5.013 -0.2565  0.0489  0.6217
   95MOL   C34845656   7.808   4.831   5.143 -0.0857 -0.3818  0.5223
   95MOL   C34945657   7.906   4.735   5.179  0.2089  0.4181 -0.4144
   95MOL   C35045658   8.019   4.710   5.096  0.2759  0.1980 -0.2126
   95MOL   C35145659   8.033   4.770   4.977 -0.0930 -0.0915  0.5251
   95MOL   C35245660   7.941   4.862   4.931 -0.0146  0.2562  0.0796
   95MOL   O35345661   8.110   4.617   5.133 -0.4993  0.5548 -0.1941
   95MOL   H35445662   7.599   4.991   4.459  0.7634  0.4094 -0.0291
   95MOL   H35545663   7.679   5.090   4.661  0.3326  0.3202 -1.4990
   95MOL   H35645664   7.636   4.710   4.873  0.4262 -1.9032 -0.6999
   95MOL   H35745665   7.566   4.614   4.671  0.8487  0.2977  1.7548
   95MOL   H35845666   7.724   4.859   5.205 -0.4121  0.7682 -0.4200
   95MOL   H35945667   7.894   4.682   5.273 -0.9896 -0.9493 -1.3046
   95MOL   H36045668   8.117   4.751   4.911  0.9473  1.6367  1.3010
   95MOL   H36145669   7.962   4.906   4.834  1.3855 -0.7076 -0.0700
   95MOL   C36245670   8.122   4.450   5.297  0.5352  0.3074  0.8872
   95MOL   C36345671   8.161   4.416   5.427  0.8109  0.3885  0.3651
   95MOL   C36445672   8.218   4.509   5.519  0.5097  0.1227  0.1779
   95MOL   C36545673   8.229   4.644   5.486  0.2177  0.2561  0.0772
   95MOL   C36645674   8.180   4.681   5.355  0.1070  0.2959 -0.9347
   95MOL   C36745675   8.127   4.585   5.265 -0.3893 -1.0565  1.3942
   95MOL   S36845676   8.278   4.446   5.678 -0.5375  0.0247  0.5934
   95MOL   O36945677   8.268   4.558   5.774 -0.3086  0.2480  0.4874
   95MOL   O37045678   8.412   4.394   5.649 -0.2001 -0.8806 -0.2421
   95MOL   C37145679   8.163   4.317   5.720  0.3089 -0.6116 -0.1205
   95MOL   C37245680   8.179   4.186   5.667  0.7092 -0.0319  0.1754
   95MOL   C37345681   8.092   4.083   5.703  0.0661  0.2491  0.0905
   95MOL   C37445682   7.987   4.102   5.793  0.2843 -0.0778  0.2136
   95MOL   C37545683   7.969   4.233   5.846 -0.5076 -0.5147 -0.5017
   95MOL   C37645684   8.055   4.341   5.807  0.0373 -0.2556  0.1322
   95MOL   O37745685   7.913   3.993   5.823  0.6038 -0.4964  0.2153
   95MOL   H37845686   8.080   4.377   5.231 -0.6037 -2.1002  4.1268
   95MOL   H37945687   8.174   4.312   5.451  1.4363  0.6761  1.2784
   95MOL   H38045688   8.268   4.717   5.554 -3.1373  0.7294  1.5979
   95MOL   H38145689   8.191   4.783   5.320  1.4656  0.3686 -0.2890
   95MOL   H38245690   8.261   4.152   5.605  1.7567  1.0235  0.9518
   95MOL   H38345691   8.106   3.984   5.662 -0.6512 -0.7858  2.2904
   95MOL   H38445692   7.884   4.248   5.911 -0.3940  0.1971 -0.5152
   95MOL   H38545693   8.030   4.435   5.855  0.3743 -0.4118  0.6211
   95MOL   C38645694   7.709   3.912   5.912 -0.0943 -0.4930 -0.6279
   95MOL   C38745695   7.574   3.912   5.920 -0.6684  0.0159 -0.0777
   95MOL   C38845696   7.498   3.994   5.837 -0.2860  0.4755 -0.2802
   95MOL   C38945697   7.562   4.073   5.738  0.0950  0.3385  0.5294
   95MOL   C39045698   7.701   4.081   5.740  0.7873 -0.2752  0.0109
   95MOL   C39145699   7.781   3.998   5.827  0.7568 -0.0114 -0.4050
   95MOL   S39245700   7.322   3.996   5.852  0.2040  0.6129  0.3635
   95MOL   O39345701   7.292   4.134   5.899 -0.0419  0.0528 -0.0479
   95MOL   O39445702   7.284   3.875   5.925 -0.2266 -1.0729 -0.5296
   95MOL   C39545703   7.261   3.988   5.684  0.0707  0.1673 -0.0075
   95MOL   C39645704   7.155   4.074   5.649 -0.0648 -0.4679 -0.2992
   95MOL   C39745705   7.129   4.092   5.517 -0.4335 -0.4628  0.1282
   95MOL   C39845706   7.212   4.034   5.416  0.0661  0.5893  0.6925
   95MOL   C39945707   7.316   3.946   5.456 -0.3672  0.6413 -0.3639
   95MOL   C40045708   7.340   3.920   5.592  0.3387  0.9346 -0.0090
   95MOL   O40145709   7.184   4.047   5.284  0.0646 -0.1914  0.2666
   95MOL   H40245710   7.773   3.850   5.973  0.3412  0.2718 -0.3064
   95MOL   H40345711   7.519   3.846   5.986 -0.1171  1.7410  2.1634
   95MOL   H40445712   7.503   4.144   5.682  1.6826  1.7641  0.6087
   95MOL   H40545713   7.746   4.148   5.668 -1.6790 -0.9086 -2.1976
   95MOL   H40645714   7.104   4.126   5.728 -0.2886  1.4157 -1.6544
   95MOL   H40745715   7.058   4.162   5.478  1.2250  1.4881  0.5181
   95MOL   H40845716   7.372   3.892   5.381  2.1989 -0.8675  2.5332
   95MOL   H40945717   7.428   3.860   5.611 -0.8708 -0.3849  1.5519
   95MOL   C41045718   7.075   4.197   5.142  0.3601  0.2559  0.0311
   95MOL   C41145719   7.065   4.317   5.078 -0.2099 -0.3818 -0.0011
   95MOL   C41245720   7.160   4.420   5.103 -0.4353  0.1080  0.1476
   95MOL   C41345721   7.268   4.393   5.189 -0.0161  0.1574 -0.3455
   95MOL   C41445722   7.274   4.271   5.260  0.1145 -0.2567 -0.2128
   95MOL   C41545723   7.181   4.167   5.232  0.3790  0.0536  0.4060
   95MOL   S41645724   7.156   4.579   5.015 -0.0976 -0.1617 -0.0242
   95MOL   O41745725   7.019   4.615   4.971 -0.5073  0.4348 -0.6649
   95MOL   O41845726   7.261   4.568   4.921  0.0017  0.7627  0.1572
   95MOL   C41945727   7.199   4.706   5.142  0.2176 -0.3518 -0.3366
   95MOL   C42045728   7.280   4.813   5.110 -0.1775 -1.0865 -0.0744
   95MOL   C42145729   7.313   4.913   5.203  0.6179 -0.5346  0.6186
   95MOL   C42245730   7.258   4.911   5.329 -0.5919 -0.1009  0.2666
   95MOL   C42345731   7.172   4.808   5.365  0.0235 -1.3208 -0.2219
   95MOL   C42445732   7.145   4.705   5.271 -0.9149  0.0025  0.1755
   95MOL   O42545733   7.295   5.007   5.413  1.1313  0.4170 -0.3772
   95MOL   H42645734   6.993   4.128   5.128 -0.9374  1.7961 -0.0186
   95MOL   H42745735   6.997   4.334   4.996 -1.5900  0.1219  1.2098
   95MOL   H42845736   7.349   4.463   5.202 -2.7746  3.3541  0.3340
   95MOL   H42945737   7.360   4.258   5.323 -0.0405  1.5229  0.3843
   95MOL   H43045738   7.330   4.823   5.015 -0.1696  3.6520  0.2911
   95MOL   H43145739   7.377   4.994   5.172  0.0147 -0.4285 -0.3742
   95MOL   H43245740   7.126   4.803   5.463  1.2248 -0.5209  0.4002
   95MOL   H43345741   7.078   4.629   5.308 -1.9703  0.8764  0.0811
   95MOL   C43445742   7.095   5.107   5.479 -0.0831 -0.4234  0.2384
   95MOL   C43545743   7.019   5.168   5.581 -0.0702  0.0386 -0.1882
   95MOL   C43645744   7.070   5.159   5.720 -0.6828  0.2948 -0.2821
   95MOL   C43745745   7.193   5.099   5.749  0.0046 -0.9487 -0.4926
   95MOL   C43845746   7.267   5.039   5.645  0.4820  0.2142 -0.3427
   95MOL   C43945747   7.218   5.048   5.515  0.5480 -0.4711  0.2905
   95MOL   S44045748   6.978   5.239   5.856 -0.2338 -0.0287  0.1650
   95MOL   O44145749   7.062   5.224   5.979 -0.0806  0.2359  0.2663
   95MOL   O44245750   6.835   5.204   5.851 -0.1893 -0.0624 -0.5559
   95MOL   C44345751   6.994   5.408   5.815 -0.2938 -0.2637 -0.0509
   95MOL   C44445752   7.116   5.451   5.754 -0.4100 -0.4846 -0.9371
   95MOL   C44545753   7.142   5.588   5.738 -0.5811  0.3305 -0.0383
   95MOL   C44645754   7.029   5.672   5.725 -0.1649 -0.0109 -0.0076
   95MOL   C44745755   6.908   5.633   5.781 -0.0398 -0.2288  0.4262
   95MOL   C44845756   6.888   5.502   5.833 -0.1439  0.6448  0.1097
   95MOL   O44945757   7.043   5.795   5.670  0.2933  0.0621  0.3272
   95MOL   H45045758   7.064   5.107   5.376 -0.9093 -1.2691  0.4886
   95MOL   H45145759   6.927   5.220   5.558 -0.9695 -2.2686 -2.0559
   95MOL   H45245760   7.241   5.090   5.846 -1.4846  1.4484  0.5258
   95MOL   H45345761   7.365   4.995   5.653  0.1776 -0.5209 -0.6141
   95MOL   H45445762   7.196   5.378   5.754 -1.4409 -1.7113  2.7637
   95MOL   H45545763   7.238   5.630   5.710 -0.0489  1.1444  2.8260
   95MOL   H45645764   6.832   5.709   5.791 -0.6429 -1.0424  2.3620
   95MOL   H45745765   6.799   5.473   5.888 -0.1040  1.9145  0.8718
   95MOL   C45845766   6.904   5.873   5.495  0.4065  0.0433 -0.4950
   95MOL   C45945767   6.878   5.894   5.356 -0.2540  0.1091  0.3050
   95MOL   C46045768   6.975   5.861   5.265 -0.1175  0.1104  0.0871
   95MOL   C46145769   7.107   5.827   5.303  0.0358 -0.1436 -0.4021
   95MOL   C46245770   7.126   5.790   5.441  0.5178  0.1404  0.4747
   95MOL   C46345771   7.024   5.815   5.536  0.0593  0.3495  0.5144
   95MOL   S46445772   6.937   5.880   5.089 -0.1587  0.0743  0.5536
   95MOL   O46545773   6.789   5.879   5.066 -0.5133  0.3417  0.0839
   95MOL   O46645774   7.017   5.785   5.011  0.3052 -0.4881  0.3651
   95MOL   C46745775   6.999   6.045   5.035 -0.1759 -0.0413  0.1322
   95MOL   C46845776   7.028   6.072   4.899 -0.0656 -0.3242  0.1663
   95MOL   C46945777   7.080   6.199   4.867  0.1820 -0.2938  0.6408
   95MOL   C47045778   7.103   6.294   4.964  0.9733 -0.7394  0.4275
   95MOL   C47145779   7.076   6.261   5.101 -0.3704 -0.5341  0.6680
   95MOL   C47245780   7.025   6.137   5.136 -0.9255 -0.6507 -0.1126
   95MOL   O47345781   7.150   6.417   4.931  0.3837  0.0306 -0.2440
   95MOL   H47445782   6.836   5.912   5.570  0.6471 -0.7916  0.1590
   95MOL   H47545783   6.782   5.926   5.318 -0.3144  0.7135  0.9747
   95MOL   H47645784   7.189   5.814   5.234 -1.1090 -2.2043 -1.4078
   95MOL   H47745785   7.222   5.755   5.475 -0.5388 -0.4432  2.9732
   95MOL   H47845786   6.999   5.992   4.833 -1.6671 -0.0268  0.4768
   95MOL   H47945787   7.103   6.224   4.764  2.6000  0.1798  1.2725
   95MOL   H48045788   7.072   6.340   5.174  1.5123  0.9676 -0.8171
   95MOL   H48145789   6.997   6.123   5.239 -0.2829 -0.7382  0.0539
   95MOL   H48245790   7.120   6.482   4.993  1.1019 -1.8402  2.1580
   96MOL     C145791   0.663   6.433   0.461 -0.0968 -0.9826  0.2079
   96MOL     C245792   0.615   6.561   0.431  0.5821 -0.2882 -0.7826
   96MOL     C345793   0.508   6.614   0.504 -0.3944  0.5726 -0.0726
   96MOL     C445794   0.450   6.544   0.617 -0.4421 -0.1214  0.2634
   96MOL     C545795   0.499   6.412   0.643  0.3210 -0.4609 -0.8031
   96MOL     C645796   0.604   6.358   0.566  0.0965  0.2006  0.0322
   96MOL     S745797   0.459   6.786   0.475 -0.1530  0.0175  0.0612
   96MOL     O845798   0.453   6.814   0.334  0.0127 -0.2337  0.5186
   96MOL     O945799   0.532   6.873   0.566 -0.2705 -0.2571  0.1473
   96MOL    C1045800   0.281   6.789   0.519 -0.4977 -0.8840  0.0196
   96MOL    C1145801   0.186   6.704   0.456  0.2036 -0.0823  0.5686
   96MOL    C1245802   0.049   6.713   0.494  0.0896 -0.6489  0.2925
   96MOL    C1345803   0.008   6.803   0.597  0.0027  0.4817 -0.0986
   96MOL    C1445804   0.098   6.889   0.659 -0.4757 -0.5095  0.2393
   96MOL    C1545805   0.238   6.877   0.626  0.7607  0.0941 -0.2694
   96MOL    O1645806   8.306   6.818   0.638  0.8533 -0.0887 -0.0437
   96MOL    H1745807   0.744   6.400   0.398  1.6474  1.3787  1.1213
   96MOL    H1845808   0.667   6.626   0.362 -1.5555  2.0911 -0.2333
   96MOL    H1945809   0.372   6.588   0.677 -0.2903  2.5617 -1.4415
   96MOL    H2045810   0.451   6.358   0.723 -2.7919  0.0524 -2.2347
   96MOL    H2145811   0.214   6.635   0.378  3.4508  0.4833  1.1611
   96MOL    H2245812   8.402   6.666   0.429 -0.9440 -0.5900  1.3908
   96MOL    H2345813   0.064   6.960   0.733 -1.5971 -0.5545 -0.2130
   96MOL    H2445814   0.311   6.943   0.671 -1.0254  0.7785  1.7238
   96MOL    H2545815   0.641   6.261   0.595  1.8310  0.2486 -1.9659
   96MOL    C2645816   8.138   6.655   0.575 -0.0199  0.5959  0.1227
   96MOL    C2745817   8.028   6.617   0.495 -0.3496  0.2551 -0.7317
   96MOL    C2845818   7.980   6.700   0.392 -0.5770  0.9472 -0.5793
   96MOL    C2945819   8.046   6.824   0.377 -0.0410 -1.0229  0.1465
   96MOL    C3045820   8.167   6.853   0.446  0.8419  0.9519  0.1264
   96MOL    C3145821   8.211   6.773   0.551  0.9911  0.1482  0.6694
   96MOL    S3245822   7.830   6.661   0.297  0.2736 -0.0466  0.0778
   96MOL    O3345823   7.854   6.680   0.151  0.3225 -0.2734  0.0273
   96MOL    O3445824   7.720   6.726   0.366 -0.3079 -0.5970 -0.0411
   96MOL    C3545825   7.813   6.487   0.321 -0.1022  0.9226 -0.5730
   96MOL    C3645826   7.697   6.421   0.368  0.0050 -0.0971 -0.1331
   96MOL    C3745827   7.697   6.278   0.381  0.9878 -0.9412  0.0990
   96MOL    C3845828   7.808   6.202   0.355  0.4678 -0.2362  0.9396
   96MOL    C3945829   7.929   6.267   0.313 -0.5940 -0.6707  0.2541
   96MOL    C4045830   7.929   6.413   0.294 -0.2974  0.5186 -0.1716
   96MOL    O4145831   7.787   6.066   0.356 -0.2767 -0.2216 -0.5567
   96MOL    H4245832   8.164   6.598   0.663 -1.8958 -0.2224  0.1493
   96MOL    H4345833   7.976   6.526   0.522  0.4250 -0.5096 -1.7548
   96MOL    H4445834   8.013   6.899   0.307  1.3824 -0.6517 -0.1420
   96MOL    H4545835   8.215   6.948   0.429 -1.5773  1.9971 -1.1384
   96MOL    H4645836   7.603   6.472   0.384 -0.8669 -1.5261 -0.6865
   96MOL    H4745837   7.603   6.234   0.410  0.2092  1.0927  0.7687
   96MOL    H4845838   8.021   6.217   0.284 -0.6775  0.2502 -1.6638
   96MOL    H4945839   8.014   6.464   0.250 -0.6860  1.4580  0.1424
   96MOL    C5045840   7.951   5.890   0.325 -0.3811 -0.0954 -0.8323
   96MOL    C5145841   8.035   5.815   0.244  0.3180 -0.7071  0.6031
   96MOL    C5245842   8.030   5.836   0.104 -0.0824  0.1119 -0.3527
   96MOL    C5345843   7.949   5.940   0.055  0.5417  0.6033 -0.2534
   96MOL    C5445844   7.870   6.013   0.144  0.1356 -0.0410 -0.6538
   96MOL    C5545845   7.872   5.991   0.276  0.5015  0.2104  0.2546
   96MOL    S5645846   8.128   5.737   8.417  0.3749  0.5325 -0.0650
   96MOL    O5745847   8.047   5.616   8.375  0.0858 -0.3765 -0.1286
   96MOL    O5845848   8.259   5.718   0.061  0.1754 -0.2763  0.1116
   96MOL    C5945849   8.161   5.839   8.276  0.5127  0.1608  1.0787
   96MOL    C6045850   8.269   5.932   8.275  0.1789  0.6125 -0.5039
   96MOL    C6145851   8.289   6.024   8.172 -0.3994 -0.2854  0.0297
   96MOL    C6245852   8.198   6.031   8.070  0.1985  0.1296  0.3071
   96MOL    C6345853   8.090   5.935   8.064  0.0616 -0.1842  0.0319
   96MOL    C6445854   8.067   5.841   8.166  0.5229 -0.6222 -0.0352
   96MOL    O6545855   8.219   6.110   7.959  0.1028 -0.0244  0.2985
   96MOL    H6645856   7.934   5.877   0.431 -2.8302  2.5003 -0.8495
   96MOL    H6745857   8.086   5.729   0.286  0.2342 -0.5223  1.0826
   96MOL    H6845858   7.935   5.955   8.374 -1.4642 -2.9964 -0.5900
   96MOL    H6945859   7.806   6.091   0.106 -1.3339  0.1992  2.2015
   96MOL    H7045860   8.336   5.921   8.359 -1.7427 -0.8573  0.9054
   96MOL    H7145861   8.360   6.105   8.178  2.4683 -2.5303 -2.2221
   96MOL    H7245862   8.018   5.942   7.984 -1.3380  0.3724  1.3191
   96MOL    H7345863   7.981   5.775   8.156 -0.1305  0.4308 -1.5588
   96MOL    C7445864   8.105   6.318   8.008 -0.0951  0.7663  0.2128
   96MOL    C7545865   8.017   6.421   7.970  0.1679  0.4584 -0.5611
   96MOL    C7645866   7.949   6.413   7.849  0.0158  0.0457  0.1630
   96MOL    C7745867   7.965   6.298   7.769  0.0371  0.0464  0.6693
   96MOL    C7845868   8.055   6.194   7.804 -0.2049 -0.1271  0.4596
   96MOL    C7945869   8.122   6.203   7.928 -0.2788  0.1830  0.0170
   96MOL    S8045870   7.866   6.558   7.780 -0.0327  0.5468 -0.6177
   96MOL    O8145871   7.874   6.544   7.633 -0.2188  0.1291  0.1483
   96MOL    O8245872   7.922   6.680   7.841 -0.2921  0.3539 -0.4481
   96MOL    C8345873   7.694   6.547   7.821  0.3267  0.0609 -0.4676
   96MOL    C8445874   7.609   6.656   7.793 -0.1391 -0.0920 -0.0845
   96MOL    C8545875   7.471   6.645   7.821  1.2885 -0.4430  0.2388
   96MOL    C8645876   7.416   6.531   7.872 -0.3769  0.6468  0.6037
   96MOL    C8745877   7.500   6.425   7.901 -0.1347  0.0035 -0.0704
   96MOL    C8845878   7.638   6.429   7.878  0.7404 -0.1477 -0.2926
   96MOL    O8945879   7.278   6.518   7.882 -0.6408  0.4755 -0.1952
   96MOL    H9045880   8.159   6.321   8.101  2.9914  1.7455 -1.5331
   96MOL    H9145881   8.017   6.508   8.034 -1.7590  1.3397 -1.7122
   96MOL    H9245882   7.923   6.306   7.670 -0.9060  0.6878  1.1146
   96MOL    H9345883   8.060   6.111   7.735  0.1841  0.2179  0.0720
   96MOL    H9445884   7.644   6.744   7.740  1.7628 -2.9777 -3.8775
   96MOL    H9545885   7.401   6.721   7.790  0.9489 -1.1984 -0.8989
   96MOL    H9645886   7.457   6.334   7.939 -1.7093  0.6813 -0.2299
   96MOL    H9745887   7.703   6.348   7.907 -0.7173 -1.1912  0.1170
   96MOL    C9845888   7.236   6.560   8.116 -1.0434 -0.2227  0.1009
   96MOL    C9945889   7.169   6.522   8.233 -0.5349 -0.5348  0.2910
   96MOL   C10045890   7.090   6.400   8.227  0.0925  0.5919 -0.3376
   96MOL   C10145891   7.084   6.319   8.115 -0.2905  0.0793  0.6530
   96MOL   C10245892   7.153   6.359   8.000 -1.0435  0.2342  0.0515
   96MOL   C10345893   7.223   6.480   7.999 -0.0391 -0.3622  0.1377
   96MOL   S10445894   6.993   6.361   8.378  0.0499 -0.2667 -0.1696
   96MOL   O10545895   6.982   6.481   0.037  0.5249  0.0400  0.2060
   96MOL   O10645896   7.045   6.234   0.012 -0.0789  0.6037 -0.2759
   96MOL   C10745897   6.833   6.317   8.310  0.4336  0.7892 -0.8884
   96MOL   C10845898   6.757   6.423   8.268  0.1576  0.4758 -0.3440
   96MOL   C10945899   6.628   6.395   8.221  0.3558 -0.1161 -0.1452
   96MOL   C11045900   6.586   6.258   8.217  0.2868 -0.2778 -0.3778
   96MOL   C11145901   6.670   6.152   8.247 -0.9176 -1.1591 -0.9764
   96MOL   C11245902   6.798   6.180   8.298  0.3891 -0.4484  0.6543
   96MOL   O11345903   6.464   6.225   8.168 -0.4304  0.5697 -0.0246
   96MOL   H11445904   7.293   6.651   8.117 -3.6809  1.4959 -1.3647
   96MOL   H11545905   7.178   6.582   8.322  0.7644  1.6715 -1.2796
   96MOL   H11645906   7.028   6.227   8.110  0.3066 -0.3957  2.2994
   96MOL   H11745907   7.146   6.299   7.911  0.9001  3.8815 -2.7040
   96MOL   H11845908   6.789   6.526   8.280 -3.2251  1.2566  2.9631
   96MOL   H11945909   6.559   6.474   8.193 -0.3273  0.1443  2.1670
   96MOL   H12045910   6.631   6.051   8.246 -0.2853 -1.4109 -0.8327
   96MOL   H12145911   6.869   6.106   8.332  1.1702  0.1223  0.2820
   96MOL   C12245912   6.279   6.091   8.215  0.4268  0.3366 -0.4391
   96MOL   C12345913   6.190   6.032   8.302  0.4084 -0.0973 -0.0137
   96MOL   C12445914   6.204   6.057   0.015 -0.0717  0.2657  0.3683
   96MOL   C12545915   6.303   6.140   0.069 -0.8089  0.4068 -0.8644
   96MOL   C12645916   6.379   6.211   8.405 -0.1715 -0.6073  0.0819
   96MOL   C12745917   6.376   6.183   8.264 -0.1073 -0.1136 -0.0108
   96MOL   S12845918   6.090   5.980   0.131 -0.2746 -0.2335  0.5142
   96MOL   O12945919   6.092   5.835   0.111 -0.2453 -0.3631 -0.1723
   96MOL   O13045920   5.962   6.052   0.115  0.0511 -0.3155 -0.2810
   96MOL   C13145921   6.156   6.023   0.294  0.3211  0.1590 -0.0197
   96MOL   C13245922   6.277   5.969   0.334  0.5222  0.1931  0.1257
   96MOL   C13345923   6.343   6.006   0.452 -0.6097 -0.2825 -0.0136
   96MOL   C13445924   6.282   6.100   0.544  0.4260 -0.1034  0.4214
   96MOL   C13545925   6.146   6.148   0.514  0.3013 -0.5138 -0.1116
   96MOL   C13645926   6.088   6.109   0.393 -0.1540  0.1987 -0.4853
   96MOL   O13745927   6.347   6.143   0.653  0.7950 -0.2895 -0.1781
   96MOL   H13845928   6.277   6.060   8.112  1.5991 -1.0262 -0.0560
   96MOL   H13945929   6.116   5.962   8.267 -0.3178  0.5353  0.2323
   96MOL   H14045930   6.322   6.162   0.173  1.5316  3.1751 -1.8159
   96MOL   H14145931   6.460   6.272   0.018  3.3955 -4.7996 -0.4005
   96MOL   H14245932   6.310   5.892   0.266 -1.2024  0.9859 -1.6673
   96MOL   H14345933   6.434   5.951   0.470  0.7011  1.7506 -0.3358
   96MOL   H14445934   6.099   6.213   0.586 -2.3900 -1.7514 -0.7080
   96MOL   H14545935   5.989   6.149   0.378 -1.1521 -2.7496 -2.2476
   96MOL   C14645936   6.338   5.974   0.818 -0.0208  0.9491  0.5508
   96MOL   C14745937   6.303   5.936   0.951 -0.2421 -0.7611  0.2672
   96MOL   C14845938   6.258   6.034   1.042  0.2126 -0.7108 -0.3864
   96MOL   C14945939   6.240   6.166   1.005 -0.3171 -0.0663  0.1422
   96MOL   C15045940   6.268   6.202   0.870  0.4402  0.7555 -0.1609
   96MOL   C15145941   6.313   6.105   0.778 -0.3161 -0.1799  0.1698
   96MOL   S15245942   6.250   5.980   1.215 -0.0360 -0.1200 -0.0256
   96MOL   O15345943   6.304   6.093   1.289 -0.4414 -0.8303  0.3865
   96MOL   O15445944   6.321   5.848   1.227 -0.5672  0.3773 -0.2699
   96MOL   C15545945   6.075   5.965   1.243  0.1825  0.4338 -0.3742
   96MOL   C15645946   6.011   5.843   1.211  0.2603  0.0526 -0.3647
   96MOL   C15745947   5.870   5.835   1.231 -0.2422 -0.1977 -0.3836
   96MOL   C15845948   5.806   5.938   1.313 -0.0018 -0.0236 -0.6055
   96MOL   C15945949   5.875   6.059   1.349 -0.1836 -0.1809  0.4371
   96MOL   C16045950   6.008   6.071   1.313 -0.7773  0.1821  0.0311
   96MOL   O16145951   5.675   5.916   1.346  0.1177 -0.0014 -0.0202
   96MOL   H16245952   6.379   5.905   0.746 -0.2211  1.0150  0.3758
   96MOL   H16345953   6.324   5.831   0.969  0.2915 -0.9251 -1.2337
   96MOL   H16445954   6.224   6.247   1.074 -0.6926 -1.0819  1.2821
   96MOL   H16545955   6.274   6.307   0.843  0.3544  0.8898  0.3374
   96MOL   H16645956   6.060   5.758   1.166  0.0817 -0.5650  0.5785
   96MOL   H16745957   5.810   5.750   1.202 -0.3346 -0.7357  1.2771
   96MOL   H16845958   5.828   6.130   1.415  0.3734 -1.1154  1.8704
   96MOL   H16945959   6.061   6.159   1.346 -1.4437  0.2748  0.8634
   96MOL   C17045960   5.555   6.111   1.303  0.3882 -0.6949 -0.6904
   96MOL   C17145961   5.462   6.183   1.218 -0.4707 -0.5369  0.0809
   96MOL   C17245962   5.405   6.122   1.106  0.1923  0.0698 -0.0725
   96MOL   C17345963   5.426   5.986   1.087  1.1660  0.2419  0.1088
   96MOL   C17445964   5.515   5.912   1.161  0.6382  0.0413 -0.0017
   96MOL   C17545965   5.580   5.979   1.267 -0.2099 -0.0435  0.5498
   96MOL   S17645966   5.289   6.209   0.989  0.2256 -0.0446  0.1177
   96MOL   O17745967   5.330   6.351   0.983 -0.2214  0.1293 -0.2840
   96MOL   O17845968   5.158   6.166   1.035 -0.2019  0.3078  0.1106
   96MOL   C17945969   5.327   6.134   0.827 -0.0366 -0.9823  0.1746
   96MOL   C18045970   5.465   6.107   0.794  0.3140  0.2572  0.0997
   96MOL   C18145971   5.497   6.031   0.681 -0.0759  0.5594 -0.3983
   96MOL   C18245972   5.397   5.987   0.597 -0.2801  0.1920 -0.3619
   96MOL   C18345973   5.265   6.014   0.618  0.1320 -0.1747 -0.1506
   96MOL   C18445974   5.228   6.086   0.733 -0.0757 -0.4357 -0.3664
   96MOL   O18545975   5.435   5.912   0.496 -0.1686 -0.0392  0.7936
   96MOL   H18645976   5.594   6.153   1.395 -1.8317  0.7187 -0.3465
   96MOL   H18745977   5.439   6.284   1.249  1.9015  0.5157 -1.4019
   96MOL   H18845978   5.368   5.925   1.020 -0.0067  1.5566 -0.0993
   96MOL   H18945979   5.534   5.814   1.120  1.4648  1.4254 -3.1343
   96MOL   H19045980   5.541   6.127   0.868 -0.1137 -0.5527  0.7665
   96MOL   H19145981   5.600   6.002   0.672  0.0982  0.7128  0.9800
   96MOL   H19245982   5.183   5.984   0.555  0.7045 -0.4319 -0.7764
   96MOL   H19345983   5.126   6.109   0.760 -0.3478  1.3598 -2.8048
   96MOL   C19445984   5.329   5.898   0.286 -0.5616 -0.4115 -0.1586
   96MOL   C19545985   5.329   5.937   0.147 -0.2441 -0.3312  0.9146
   96MOL   C19645986   5.403   6.055   0.108  0.8478  1.0817  0.0091
   96MOL   C19745987   5.468   6.131   0.206 -0.7516 -0.3068 -0.1774
   96MOL   C19845988   5.481   6.083   0.339 -0.0896  0.3588  0.0138
   96MOL   C19945989   5.417   5.967   0.372  1.0467  0.4532 -0.4150
   96MOL   S20045990   5.412   6.111   8.363 -0.2257  0.1367  0.1762
   96MOL   O20145991   5.292   6.187   8.332  0.3898 -0.1442  0.1435
   96MOL   O20245992   5.449   5.994   8.285 -0.2313 -0.4713  0.6379
   96MOL   C20345993   5.551   6.220   8.349  0.0322 -0.5155  0.0932
   96MOL   C20445994   5.540   6.357   8.388  0.1019 -0.7475  0.3516
   96MOL   C20545995   5.654   6.437   8.399  0.1087  0.4182  0.8977
   96MOL   C20645996   5.784   6.380   8.386  0.5593  0.7146  0.2406
   96MOL   C20745997   5.800   6.247   8.346 -0.5515  0.0560 -0.0815
   96MOL   C20845998   5.683   6.174   8.324 -0.1369  0.3742 -0.0806
   96MOL   O20945999   5.890   6.467   8.403  0.3237  0.4207 -0.2282
   96MOL   H21046000   5.269   5.812   0.311 -2.0695  0.3285 -1.1244
   96MOL   H21146001   5.275   5.875   0.077  1.0744  0.1130 -0.5045
   96MOL   H21246002   5.518   6.224   0.181 -2.9832  1.4182  1.6065
   96MOL   H21346003   5.531   6.155   0.402 -1.1921  2.2525 -1.2287
   96MOL   H21446004   5.445   6.405   8.405  1.9314  2.9506  0.6227
   96MOL   H21546005   5.654   6.543   8.417  1.9430  0.4909  0.5597
   96MOL   H21646006   5.896   6.202   8.326 -1.0002  0.0112 -2.3105
   96MOL   H21746007   5.693   6.069   8.301  0.4056  0.5170 -0.4846
   96MOL   C21846008   6.032   6.392   0.165 -0.1294 -0.4107 -0.3993
   96MOL   C21946009   6.094   6.426   0.289 -0.2590 -0.7352 -0.1470
   96MOL   C22046010   6.057   6.546   0.356 -0.0014 -0.6749  0.0359
   96MOL   C22146011   5.977   6.638   0.293  0.2805  0.2348 -0.2687
   96MOL   C22246012   5.914   6.606   0.176 -0.1171  0.6886 -0.1681
   96MOL   C22346013   5.942   6.485   0.109  0.2323 -0.9112 -0.3357
   96MOL   S22446014   6.137   6.580   0.515  0.2440  0.3425  0.1460
   96MOL   O22546015   6.187   6.462   0.586  0.0605 -0.0674  0.0534
   96MOL   O22646016   6.044   6.671   0.581  0.7097 -0.3345 -0.5000
   96MOL   C22746017   6.281   6.676   0.469 -0.5472  0.3163 -0.3407
   96MOL   C22846018   6.317   6.787   0.544 -0.0983 -1.0866 -0.2073
   96MOL   C22946019   6.427   6.865   0.508 -0.0332 -0.4038  0.6493
   96MOL   C23046020   6.509   6.831   0.397 -0.9896  0.2057  0.1311
   96MOL   C23146021   6.475   6.717   0.317  0.1942 -0.1590  0.0516
   96MOL   C23246022   6.366   6.635   0.363 -0.1839 -0.2307  0.1441
   96MOL   O23346023   6.611   6.917   0.355 -0.3250  0.0886 -0.0533
   96MOL   H23446024   6.060   6.301   0.113  0.5646 -0.3609 -0.1285
   96MOL   H23546025   6.172   6.364   0.331  0.5522 -0.1690 -0.8242
   96MOL   H23646026   5.961   6.733   0.341  1.6298  0.2016  0.2821
   96MOL   H23746027   5.853   6.684   0.134 -1.3684  0.3096  0.9372
   96MOL   H23846028   6.263   6.820   0.632 -1.7518  0.7348 -1.8665
   96MOL   H23946029   6.449   6.951   0.569  1.2398 -0.8404  0.8237
   96MOL   H24046030   6.528   6.701   0.224 -2.1538  1.8546 -1.7134
   96MOL   H24146031   6.348   6.544   0.308  3.5946 -0.2505 -1.2659
   96MOL   C24246032   6.583   6.989   0.129 -0.7392 -0.0492  0.2948
   96MOL   C24346033   6.554   7.097   0.039  0.6934  0.2787 -0.2409
   96MOL   C24446034   6.510   7.221   0.085 -0.4979 -0.2923  0.2674
   96MOL   C24546035   6.498   7.245   0.224 -0.1588  0.1219  0.1149
   96MOL   C24646036   6.544   7.145   0.315  0.7057  0.8478 -0.0777
   96MOL   C24746037   6.583   7.017   0.265 -0.2116 -0.5834 -0.6467
   96MOL   S24846038   6.440   7.345   8.388  0.1731 -0.2528 -0.1604
   96MOL   O24946039   6.292   7.341   8.384 -0.0891  1.0449  0.3964
   96MOL   O25046040   6.512   7.322   8.264 -0.8078  0.0282  0.4346
   96MOL   C25146041   6.491   7.506   0.029 -0.0939 -0.5405  0.1030
   96MOL   C25246042   6.628   7.560   0.009 -0.3561  0.4530 -0.5035
   96MOL   C25346043   6.666   7.683   0.070  0.3415  0.1643  0.2347
   96MOL   C25446044   6.585   7.741   0.167  0.1917 -0.5956 -0.8343
   96MOL   C25546045   6.454   7.684   0.193 -0.4513 -0.6824 -0.0120
   96MOL   C25646046   6.405   7.571   0.125 -0.0511 -0.5677  0.0132
   96MOL   O25746047   6.625   7.861   0.230 -0.3517 -0.4475 -0.1455
   96MOL   H25846048   6.608   6.891   0.094  1.4835 -0.7744  3.6130
   96MOL   H25946049   6.545   7.070   8.360  1.0096 -1.3939  0.1500
   96MOL   H26046050   6.468   7.341   0.263 -0.2865  0.5784 -1.0851
   96MOL   H26146051   6.546   7.152   0.423  0.0412  1.1706 -0.0888
   96MOL   H26246052   6.692   7.506   8.366 -1.7178 -1.1587 -0.5470
   96MOL   H26346053   6.765   7.719   0.050  1.2773 -2.2071  0.4745
   96MOL   H26446054   6.384   7.733   0.259 -1.1276  0.3653 -1.4829
   96MOL   H26546055   6.306   7.533   0.144 -0.2626 -0.2917 -0.5368
   96MOL   C26646056   6.681   7.993   0.031  0.3587  0.3488  0.1134
   96MOL   C26746057   6.782   8.049   8.382 -0.3299 -0.0611 -0.0286
   96MOL   C26846058   6.912   8.067   0.007  0.0886 -0.2748 -0.0595
   96MOL   C26946059   6.941   8.036   0.147  0.7554 -0.4938 -0.0984
   96MOL   C27046060   6.840   7.973   0.219 -0.2400 -0.4372 -1.4679
   96MOL   C27146061   6.712   7.944   0.164  0.4230  0.8376  0.8198
   96MOL   S27246062   7.049   8.136   8.331 -0.4305 -0.2228  0.3212
   96MOL   O27346063   7.101   8.032   8.240  0.4555  0.2711  0.8795
   96MOL   O27446064   7.146   8.206   8.422  0.0732  0.2956  0.3258
   96MOL   C27546065   6.980   8.270   8.233  0.7283  0.0486 -0.2611
   96MOL   C27646066   6.933   8.246   8.098  0.5261  0.7933 -0.9512
   96MOL   C27746067   6.858   8.337   8.035  0.1907 -0.3250 -0.1546
   96MOL   C27846068   6.824   0.035   8.100  0.1972  0.3890  0.1614
   96MOL   C27946069   6.879   0.066   8.232 -0.0244  0.2489 -0.2423
   96MOL   C28046070   6.955   8.392   8.293  0.3814  0.2031  0.3473
   96MOL   O28146071   6.748   0.134   8.035 -0.5661  0.6347  0.3146
   96MOL   H28246072   6.585   7.975   8.409  0.3562  0.6437  0.0043
   96MOL   H28346073   6.754   8.060   8.278  0.4301 -0.8900 -0.3240
   96MOL   H28446074   7.041   8.047   0.185 -0.5686 -0.3747  3.5509
   96MOL   H28546075   6.859   7.952   0.324 -1.9224  2.3811 -0.5479
   96MOL   H28646076   6.946   8.152   8.046 -1.1812  0.1726 -0.2748
   96MOL   H28746077   6.822   8.332   7.933 -0.9141  0.6449  0.1769
   96MOL   H28846078   6.850   0.163   8.269  3.5654  1.7697 -1.1308
   96MOL   H28946079   7.001   8.415   8.388  3.1296  1.3282 -1.2027
   96MOL   C29046080   6.944   0.269   7.979  0.1834  0.7117  0.4057
   96MOL   C29146081   7.001   0.387   7.939 -0.1361  0.2078  0.1957
   96MOL   C29246082   6.922   0.497   7.912  0.6616  0.0668  0.4689
   96MOL   C29346083   6.781   0.489   7.920  0.0497 -0.4626 -1.0118
   96MOL   C29446084   6.723   0.371   7.974  0.0158 -0.1631  0.4627
   96MOL   C29546085   6.807   0.259   8.007  0.4764 -0.6625  0.9789
   96MOL   S29646086   6.999   0.641   7.855 -0.5424 -0.0443 -0.1523
   96MOL   O29746087   7.031   0.728   7.975  0.0322 -0.0682  0.3202
   96MOL   O29846088   6.917   0.694   7.743  0.1499  0.7588  1.0773
   96MOL   C29946089   7.158   0.582   7.792 -0.2748 -0.0810 -0.5555
   96MOL   C30046090   7.157   0.531   7.661 -0.5703  0.5943  0.3653
   96MOL   C30146091   7.271   0.488   7.604 -0.2877 -1.1007 -0.0173
   96MOL   C30246092   7.390   0.498   7.681  0.3979 -0.0259  0.6831
   96MOL   C30346093   7.389   0.538   7.815 -0.4283 -0.1367 -1.0550
   96MOL   C30446094   7.272   0.584   7.871 -0.1978  0.1726  0.2428
   96MOL   O30546095   7.518   0.477   7.620 -0.3703 -0.3106 -0.1130
   96MOL   H30646096   7.002   0.178   7.987 -0.0794  0.7707  3.9867
   96MOL   H30746097   7.108   0.385   7.922 -0.3333  2.3897 -1.5159
   96MOL   H30846098   6.719   0.573   7.891  1.0510  0.3396 -0.8408
   96MOL   H30946099   6.616   0.366   7.979  0.0106 -1.2287 -0.3489
   96MOL   H31046100   7.067   0.529   7.601 -2.3592  0.1967  2.9206
   96MOL   H31146101   7.273   0.456   7.501  1.4272 -2.3213  0.3619
   96MOL   H31246102   7.470   0.523   7.885 -1.0867 -0.0332 -0.2640
   96MOL   H31346103   7.270   0.613   7.975  3.3258 -1.3387  0.8002
   96MOL   C31446104   7.711   0.603   7.694  0.1199 -0.2063 -0.3055
   96MOL   C31546105   7.791   0.718   7.705 -0.0237 -0.2342  0.1604
   96MOL   C31646106   7.748   0.830   7.623 -0.5844  0.2562 -0.3442
   96MOL   C31746107   7.636   0.819   7.540 -0.1123  0.9004 -0.3240
   96MOL   C31846108   7.564   0.696   7.534 -0.7125  0.2340  0.1639
   96MOL   C31946109   7.602   0.587   7.612 -0.8888 -0.3804 -0.6505
   96MOL   S32046110   7.825   0.989   7.663 -0.0262  0.1899 -0.0975
   96MOL   O32146111   7.938   1.010   7.570  0.0220 -0.2292 -0.4990
   96MOL   O32246112   7.843   1.004   7.811 -0.3199 -0.0762  0.3821
   96MOL   C32346113   7.695   1.107   7.615  0.1452 -0.6950 -0.3287
   96MOL   C32446114   7.699   1.171   7.493 -0.0694 -0.0734  0.0748
   96MOL   C32546115   7.609   1.273   7.464  1.0477  0.1278  0.8373
   96MOL   C32646116   7.509   1.303   7.560  0.2698  0.5204  0.2721
   96MOL   C32746117   7.496   1.227   7.677 -0.4310  0.3673  0.0334
   96MOL   C32846118   7.596   1.136   7.708 -0.2669  0.4090 -0.3453
   96MOL   O32946119   7.429   1.416   7.551 -0.1336 -0.2188  0.5843
   96MOL   H33046120   7.725   0.519   7.760 -0.3878 -1.3320 -1.6165
   96MOL   H33146121   7.868   0.727   7.779  0.3447 -0.0532 -0.2419
   96MOL   H33246122   7.604   0.906   7.485 -1.8226  1.6014  1.6986
   96MOL   H33346123   7.473   0.695   7.475  1.6234  0.3533 -3.5498
   96MOL   H33446124   7.791   1.145   7.442 -0.2062  0.7405 -0.5848
   96MOL   H33546125   7.618   1.332   7.374 -0.6592  0.5577  0.9252
   96MOL   H33646126   7.416   1.238   7.749  0.6675 -1.4691  1.5717
   96MOL   H33746127   7.601   1.094   7.808 -0.9556  0.7598 -0.1548
   96MOL   C33846128   7.458   1.561   7.361 -0.0391 -0.3241  0.4022
   96MOL   C33946129   7.425   1.615   7.238  0.0941 -0.2693 -0.2337
   96MOL   C34046130   7.318   1.554   7.170  0.0361  0.1606 -0.2459
   96MOL   C34146131   7.253   1.440   7.229  0.7810  0.7972  0.3186
   96MOL   C34246132   7.285   1.397   7.360  0.4734  0.6628 -0.1318
   96MOL   C34346133   7.388   1.460   7.427  0.7907  0.7250  0.6327
   96MOL   S34446134   7.275   1.613   7.014  0.2303 -0.0686 -0.3002
   96MOL   O34546135   7.239   1.755   7.030  0.2223 -0.1322 -0.2331
   96MOL   O34646136   7.186   1.515   6.950  0.2354  0.1219 -0.1807
   96MOL   C34746137   7.431   1.611   6.912  0.0431 -0.0811 -0.2636
   96MOL   C34846138   7.456   1.499   6.831 -0.2024  0.8946  0.5855
   96MOL   C34946139   7.572   1.494   6.759  0.2952  0.1562  0.4193
   96MOL   C35046140   7.672   1.600   6.763 -0.2253  0.6643  0.5476
   96MOL   C35146141   7.644   1.714   6.843 -0.4551  0.2436  0.1513
   96MOL   C35246142   7.525   1.717   6.923 -0.4882 -0.2329 -0.5699
   96MOL   O35346143   7.779   1.600   6.679 -0.0421 -0.4051  0.3397
   96MOL   H35446144   7.540   1.598   7.421 -0.7033  1.2221  0.3755
   96MOL   H35546145   7.480   1.699   7.199 -0.4402  0.6866  1.0405
   96MOL   H35646146   7.186   1.384   7.166  1.1053  0.1381  0.5564
   96MOL   H35746147   7.223   1.317   7.397 -1.0001  1.0593 -1.6931
   96MOL   H35846148   7.384   1.420   6.816  1.5357 -0.4740 -0.8411
   96MOL   H35946149   7.588   1.407   6.698 -1.8598 -0.3140  0.4797
   96MOL   H36046150   7.707   1.801   6.835  0.2478 -0.0618  2.1042
   96MOL   H36146151   7.506   1.797   6.993 -0.6496 -0.2973 -0.5395
   96MOL   C36246152   7.944   1.567   6.858 -0.1649 -0.4831 -0.3378
   96MOL   C36346153   8.071   1.514   6.891 -0.2982  0.2024 -0.0898
   96MOL   C36446154   8.151   1.454   6.789 -0.4811 -0.3025  0.0548
   96MOL   C36546155   8.102   1.424   6.661  0.4348 -1.2689  0.1869
   96MOL   C36646156   7.972   1.468   6.630  0.5336  0.0801 -0.3759
   96MOL   C36746157   7.895   1.547   6.723 -0.4296  0.1194  0.5314
   96MOL   S36846158   8.320   1.400   6.827  0.1770  0.0077  0.0435
   96MOL   O36946159   8.363   1.432   6.964  0.1847 -0.2685  0.9110
   96MOL   O37046160   8.396   1.451   6.713  0.1813 -0.0762 -0.4339
   96MOL   C37146161   8.312   1.222   6.808  0.1698  0.2530  0.3611
   96MOL   C37246162   8.284   1.148   6.926 -0.0573  0.9053  0.0127
   96MOL   C37346163   8.291   1.006   6.917 -0.2926  0.6690  0.3061
   96MOL   C37446164   8.325   0.939   6.798  0.5313 -0.2770  0.7758
   96MOL   C37546165   8.337   1.018   6.683  0.0047  0.2005 -0.0571
   96MOL   C37646166   8.326   1.156   6.689  0.4648  0.3116  0.2207
   96MOL   O37746167   8.361   0.804   6.782 -0.2877 -0.6859  0.4768
   96MOL   H37846168   7.879   1.625   6.922  0.6731  1.7840 -1.4850
   96MOL   H37946169   8.109   1.535   6.990 -1.3847  2.7445 -0.1558
   96MOL   H38046170   8.162   1.383   6.581 -2.2454 -4.3436 -0.3878
   96MOL   H38146171   7.932   1.445   6.532  1.9079 -2.2558 -0.3966
   96MOL   H38246172   8.280   1.198   7.021 -1.9134 -0.6193  0.7667
   96MOL   H38346173   8.294   0.956   7.012  1.2517  0.6607  0.2728
   96MOL   H38446174   8.383   0.968   6.599 -0.2273 -0.9067  0.4758
   96MOL   H38546175   8.350   1.214   6.601  0.5592 -1.2943 -0.8459
   96MOL   C38646176   8.219   0.682   6.939  0.9140  0.8902  0.3518
   96MOL   C38746177   8.208   0.593   7.048 -0.1542 -0.9650  0.5424
   96MOL   C38846178   8.323   0.528   7.089 -0.3093 -0.5651  0.0314
   96MOL   C38946179   0.026   0.545   7.031  0.8747  0.0156 -0.0103
   96MOL   C39046180   0.037   0.641   6.926 -0.1751 -0.1618  0.3674
   96MOL   C39146181   8.348   0.716   6.884 -0.4329  0.1829  0.3959
   96MOL   S39246182   8.317   0.412   7.230  0.2967  0.1740  0.1621
   96MOL   O39346183   0.017   0.331   7.238 -0.2137  0.1718 -0.2411
   96MOL   O39446184   8.190   0.342   7.212 -0.5476 -0.2611  0.1195
   96MOL   C39546185   8.307   0.522   7.369 -0.4450  0.6106 -0.5314
   96MOL   C39646186   8.183   0.548   7.429  1.3188 -1.0511 -0.2348
   96MOL   C39746187   8.179   0.630   7.543  0.1761 -0.6900 -0.3488
   96MOL   C39846188   8.295   0.697   7.587  0.0114 -0.2456  0.2118
   96MOL   C39946189   8.420   0.674   7.522  0.1837  0.0708 -0.5281
   96MOL   C40046190   0.001   0.578   7.420 -0.4978 -0.5762  0.0937
   96MOL   O40146191   8.283   0.792   7.685 -0.7947 -0.2732 -0.8095
   96MOL   H40246192   8.137   0.745   6.907 -0.8216 -0.9647  1.0915
   96MOL   H40346193   8.121   0.574   7.109 -1.2157 -0.6089 -0.8390
   96MOL   H40446194   0.111   0.493   7.072  1.0830  0.8292  0.6030
   96MOL   H40546195   0.129   0.666   6.877  0.1418 -0.4323  0.8218
   96MOL   H40646196   8.097   0.491   7.396  1.9952 -0.6401 -2.7736
   96MOL   H40746197   8.083   0.655   7.587 -0.4607  0.2878 -2.2288
   96MOL   H40846198   0.082   0.733   7.548 -0.4847  0.2856  1.2947
   96MOL   H40946199   0.092   0.559   7.366 -0.5783 -0.1595 -0.1882
   96MOL   C41046200   8.363   0.697   7.889  0.5001 -0.5393  0.1695
   96MOL   C41146201   0.012   0.715   8.007  0.3202 -0.3028 -0.3273
   96MOL   C41246202   0.087   0.836   8.030  0.4263  0.1697 -0.1744
   96MOL   C41346203   0.093   0.932   7.925  0.1036  0.0549  0.2515
   96MOL   C41446204   0.022   0.920   7.805 -1.0024 -0.1272  0.1555
   96MOL   C41546205   8.365   0.802   7.793  0.6181  0.1077 -0.0154
   96MOL   S41646206   0.198   0.850   8.169 -0.0197 -0.0427  0.7361
   96MOL   O41746207   0.335   0.844   8.114  0.5175  0.1646  0.6816
   96MOL   O41846208   0.167   0.742   8.260 -0.0450 -0.2367  0.2234
   96MOL   C41946209   0.166   1.022   8.232  0.7050 -0.7180  0.1248
   96MOL   C42046210   0.053   1.098   8.198 -0.5183  0.2360 -0.4065
   96MOL   C42146211   0.039   1.226   8.246  0.7787 -0.7320  0.3696
   96MOL   C42246212   0.149   1.288   8.313 -0.0436  0.6754  0.1574
   96MOL   C42346213   0.266   1.221   8.330  0.3927 -1.0286  0.2662
   96MOL   C42446214   0.273   1.085   8.293 -0.3850  0.0736 -0.2066
   96MOL   O42546215   0.147   1.416   8.360  0.2600 -0.7569  0.1260
   96MOL   H42646216   8.305   0.607   7.873  1.6017 -1.2753  0.3022
   96MOL   H42746217   0.021   0.632   8.076 -0.8566  0.8603  1.2676
   96MOL   H42846218   0.173   1.003   7.932 -2.0623  2.6548 -0.5272
   96MOL   H42946219   0.030   0.991   7.724 -2.0817  0.0498  0.1965
   96MOL   H43046220   8.393   1.054   8.149 -1.2609  1.5217 -0.2845
   96MOL   H43146221   8.381   1.292   8.226  1.2791 -0.5172 -1.0728
   96MOL   H43246222   0.340   1.284   8.378 -1.1722  0.6770  0.4712
   96MOL   H43346223   0.363   1.025   8.303  0.7669  2.1710  2.6261
   96MOL   C43446224   0.046   1.576   0.079 -0.8918  1.0068  0.1298
   96MOL   C43546225   8.400   1.614   0.196 -0.3605 -0.0981  0.1583
   96MOL   C43646226   8.353   1.514   0.276  0.4124  0.6579  0.7538
   96MOL   C43746227   8.399   1.379   0.257 -0.3723 -0.4083 -0.0513
   96MOL   C43846228   0.053   1.345   0.150  0.3194 -0.3544  0.2474
   96MOL   C43946229   0.085   1.442   0.053 -0.5086 -0.4914 -0.4482
   96MOL   S44046230   8.263   1.564   0.425 -0.1957 -0.2488 -0.2230
   96MOL   O44146231   8.178   1.675   0.381 -1.2079 -0.1177  0.5263
   96MOL   O44246232   8.358   1.577   0.537  0.2340  0.5894  0.1042
   96MOL   C44346233   8.151   1.427   0.470  0.1659 -0.0365  0.3677
   96MOL   C44446234   8.106   1.413   0.603 -0.1742 -0.0550 -0.1569
   96MOL   C44546235   7.992   1.330   0.632  0.2802 -0.7298 -0.0499
   96MOL   C44646236   7.932   1.257   0.533  0.2487 -0.2359  0.2067
   96MOL   C44746237   7.983   1.274   0.403  0.8663 -0.4698 -0.1221
   96MOL   C44846238   8.086   1.359   0.366 -0.9136  1.3322  0.2622
   96MOL   O44946239   7.821   1.185   0.560  0.4071 -0.2460  0.9662
   96MOL   H45046240   0.079   1.642   8.425 -1.6613  0.4474 -0.6724
   96MOL   H45146241   8.370   1.714   0.224  1.1652  0.6130 -0.6655
   96MOL   H45246242   8.370   1.299   0.323  1.9126  0.4294  2.0591
   96MOL   H45346243   0.088   1.244   0.133 -0.9679 -0.6864 -0.4772
   96MOL   H45446244   8.157   1.470   0.679 -0.5608 -0.6926  0.5891
   96MOL   H45546245   7.942   1.327   0.728 -0.6510 -2.9698 -0.5693
   96MOL   H45646246   7.938   1.217   0.323  1.5016 -1.4700  0.2220
   96MOL   H45746247   8.107   1.380   0.262 -1.8827  1.2211  0.0366
   96MOL   C45846248   7.631   1.265   0.687 -0.3406 -0.4154  0.0155
   96MOL   C45946249   7.505   1.319   0.692  1.0249 -0.1547 -0.4730
   96MOL   C46046250   7.452   1.380   0.577  0.2075  0.2921  0.1297
   96MOL   C46146251   7.526   1.382   0.458  0.3783 -0.1244  0.4015
   96MOL   C46246252   7.646   1.316   0.450 -0.0717 -0.7020 -0.2313
   96MOL   C46346253   7.705   1.258   0.567 -0.1216  0.2961  0.4985
   96MOL   S46446254   7.285   1.446   0.588 -0.0687 -0.1324 -0.2294
   96MOL   O46546255   7.250   1.509   0.461 -0.1555  0.3123 -0.1071
   96MOL   O46646256   7.267   1.524   0.710 -0.2297 -0.3594 -0.3643
   96MOL   C46746257   7.186   1.297   0.607  0.4897  0.5555  0.2863
   96MOL   C46846258   7.205   1.191   0.517  0.6223 -0.6398  0.1323
   96MOL   C46946259   7.140   1.071   0.534  0.2054  0.2218  0.1909
   96MOL   C47046260   7.043   1.058   0.641 -0.5227 -0.0117  0.5031
   96MOL   C47146261   7.027   1.169   0.736 -0.7541 -0.2174 -0.6151
   96MOL   C47246262   7.101   1.291   0.719 -0.2112  0.1464  0.1238
   96MOL   O47346263   6.987   0.934   0.666 -0.0367  0.0650  0.1271
   96MOL   H47446264   7.670   1.227   0.780 -2.0226 -0.4867  0.7107
   96MOL   H47546265   7.449   1.323   0.784  1.7468  0.4372 -0.0598
   96MOL   H47646266   7.492   1.430   0.367 -0.8476 -0.6705  0.5646
   96MOL   H47746267   7.694   1.320   0.353 -1.2121 -0.9518 -0.8163
   96MOL   H47846268   7.270   1.208   0.431 -1.3829 -1.0364 -1.5003
   96MOL   H47946269   7.158   0.987   0.468 -0.0451  1.3634 -1.3373
   96MOL   H48046270   6.964   1.162   0.824  0.5048  0.5650  0.3625
   96MOL   H48146271   7.093   1.373   0.788  0.5561 -1.1152  1.7543
   96MOL   H48246272   6.933   0.933   0.743 -0.3031 -2.2685 -0.0651
   97MOL     C146273   5.134   7.323   2.364 -0.2086  0.2307 -0.2604
   97MOL     C246274   5.160   7.181   2.358 -0.1580  0.6159  0.0198
   97MOL     C346275   5.191   7.098   2.465  1.1438  0.4816 -0.5819
   97MOL     C446276   5.202   7.158   2.591 -0.6226 -0.3210 -0.7295
   97MOL     C546277   5.190   7.297   2.603 -0.4947 -0.0836  0.1031
   97MOL     C646278   5.157   7.377   2.491 -0.5522  0.0303  0.6308
   97MOL     S746279   5.206   6.918   2.462  0.0818 -0.1187  0.0343
   97MOL     O846280   5.188   6.877   2.319  0.4493  0.0418 -0.3137
   97MOL     O946281   5.123   6.861   2.566 -0.5041  0.2186  0.0311
   97MOL    C1046282   5.374   6.883   2.500  0.4230 -0.4925  0.5195
   97MOL    C1146283   5.413   6.838   2.628  0.0568 -0.7320 -0.4775
   97MOL    C1246284   5.544   6.801   2.654  0.6457 -0.3752  0.2788
   97MOL    C1346285   5.638   6.803   2.553 -0.4002 -0.3792  0.3602
   97MOL    C1446286   5.595   6.848   2.426  0.2760 -0.3485  0.5304
   97MOL    C1546287   5.465   6.879   2.399 -0.4085 -0.2760 -0.5720
   97MOL    O1646288   5.764   6.749   2.573 -0.2034 -0.0590 -0.0314
   97MOL    H1746289   5.113   7.377   2.273 -1.5711  0.0875 -0.0358
   97MOL    H1846290   5.143   7.144   2.258  0.3550  1.7606 -0.5031
   97MOL    H1946291   5.229   7.109   2.683  0.8245 -1.9587 -2.0045
   97MOL    H2046292   5.199   7.345   2.699 -2.4004  0.0800  0.2212
   97MOL    H2146293   5.332   6.815   2.697  1.2412 -0.4795  1.0190
   97MOL    H2246294   5.559   6.758   2.753 -0.6233  0.8788  1.0353
   97MOL    H2346295   5.675   6.854   2.354  0.5085 -0.6490  0.7593
   97MOL    H2446296   5.428   6.909   2.302  1.6983  0.0253 -1.3277
   97MOL    H2546297   5.135   7.482   2.507 -0.5046  0.2730 -0.7733
   97MOL    C2646298   5.864   6.938   2.685  0.7064  0.0744  0.7057
   97MOL    C2746299   5.946   6.993   2.795  0.4270 -0.1007  0.5593
   97MOL    C2846300   6.004   6.904   2.884 -0.2649  0.0268  0.2613
   97MOL    C2946301   5.972   6.768   2.876  0.0411  0.3439 -0.2670
   97MOL    C3046302   5.886   6.714   2.779 -0.4499 -0.0841  0.7058
   97MOL    C3146303   5.837   6.799   2.674 -0.0187 -0.0059 -0.2727
   97MOL    S3246304   6.111   6.972   3.016  0.1223  0.2132 -0.2140
   97MOL    O3346305   6.120   6.875   3.129 -0.2867  0.3047  0.3144
   97MOL    O3446306   6.095   7.112   3.047 -0.5982  0.2336  0.8080
   97MOL    C3546307   6.261   6.964   2.928 -0.6737  0.1644  1.2572
   97MOL    C3646308   6.301   6.846   2.854  0.0081 -0.6220 -0.8963
   97MOL    C3746309   6.428   6.846   2.793 -0.2064 -0.4210 -1.0321
   97MOL    C3846310   6.509   6.960   2.797 -0.4666 -0.3319  0.6926
   97MOL    C3946311   6.462   7.076   2.861 -0.5475  0.3877 -0.0382
   97MOL    C4046312   6.339   7.082   2.925 -0.4752  0.4835 -0.8413
   97MOL    O4146313   6.633   6.956   2.742  0.0064 -0.5446  0.0071
   97MOL    H4246314   5.835   7.008   2.608  2.6534 -0.9403 -0.9973
   97MOL    H4346315   5.967   7.099   2.802  2.6633 -0.4081 -0.7756
   97MOL    H4446316   6.008   6.702   2.954  0.2223  0.4445 -0.2654
   97MOL    H4546317   5.867   6.608   2.772  0.5059 -0.2169  0.0965
   97MOL    H4646318   6.246   6.753   2.862 -0.8854 -0.1495 -1.4525
   97MOL    H4746319   6.473   6.765   2.737  2.7635  0.7522 -0.4636
   97MOL    H4846320   6.530   7.160   2.860 -1.9155  1.5342  0.8674
   97MOL    H4946321   6.319   7.173   2.979 -0.8042  0.4250 -0.8591
   97MOL    C5046322   6.761   7.099   2.608 -0.7007  0.5153  0.1902
   97MOL    C5146323   6.796   7.152   2.482  1.0661 -0.4648  0.2186
   97MOL    C5246324   6.718   7.118   2.370  0.1689 -0.4873 -0.6686
   97MOL    C5346325   6.597   7.049   2.388  0.3721  0.9271 -0.4102
   97MOL    C5446326   6.564   6.995   2.511  0.2879 -0.8252  0.4428
   97MOL    C5546327   6.647   7.023   2.623 -0.0576 -0.1927 -0.2315
   97MOL    S5646328   6.771   7.183   2.207  0.4547 -0.4275  0.2273
   97MOL    O5746329   6.801   7.325   2.207 -0.2512  0.5162 -0.2798
   97MOL    O5846330   6.670   7.128   2.114  1.1988 -0.6651  0.2438
   97MOL    C5946331   6.923   7.096   2.172 -0.0331  0.2629  0.3037
   97MOL    C6046332   7.045   7.157   2.197  0.9908  0.7778  0.4402
   97MOL    C6146333   7.169   7.099   2.161  0.6006 -0.7246 -0.6049
   97MOL    C6246334   7.172   6.965   2.116  0.6089 -0.6867 -0.2250
   97MOL    C6346335   7.053   6.900   2.082  0.3393 -0.3276 -0.2188
   97MOL    C6446336   6.928   6.971   2.105  0.6133 -0.3624 -0.2508
   97MOL    O6546337   7.285   6.898   2.083 -1.0157  0.4013  0.0246
   97MOL    H6646338   6.828   7.120   2.690  0.7592  0.4276 -0.9701
   97MOL    H6746339   6.882   7.215   2.464  0.6666 -0.2357 -0.9744
   97MOL    H6846340   6.539   7.037   2.297 -0.4394  0.7297  0.1236
   97MOL    H6946341   6.470   6.943   2.516 -0.3095  0.2418  0.6353
   97MOL    H7046342   7.039   7.263   2.220  0.4899  1.4647 -2.7221
   97MOL    H7146343   7.263   7.151   2.170  0.1555 -0.2703  1.7419
   97MOL    H7246344   7.054   6.807   2.027 -0.2322 -0.7735  0.5317
   97MOL    H7346345   6.832   6.931   2.077  0.9662 -1.8183  0.5798
   97MOL    C7446346   7.375   6.745   1.928  0.2224 -0.6977  0.2091
   97MOL    C7546347   7.409   6.706   1.803 -1.1489 -0.1309  0.4023
   97MOL    C7646348   7.373   6.794   1.697 -0.5260 -0.3511  1.1085
   97MOL    C7746349   7.311   6.917   1.718  0.6069  0.6444  0.5568
   97MOL    C7846350   7.281   6.959   1.843 -0.1309  0.1861 -0.3597
   97MOL    C7946351   7.311   6.870   1.952  0.3200 -0.5056 -0.4074
   97MOL    S8046352   7.415   6.755   1.526 -0.2316  0.1805 -0.0371
   97MOL    O8146353   7.455   6.612   1.523 -0.0662  0.1688  0.5520
   97MOL    O8246354   7.514   6.854   1.484 -0.1016  0.5567  0.3549
   97MOL    C8346355   7.269   6.777   1.431  0.3644 -0.1668  0.0541
   97MOL    C8446356   7.143   6.729   1.483 -0.2930 -0.1517 -0.0876
   97MOL    C8546357   7.022   6.759   1.417  0.2686 -0.7531 -0.0260
   97MOL    C8646358   7.020   6.826   1.293 -0.3428 -0.0523 -0.0429
   97MOL    C8746359   7.142   6.877   1.242  0.1663  0.7363  0.0882
   97MOL    C8846360   7.266   6.847   1.312 -0.1600 -0.3799  0.1057
   97MOL    O8946361   6.912   6.855   1.222  0.7642  0.0549  0.1118
   97MOL    H9046362   7.390   6.694   2.022 -0.9156 -1.4062  0.0130
   97MOL    H9146363   7.478   6.624   1.788  0.5552  1.2843  0.2606
   97MOL    H9246364   7.302   6.973   1.626 -0.2864  0.3233  0.4393
   97MOL    H9346365   7.232   7.054   1.860 -2.9374 -1.6234  2.2022
   97MOL    H9446366   7.148   6.677   1.577  1.0781 -0.1675 -0.1549
   97MOL    H9546367   6.929   6.721   1.458 -0.2150  0.7089  0.2547
   97MOL    H9646368   7.151   6.942   1.156  1.7214  0.4289 -0.0039
   97MOL    H9746369   7.360   6.883   1.270 -0.0289  0.1382  0.8513
   97MOL    C9846370   6.696   6.762   1.253 -0.8121 -0.1112  0.0183
   97MOL    C9946371   6.605   6.659   1.228  0.4550  0.0283 -0.0013
   97MOL   C10046372   6.630   6.559   1.133 -0.6871 -0.5569  0.0435
   97MOL   C10146373   6.748   6.563   1.054  0.1496  0.6420 -0.0464
   97MOL   C10246374   6.839   6.672   1.080 -0.5917  0.9942 -0.4115
   97MOL   C10346375   6.819   6.758   1.190  0.8087  0.0869  0.3288
   97MOL   S10446376   6.507   6.433   1.110 -0.1448 -0.2238  0.1265
   97MOL   O10546377   6.443   6.458   0.978 -0.6866 -0.0324  0.2714
   97MOL   O10646378   6.419   6.428   1.228  0.0860  0.5200 -0.2725
   97MOL   C10746379   6.588   6.273   1.102 -0.9909 -0.7214  0.1884
   97MOL   C10846380   6.628   6.212   0.976  0.4579 -0.0340 -0.3320
   97MOL   C10946381   6.672   6.077   0.962  0.2258  0.7023 -0.0861
   97MOL   C11046382   6.666   5.996   1.084 -0.1929  0.0831 -0.5641
   97MOL   C11146383   6.633   6.059   1.208  0.0229 -0.3915 -0.6652
   97MOL   C11246384   6.590   6.192   1.214  0.3839 -0.2906  0.1281
   97MOL   O11346385   6.687   5.858   1.083  0.2481  0.3949 -0.8277
   97MOL   H11446386   6.670   6.842   1.320  1.8394  1.6133 -0.9006
   97MOL   H11546387   6.512   6.664   1.282  0.5379 -2.2004  0.3732
   97MOL   H11646388   6.765   6.486   0.980  1.1330  2.4216 -1.6956
   97MOL   H11746389   6.929   6.685   1.021 -0.9642 -1.6341 -1.6077
   97MOL   H11846390   6.632   6.268   0.883  0.0939  1.4478  0.5188
   97MOL   H11946391   6.702   6.049   0.862 -1.9396 -0.4580 -0.4462
   97MOL   H12046392   6.634   5.993   1.293 -1.9546 -0.0454 -0.3516
   97MOL   H12146393   6.567   6.238   1.309  3.4551 -0.8335  1.1758
   97MOL   C12246394   6.856   5.711   0.970  0.2317 -0.1666 -0.4128
   97MOL   C12346395   6.991   5.668   0.954 -0.5356 -0.0756 -0.0755
   97MOL   C12446396   7.087   5.743   1.024 -0.2621  0.3469  0.1559
   97MOL   C12546397   7.057   5.849   1.107  0.6671 -0.2764 -0.4194
   97MOL   C12646398   6.920   5.885   1.132  0.1455  0.0544  0.0224
   97MOL   C12746399   6.820   5.818   1.060  0.7025  0.8956  0.3354
   97MOL   S12846400   7.253   5.711   0.993 -0.0276 -0.2058  0.2497
   97MOL   O12946401   7.291   5.598   1.081  0.0769 -0.4800  0.3756
   97MOL   O13046402   7.330   5.836   1.006 -0.1011 -0.3985 -0.3470
   97MOL   C13146403   7.256   5.651   0.826 -0.2944  0.8444  0.9655
   97MOL   C13246404   7.245   5.752   0.722 -0.0761 -0.2295  0.3411
   97MOL   C13346405   7.260   5.707   0.585  0.3169  0.2176 -0.4660
   97MOL   C13446406   7.307   5.574   0.560  0.0151 -0.3191  0.4358
   97MOL   C13546407   7.329   5.487   0.665  0.3110 -0.2309  0.1726
   97MOL   C13646408   7.298   5.519   0.801 -0.0899 -0.7181 -0.2460
   97MOL   O13746409   7.347   5.541   0.437  0.6349  0.2931 -0.3504
   97MOL   H13846410   6.782   5.656   0.915 -0.6158 -1.5855  2.0610
   97MOL   H13946411   7.011   5.581   0.893  0.1227 -0.3108  0.4730
   97MOL   H14046412   7.134   5.917   1.140  0.2773 -0.2288  0.4035
   97MOL   H14146413   6.899   5.960   1.206 -1.5872  0.0118 -0.4147
   97MOL   H14246414   7.220   5.855   0.744 -1.7679 -0.6381  0.4301
   97MOL   H14346415   7.238   5.781   0.510  0.7888 -0.2882 -1.1075
   97MOL   H14446416   7.365   5.386   0.658  1.2675  0.1939 -1.0288
   97MOL   H14546417   7.318   5.446   0.878 -0.2973 -1.5973 -1.0168
   97MOL   C14646418   7.533   5.401   0.420 -0.1033 -0.2299 -0.3940
   97MOL   C14746419   7.671   5.381   0.427 -0.0879  0.1488  0.9958
   97MOL   C14846420   7.752   5.496   0.438  0.5154  0.5729  0.1754
   97MOL   C14946421   7.706   5.630   0.422 -0.3970  0.2984 -0.2741
   97MOL   C15046422   7.565   5.643   0.431  0.3829  0.0946 -0.4409
   97MOL   C15146423   7.484   5.529   0.430 -0.3077  0.3485  0.3180
   97MOL   S15246424   7.920   5.459   0.471 -0.0540  0.3624 -0.2948
   97MOL   O15346425   7.995   5.583   0.502  0.3090  0.4030  0.4168
   97MOL   O15446426   7.960   5.360   0.370  0.3057 -0.3433 -0.0277
   97MOL   C15546427   7.912   5.357   0.623 -0.0936 -0.1265  0.9895
   97MOL   C15646428   7.846   5.403   0.734 -0.1288  0.1843 -0.4257
   97MOL   C15746429   7.863   5.337   0.857 -0.2211 -0.1064  0.2050
   97MOL   C15846430   7.947   5.223   0.863  0.6281  0.0967 -0.2841
   97MOL   C15946431   8.006   5.172   0.748  0.0859  0.0966 -0.4187
   97MOL   C16046432   7.989   5.236   0.625 -0.0371  0.4848 -0.2511
   97MOL   O16146433   7.966   5.164   0.983 -0.3220  0.3178  0.0746
   97MOL   H16246434   7.477   5.310   0.401 -0.1078 -0.2820 -0.1282
   97MOL   H16346435   7.712   5.282   0.437 -1.4874 -0.4313  1.1252
   97MOL   H16446436   7.767   5.719   0.427  1.0872 -0.6676 -0.7122
   97MOL   H16546437   7.521   5.741   0.434  0.4726  0.2751 -3.4394
   97MOL   H16646438   7.781   5.489   0.725 -3.1671 -2.0004 -0.3631
   97MOL   H16746439   7.815   5.368   0.948 -0.4237 -0.7277  0.3072
   97MOL   H16846440   8.057   5.077   0.748 -1.8514 -0.9685 -0.1321
   97MOL   H16946441   8.031   5.189   0.537 -1.2545 -1.1970  0.0371
   97MOL   C17046442   8.177   5.236   1.078 -0.3184 -0.2676  0.1565
   97MOL   C17146443   8.305   5.206   1.136  0.2121  0.7494 -0.7981
   97MOL   C17246444   8.352   5.074   1.128 -0.7835  0.6280  0.4953
   97MOL   C17346445   8.274   4.975   1.059  0.6133 -0.4373  0.7671
   97MOL   C17446446   8.141   5.005   1.023 -0.2853  0.6680  0.4809
   97MOL   C17546447   8.096   5.135   1.025  0.2876 -0.2295 -0.1239
   97MOL   S17646448   0.091   5.029   1.183  0.2083 -0.0924 -0.2652
   97MOL   O17746449   0.174   4.989   1.069 -0.2047 -0.5257  0.4893
   97MOL   O17846450   0.075   4.940   1.295  0.4587 -0.5059  0.0726
   97MOL   C17946451   0.173   5.170   1.239 -0.0603 -0.3786 -0.0327
   97MOL   C18046452   0.234   5.261   1.154 -0.3344  0.2042 -0.6517
   97MOL   C18146453   0.295   5.381   1.202 -0.1257  0.0445  0.5230
   97MOL   C18246454   0.291   5.404   1.340 -0.3085  0.1272 -0.1906
   97MOL   C18346455   0.228   5.313   1.429  0.0867 -0.3818  0.2174
   97MOL   C18446456   0.172   5.194   1.379  0.3258  0.0383  0.5202
   97MOL   O18546457   0.346   5.519   1.395  0.3832 -0.4908  0.9734
   97MOL   H18646458   8.141   5.338   1.074  2.7482  0.7961 -2.4129
   97MOL   H18746459   8.367   5.286   1.175 -0.7255  1.5379 -0.9137
   97MOL   H18846460   8.321   4.881   1.033 -2.4994 -1.4392 -1.5979
   97MOL   H18946461   8.077   4.932   0.976  0.9010  1.4957 -2.5249
   97MOL   H19046462   0.227   5.245   1.047  2.1909  1.1447 -0.9866
   97MOL   H19146463   0.329   5.454   1.130 -0.2421  0.3071  0.7348
   97MOL   H19246464   0.231   5.344   1.532  2.2654 -0.2549  0.1429
   97MOL   H19346465   0.121   5.125   1.444 -0.5096 -0.1499 -0.3171
   97MOL   C19446466   0.230   5.698   1.522 -0.0597 -0.1523 -0.4829
   97MOL   C19546467   0.164   5.816   1.519  0.2665  0.3697 -0.8541
   97MOL   C19646468   0.135   5.887   1.398 -0.4454 -0.4069  0.1466
   97MOL   C19746469   0.192   5.834   1.277  1.1714 -0.3529  0.9909
   97MOL   C19846470   0.265   5.715   1.281  0.3799 -0.7065  0.4301
   97MOL   C19946471   0.276   5.642   1.401  0.3097 -0.1098  0.2548
   97MOL   S20046472   0.024   6.030   1.382 -0.0919 -0.3768 -0.2059
   97MOL   O20146473   8.318   5.980   1.342  0.1735 -0.6062 -0.7280
   97MOL   O20246474   0.084   6.130   1.294 -0.3487 -0.1424  0.1239
   97MOL   C20346475   0.000   6.105   1.548 -0.1305 -0.2178  0.7928
   97MOL   C20446476   0.101   6.100   1.650  0.3361  0.1389  0.0172
   97MOL   C20546477   0.067   6.154   1.776 -0.6131  0.1959 -0.2167
   97MOL   C20646478   8.374   6.225   1.797  0.4093 -0.3996 -0.6241
   97MOL   C20746479   8.275   6.229   1.697 -0.7847  0.8821 -0.0158
   97MOL   C20846480   8.305   6.178   1.571  0.5695 -0.0357  0.7382
   97MOL   O20946481   8.352   6.281   1.918 -0.1398 -0.2578  0.4789
   97MOL   H21046482   0.256   5.656   1.618 -0.5699 -1.7674 -1.0248
   97MOL   H21146483   0.121   5.854   1.611  0.4853  0.7742 -0.9192
   97MOL   H21246484   0.191   5.890   1.185 -0.3774  0.8885  1.7347
   97MOL   H21346485   0.301   5.681   1.186 -0.9723 -1.3097  0.1206
   97MOL   H21446486   0.191   6.040   1.639  0.9961  1.1502 -0.1156
   97MOL   H21546487   0.141   6.149   1.854  0.4314  0.2033 -1.1887
   97MOL   H21646488   8.184   6.283   1.715 -0.8666  1.1892 -1.3216
   97MOL   H21746489   8.231   6.188   1.494  2.4422 -0.7526 -1.2021
   97MOL   C21846490   8.258   6.494   1.920 -0.0475  0.0759  0.6520
   97MOL   C21946491   8.261   6.637   1.925  0.8101  0.3864 -0.2234
   97MOL   C22046492   8.388   6.700   1.930  0.1680  0.2507  0.0287
   97MOL   C22146493   0.076   6.616   1.940 -0.5384  0.2949  0.3233
   97MOL   C22246494   0.073   6.476   1.942  0.3748 -0.2327 -0.6493
   97MOL   C22346495   8.369   6.414   1.924  0.0393  1.0373 -0.0100
   97MOL   S22446496   8.401   6.872   1.930 -0.1123  0.2322 -0.2240
   97MOL   O22546497   0.025   6.909   2.062  0.8027  0.0198 -0.1683
   97MOL   O22646498   8.275   6.935   1.892  0.0124  0.0397 -0.5024
   97MOL   C22746499   0.096   6.930   1.813 -0.2321 -0.5962 -0.1478
   97MOL   C22846500   0.052   6.972   1.687 -0.0919  0.2681 -0.0057
   97MOL   C22946501   0.146   7.039   1.603  0.5115  0.0780  0.7993
   97MOL   C23046502   0.277   7.066   1.648  0.2773  0.0807  0.0567
   97MOL   C23146503   0.316   7.027   1.778 -0.4494 -0.1202  0.5716
   97MOL   C23246504   0.223   6.962   1.858 -0.4303 -0.1474 -0.8681
   97MOL   O23346505   0.363   7.141   1.574 -0.1818  0.0235 -0.0926
   97MOL   H23446506   8.162   6.445   1.909 -0.3914  1.2766 -1.9014
   97MOL   H23546507   8.168   6.692   1.922  1.9389  2.3882  0.9842
   97MOL   H23646508   0.172   6.666   1.939  0.2983 -1.2830  0.1152
   97MOL   H23746509   0.165   6.420   1.944  0.1858 -0.5651 -1.1682
   97MOL   H23846510   8.373   6.970   1.657 -0.6270 -0.5316  1.8559
   97MOL   H23946511   0.111   7.058   1.503  1.3337 -2.3064  0.0126
   97MOL   H24046512   0.415   7.038   1.821 -0.5378  0.5783  0.5910
   97MOL   H24146513   0.251   6.927   1.957 -1.8233  0.4422 -0.2468
   97MOL   C24246514   0.297   7.164   1.349 -0.4130 -0.3625  0.4370
   97MOL   C24346515   0.333   7.158   1.213  0.2515 -0.2470 -0.2995
   97MOL   C24446516   0.453   7.105   1.172 -0.5259 -0.3151 -0.2738
   97MOL   C24546517   0.553   7.071   1.266  0.8961 -0.0257 -0.3053
   97MOL   C24646518   0.514   7.065   1.404 -0.3404  0.0687  0.0681
   97MOL   C24746519   0.391   7.120   1.445 -0.2913 -1.3835 -0.1891
   97MOL   S24846520   0.500   7.103   1.000  0.9121  0.0150  0.1176
   97MOL   O24946521   0.373   7.109   0.927 -0.2126 -0.2376  0.2864
   97MOL   O25046522   0.590   6.987   0.976 -0.0936 -0.0112  0.1863
   97MOL   C25146523   0.604   7.240   0.962  0.4311 -0.1503  0.7835
   97MOL   C25246524   0.579   7.366   1.028  0.4773 -0.3518 -0.1410
   97MOL   C25346525   0.655   7.482   1.006 -0.0801 -0.0490  0.1815
   97MOL   C25446526   0.754   7.475   0.906  0.1401  0.5648  0.5186
   97MOL   C25546527   0.778   7.352   0.841 -0.4192 -0.1894 -0.1001
   97MOL   C25646528   0.709   7.235   0.873  0.0572 -1.4366 -0.4130
   97MOL   O25746529   0.840   7.583   0.880  0.0778  0.7762 -0.0093
   97MOL   H25846530   0.204   7.211   1.380 -0.7760 -1.5760  1.2483
   97MOL   H25946531   0.254   7.189   1.145 -1.2503 -0.7025  1.1898
   97MOL   H26046532   0.650   7.031   1.243  1.0292  1.4279 -2.3862
   97MOL   H26146533   0.589   7.028   1.472  0.8224  0.5910 -0.9051
   97MOL   H26246534   0.503   7.363   1.104 -1.3203  0.1292 -1.8815
   97MOL   H26346535   0.632   7.569   1.066  0.5229 -0.6320  1.2726
   97MOL   H26446536   0.858   7.329   0.773 -1.5981 -1.7904 -0.9862
   97MOL   H26546537   0.734   7.142   0.824  0.4128 -1.6084  0.1032
   97MOL   C26646538   0.855   7.823   0.880 -1.0441 -0.3346  0.7292
   97MOL   C26746539   0.813   7.950   0.841  0.7735 -0.4584  0.7629
   97MOL   C26846540   0.703   7.959   0.750 -0.6412  0.1755 -0.5349
   97MOL   C26946541   0.638   7.843   0.710  0.5778 -0.1287  0.1269
   97MOL   C27046542   0.683   7.713   0.746  0.1306  0.0124  0.3529
   97MOL   C27146543   0.789   7.702   0.841 -0.1833 -0.4078 -0.3108
   97MOL   S27246544   0.642   8.116   0.688 -0.1376 -0.3735  0.1196
   97MOL   O27346545   0.495   8.118   0.663 -0.3595  0.4848 -0.1088
   97MOL   O27446546   0.731   8.162   0.574 -0.2217  0.0459 -0.1750
   97MOL   C27546547   0.669   8.234   0.822 -0.4121  0.0443  0.5422
   97MOL   C27646548   0.762   8.345   0.820 -0.3836  0.3077 -0.3718
   97MOL   C27746549   0.787   8.409   0.942 -0.1499  0.3307 -0.0570
   97MOL   C27846550   0.709   8.392   1.058 -0.3218 -0.0111 -0.1322
   97MOL   C27946551   0.598   8.304   1.049 -0.0284 -0.7067  0.4245
   97MOL   C28046552   0.579   8.221   0.935  0.1793  0.2719  0.8472
   97MOL   O28146553   0.739   0.035   1.175 -0.0119  0.4137 -0.0627
   97MOL   H28246554   0.946   7.826   0.937  1.4310 -0.8407 -3.0396
   97MOL   H28346555   0.858   8.045   0.869  0.3086 -0.2705  0.8663
   97MOL   H28446556   0.555   7.856   0.643 -0.3620 -0.6988  1.1444
   97MOL   H28546557   0.625   7.629   0.710  1.0789 -1.3589  1.9875
   97MOL   H28646558   0.822   8.361   0.732  0.6938 -0.6710  0.1793
   97MOL   H28746559   0.865   0.059   0.953 -0.4129  0.6163 -0.1266
   97MOL   H28846560   0.520   8.292   1.123  0.8084 -1.1103  1.2394
   97MOL   H28946561   0.503   8.144   0.935 -1.2675  1.6476 -1.0744
   97MOL   C29046562   0.540   0.174   1.142  0.0779 -0.5985 -0.6998
   97MOL   C29146563   0.430   0.249   1.200 -0.4876  0.0204  1.4233
   97MOL   C29246564   0.399   0.231   1.331 -0.0207 -0.5045  0.4011
   97MOL   C29346565   0.490   0.167   1.417 -0.4069 -0.2045  0.1393
   97MOL   C29446566   0.609   0.106   1.364  0.5249  0.2868 -0.0995
   97MOL   C29546567   0.637   0.106   1.228  0.0870  0.0347 -0.3671
   97MOL   S29646568   0.248   0.297   1.396 -0.1013 -0.6712 -0.0008
   97MOL   O29746569   0.218   0.424   1.326 -0.0907 -0.4424 -0.3089
   97MOL   O29846570   0.245   0.296   1.544  0.2880 -0.2236  0.4710
   97MOL   C29946571   0.137   0.177   1.328  0.5217  0.0245 -0.0936
   97MOL   C30046572   0.149   0.043   1.369 -0.3582  0.5232  0.4032
   97MOL   C30146573   0.075   8.365   1.309  0.4700 -0.0310  0.2103
   97MOL   C30246574   8.419   8.392   1.197  0.1493 -0.1511 -0.8129
   97MOL   C30346575   8.411   0.102   1.157  0.1034  0.5606  0.3670
   97MOL   C30446576   0.062   0.202   1.214 -0.3804 -0.1890  0.3730
   97MOL   O30546577   8.356   8.286   1.132  0.2472 -0.6566  0.3487
   97MOL   H30646578   0.565   0.181   1.037 -0.8028  0.9403 -0.8170
   97MOL   H30746579   0.363   0.300   1.134  0.3019  1.5380  1.7630
   97MOL   H30846580   0.474   0.150   1.522  0.7846  1.2626  0.5697
   97MOL   H30946581   0.671   0.042   1.424 -0.0125 -0.1247  0.0198
   97MOL   H31046582   0.212   0.024   1.455  1.2197 -0.2076 -0.8742
   97MOL   H31146583   0.072   8.265   1.350 -2.2931 -0.0605  0.0713
   97MOL   H31246584   8.347   0.119   1.072  0.7011  0.6988 -0.0543
   97MOL   H31346585   0.067   0.299   1.167 -0.4634  0.5141  1.7801
   97MOL   C31446586   0.016   8.058   1.149 -0.2468 -0.4674 -0.5751
   97MOL   C31546587   0.096   7.957   1.098  0.0428 -0.6705 -0.0163
   97MOL   C31646588   0.184   7.991   0.989 -0.1129 -0.0596 -0.3118
   97MOL   C31746589   0.174   8.117   0.922  0.0514  0.9925  0.1855
   97MOL   C31846590   0.086   8.216   0.972  0.4480  0.1263 -0.8486
   97MOL   C31946591   0.008   8.183   1.085 -0.3224  0.0095 -0.0126
   97MOL   S32046592   0.315   7.875   0.937  0.0306 -0.0402  0.1909
   97MOL   O32146593   0.449   7.930   0.960 -0.6079 -0.7878 -0.4182
   97MOL   O32246594   0.276   7.818   0.803 -0.2449  0.3042  0.5703
   97MOL   C32346595   0.297   7.742   1.049 -1.2547 -0.0053  0.0553
   97MOL   C32446596   0.331   7.758   1.181  0.2483 -0.9061 -0.5194
   97MOL   C32546597   0.292   7.656   1.272  0.2994 -0.0908 -0.3212
   97MOL   C32646598   0.227   7.537   1.229  0.4894  0.6362  0.1376
   97MOL   C32746599   0.190   7.525   1.094  0.4165 -0.1257 -1.1735
   97MOL   C32846600   0.227   7.629   1.005 -0.0658  0.8271  0.3058
   97MOL   O32946601   0.191   7.438   1.311 -0.3290  0.5941  0.2480
   97MOL   H33046602   8.381   8.042   1.237  1.8877 -0.8817  0.8427
   97MOL   H33146603   0.102   7.863   1.152  0.5929  0.0612  1.2273
   97MOL   H33246604   0.233   8.148   0.837 -0.4266  1.8444  0.1564
   97MOL   H33346605   0.083   8.307   0.914 -0.9046 -1.2326 -3.0080
   97MOL   H33446606   0.395   7.837   1.216 -0.7558 -0.0834 -0.5337
   97MOL   H33546607   0.321   7.664   1.376  0.3816  0.5083 -0.3917
   97MOL   H33646608   0.145   7.432   1.063  1.0128 -1.1170  0.8909
   97MOL   H33746609   0.194   7.619   0.903 -0.2632 -2.2448  0.6268
   97MOL   C33846610   8.415   7.512   1.428 -0.6701  0.3822 -0.4572
   97MOL   C33946611   8.340   7.519   1.550  0.6555 -0.1055 -0.2695
   97MOL   C34046612   8.407   7.506   1.673 -0.4433 -0.2875  0.6960
   97MOL   C34146613   0.122   7.469   1.675 -0.0586 -0.4414 -0.0861
   97MOL   C34246614   0.188   7.450   1.553 -0.4816 -0.1924 -0.2483
   97MOL   C34346615   0.128   7.466   1.430  0.3462  0.1283 -0.4581
   97MOL   S34446616   8.321   7.523   1.830 -0.1026 -0.3136 -0.0844
   97MOL   O34546617   8.417   7.585   1.925 -0.0264  0.5087  0.1348
   97MOL   O34646618   8.274   7.390   1.862 -0.0023  0.3338  0.3900
   97MOL   C34746619   8.181   7.631   1.799  0.2278  0.2270  0.9436
   97MOL   C34846620   8.194   7.746   1.716 -0.1025 -0.3327 -0.0570
   97MOL   C34946621   8.087   7.829   1.689 -0.1349 -0.0972 -0.5350
   97MOL   C35046622   7.966   7.795   1.748  0.3976  0.6312  0.4089
   97MOL   C35146623   7.951   7.686   1.831  0.1168  0.2471  0.0465
   97MOL   C35246624   8.059   7.599   1.863  0.2367  0.0154  0.2340
   97MOL   O35346625   7.852   7.871   1.730 -0.6764 -0.6713 -0.1572
   97MOL   H35446626   8.360   7.520   1.336  0.0503  0.9353 -0.8438
   97MOL   H35546627   8.237   7.551   1.557  1.0758  1.1949  0.0624
   97MOL   H35646628   0.168   7.452   1.771  1.8304  1.0444 -0.7047
   97MOL   H35746629   0.287   7.407   1.550 -0.4963 -0.1890 -0.8259
   97MOL   H35846630   8.291   7.768   1.675  0.6207 -0.3972  1.5994
   97MOL   H35946631   8.093   7.915   1.624 -3.1061  0.4061 -0.1924
   97MOL   H36046632   7.853   7.651   1.861  0.7799 -0.1854  1.7332
   97MOL   H36146633   8.054   7.525   1.942  2.9947  0.9578  1.3353
   97MOL   C36246634   7.861   8.089   1.645  0.5116  0.5898 -0.2089
   97MOL   C36346635   7.833   8.227   1.648 -0.8466 -0.5003  0.7097
   97MOL   C36446636   7.778   8.283   1.763 -0.1941 -0.3067  0.6013
   97MOL   C36546637   7.748   8.199   1.873 -0.1692 -0.3136  0.0926
   97MOL   C36646638   7.769   8.061   1.865  0.3507 -0.0660 -0.1457
   97MOL   C36746639   7.837   8.006   1.756 -0.1698 -0.3423 -0.0877
   97MOL   S36846640   7.735   0.025   1.768  0.2157  0.1668 -0.1115
   97MOL   O36946641   7.597   0.029   1.820 -0.1775  0.6378 -0.2442
   97MOL   O37046642   7.756   0.071   1.630 -0.4527 -0.5694 -0.2645
   97MOL   C37146643   7.845   0.106   1.883 -0.1767 -0.3393  0.1260
   97MOL   C37246644   7.944   0.186   1.821  0.1145 -0.0675  0.6438
   97MOL   C37346645   8.032   0.258   1.904 -0.0184 -0.6027  0.2822
   97MOL   C37446646   8.002   0.271   2.043  0.6406  0.1735  0.9071
   97MOL   C37546647   7.904   0.189   2.105  0.8236 -0.4614 -0.1229
   97MOL   C37646648   7.823   0.096   2.027  0.0848 -0.6621  0.4820
   97MOL   O37746649   8.065   0.368   2.115 -0.1745 -0.7292 -0.3704
   97MOL   H37846650   7.910   8.042   1.561 -1.6696 -1.1095 -0.5943
   97MOL   H37946651   7.847   8.274   1.552  0.2823 -0.6134  0.8198
   97MOL   H38046652   7.704   8.242   1.962  1.8381  0.2731  0.8423
   97MOL   H38146653   7.748   7.998   1.951  0.9077 -0.1302 -0.0601
   97MOL   H38246654   7.962   0.177   1.715 -0.0224  1.3889  0.4841
   97MOL   H38346655   8.111   0.318   1.861  1.5019 -1.9078  1.1895
   97MOL   H38446656   7.882   0.195   2.210 -0.7820  0.9569 -0.5165
   97MOL   H38546657   7.742   0.038   2.068 -0.3362 -2.0659 -2.2555
   97MOL   C38646658   8.015   0.470   2.326  0.4793  0.3727  0.8531
   97MOL   C38746659   7.928   0.559   2.399 -0.0841 -0.3695 -0.2621
   97MOL   C38846660   7.814   0.615   2.339  0.0762 -0.3783  0.0029
   97MOL   C38946661   7.781   0.593   2.204 -0.9146 -0.3109 -0.2851
   97MOL   C39046662   7.867   0.512   2.125 -0.3415 -0.2328  0.2907
   97MOL   C39146663   7.984   0.450   2.186 -0.1057  0.5335 -0.1460
   97MOL   S39246664   7.708   0.723   2.436 -0.1122  0.4952 -0.1520
   97MOL   O39346665   7.587   0.643   2.472 -0.3580 -0.8329 -0.1027
   97MOL   O39446666   7.697   0.850   2.365 -0.6342  0.2246  0.0757
   97MOL   C39546667   7.795   0.759   2.586  0.1929 -0.2807 -0.0908
   97MOL   C39646668   7.795   0.667   2.694  0.3848  0.1713 -0.0134
   97MOL   C39746669   7.847   0.699   2.822 -0.2350  0.0253  0.3853
   97MOL   C39846670   7.925   0.817   2.830 -0.1297  0.1305  0.3086
   97MOL   C39946671   7.930   0.911   2.725 -0.2774 -0.0967 -0.3238
   97MOL   C40046672   7.860   0.879   2.605 -0.4767  0.6052 -0.3243
   97MOL   O40146673   7.990   0.846   2.944 -0.2243 -0.6420  0.2981
   97MOL   H40246674   8.107   0.438   2.373  1.1757  0.2247 -0.5943
   97MOL   H40346675   7.957   0.569   2.502 -2.0711 -1.9204  0.4809
   97MOL   H40446676   7.703   0.658   2.168 -0.7321 -0.4255 -0.8858
   97MOL   H40546677   7.860   0.512   2.017 -0.2236  0.3553  0.2788
   97MOL   H40646678   7.745   0.571   2.685  1.6862 -0.5670  0.3973
   97MOL   H40746679   7.828   0.631   2.903 -0.1878 -2.6468 -1.7462
   97MOL   H40846680   7.976   1.009   2.724  1.1245 -0.7155  1.6754
   97MOL   H40946681   7.857   0.953   2.527  2.5468  1.6443  0.4817
   97MOL   C41046682   8.062   0.731   3.143 -0.5053  0.2883 -0.1306
   97MOL   C41146683   8.143   0.635   3.208 -0.3506  0.0820  0.5178
   97MOL   C41246684   8.233   0.555   3.138 -0.3589  0.5767 -0.2658
   97MOL   C41346685   8.235   0.565   2.995  0.5470  0.7315 -0.2294
   97MOL   C41446686   8.165   0.670   2.926  0.1832 -0.3090 -0.4252
   97MOL   C41546687   8.076   0.753   3.002  0.4217  0.3655 -0.2597
   97MOL   S41646688   8.337   0.440   3.224 -0.1306  0.0411  0.0155
   97MOL   O41746689   8.395   0.345   3.127 -0.3733 -0.0605  0.4492
   97MOL   O41846690   8.269   0.391   3.349 -0.2719  0.2900  0.4446
   97MOL   C41946691   0.047   0.542   3.279  0.8097  0.5052 -0.2653
   97MOL   C42046692   0.105   0.638   3.194 -0.1333 -0.0634 -0.0067
   97MOL   C42146693   0.220   0.707   3.228 -1.5320  0.0124 -0.9917
   97MOL   C42246694   0.281   0.684   3.351 -0.4198 -0.3615  0.3916
   97MOL   C42346695   0.223   0.598   3.450 -0.6096  0.9813  0.1680
   97MOL   C42446696   0.105   0.524   3.408  0.3711 -0.0388  0.3798
   97MOL   O42546697   0.407   0.743   3.379  0.3143  0.1032 -0.7501
   97MOL   H42646698   7.988   0.781   3.203 -3.2951 -2.5044 -1.1212
   97MOL   H42746699   8.134   0.621   3.315  0.3596 -0.9540  0.4536
   97MOL   H42846700   8.297   0.492   2.944  1.2205  0.8250  0.4597
   97MOL   H42946701   8.151   0.663   2.819 -2.9521  0.9997 -0.1553
   97MOL   H43046702   0.060   0.663   3.099  0.4304  0.4909 -0.1283
   97MOL   H43146703   0.253   0.778   3.153 -3.0510  1.7471 -0.0640
   97MOL   H43246704   0.269   0.580   3.546  1.2579  1.2353 -0.6445
   97MOL   H43346705   0.071   0.443   3.470  1.6767 -0.4206  0.6070
   97MOL   C43446706   0.587   0.577   3.348 -0.1035  0.4368 -0.2445
   97MOL   C43546707   0.689   0.491   3.403 -0.3537  0.2425  1.0849
   97MOL   C43646708   0.724   0.510   3.538 -0.1576 -0.5672 -0.3390
   97MOL   C43746709   0.661   0.604   3.624 -0.6561 -0.2791  0.6279
   97MOL   C43846710   0.549   0.680   3.566  0.1336 -0.2916 -0.4250
   97MOL   C43946711   0.515   0.666   3.426  0.0192  0.6154 -0.2167
   97MOL   S44046712   0.856   0.408   3.587  0.5882  0.1661  0.1680
   97MOL   O44146713   0.818   0.268   3.555  0.5297 -0.2550 -0.0842
   97MOL   O44246714   0.893   0.442   3.726 -0.3194  0.0201 -0.1967
   97MOL   C44346715   0.992   0.458   3.482  0.1745  0.1291 -0.4335
   97MOL   C44446716   1.030   0.389   3.370  0.1164 -0.1111  0.2533
   97MOL   C44546717   1.134   0.441   3.295 -0.3748  0.0579 -0.1632
   97MOL   C44646718   1.195   0.560   3.329 -0.1643 -0.2217  0.4015
   97MOL   C44746719   1.163   0.633   3.448 -0.0457 -0.2852  0.0085
   97MOL   C44846720   1.059   0.574   3.525  0.1004 -0.3578 -0.1806
   97MOL   O44946721   1.295   0.607   3.248 -0.2705  0.3138  0.5815
   97MOL   H45046722   0.574   0.586   3.241  0.1651 -0.1189 -0.3266
   97MOL   H45146723   0.738   0.420   3.338 -2.1638 -1.5315  1.6189
   97MOL   H45246724   0.701   0.610   3.724 -0.8888  0.6619  0.6699
   97MOL   H45346725   0.493   0.752   3.623  1.3225  0.3297 -0.0223
   97MOL   H45446726   0.983   0.293   3.351  2.4273 -1.6168  1.7772
   97MOL   H45546727   1.167   0.383   3.210  1.6995 -0.1279  0.7624
   97MOL   H45646728   1.210   0.728   3.466  2.7173 -1.5650 -0.2637
   97MOL   H45746729   1.039   0.629   3.616 -0.3758 -1.5616  0.4611
   97MOL   C45846730   1.520   0.563   3.179 -0.0007 -0.0382 -0.2159
   97MOL   C45946731   1.648   0.522   3.202 -0.2222 -0.3422 -0.6443
   97MOL   C46046732   1.689   0.478   3.329 -0.5626 -0.0418 -0.3083
   97MOL   C46146733   1.596   0.488   3.433  0.0120 -0.7380 -0.1091
   97MOL   C46246734   1.463   0.532   3.409 -0.0616  0.8061 -0.4434
   97MOL   C46346735   1.419   0.556   3.276  0.3861  0.1723  0.3042
   97MOL   S46446736   1.854   0.408   3.354  0.1591 -0.1736  0.3728
   97MOL   O46546737   1.868   0.366   3.492 -0.3445 -0.0903 -0.2850
   97MOL   O46646738   1.950   0.500   3.282 -0.1223 -0.6105  0.3884
   97MOL   C46746739   1.859   0.264   3.248  0.0618 -0.5721 -0.5534
   97MOL   C46846740   1.940   0.256   3.128 -0.6425  0.1799 -0.2782
   97MOL   C46946741   1.939   0.137   3.058  0.6614 -0.4120 -0.2302
   97MOL   C47046742   1.863   0.023   3.105  0.3378  0.0020  0.2889
   97MOL   C47146743   1.778   0.040   3.214  0.2179  0.6355 -0.0796
   97MOL   C47246744   1.774   0.161   3.289 -0.3944  0.3476 -0.5990
   97MOL   O47346745   1.872   8.330   3.033 -0.0496  0.3661 -0.0583
   97MOL   H47446746   1.502   0.594   3.077  0.5662  0.3152 -0.2062
   97MOL   H47546747   1.725   0.526   3.126 -0.6696  1.6032 -1.0310
   97MOL   H47646748   1.622   0.457   3.533  0.1811 -0.4612 -0.0673
   97MOL   H47746749   1.392   0.531   3.490  0.2966  3.1870 -0.0433
   97MOL   H47846750   1.999   0.342   3.100 -0.3421 -0.5402 -1.8645
   97MOL   H47946751   2.010   0.129   2.977  0.9766 -1.1528  0.1200
   97MOL   H48046752   1.725   8.377   3.246  1.8918 -0.3284  0.0845
   97MOL   H48146753   1.722   0.171   3.383  3.0922  0.0453  1.4375
   97MOL   H48246754   1.956   8.328   2.990  1.5276 -1.6264  2.9126
   98MOL     C146755   8.295   7.525   4.403 -0.2746  0.0881 -0.4606
   98MOL     C246756   8.406   7.444   4.413  0.1265 -0.0587 -0.1163
   98MOL     C346757   8.397   7.305   4.412 -0.3336 -0.0197  0.2472
   98MOL     C446758   8.271   7.242   4.410 -0.1488 -0.1322 -0.1740
   98MOL     C546759   8.153   7.326   4.399  0.4075  0.7965 -0.2964
   98MOL     C646760   8.166   7.468   4.402  0.4737  0.2667 -0.7420
   98MOL     S746761   0.120   7.209   4.442 -0.1073  0.5770  0.0575
   98MOL     O846762   0.121   7.160   4.583  0.6471  0.2831 -0.2895
   98MOL     O946763   0.242   7.283   4.404  0.3982 -0.4633 -0.3131
   98MOL    C1046764   0.105   7.070   4.333  0.3238 -0.0706 -0.1304
   98MOL    C1146765   0.034   6.954   4.374 -0.4450 -0.6840 -0.8021
   98MOL    C1246766   0.012   6.847   4.287  0.2589  0.8277  0.8032
   98MOL    C1346767   0.074   6.845   4.156 -0.2164 -0.3844 -0.0326
   98MOL    C1446768   0.151   6.960   4.121  0.4077 -0.0586  0.0892
   98MOL    C1546769   0.161   7.077   4.203  0.7865  0.6215  0.2379
   98MOL    O1646770   0.042   6.738   4.075 -0.2706  0.4271  0.0812
   98MOL    H1746771   8.294   7.633   4.392  1.6971  0.5176  2.8316
   98MOL    H1846772   0.080   7.483   4.429  0.4556 -1.3509  1.1874
   98MOL    H1946773   8.274   7.134   4.401 -2.2237 -0.0235 -2.8238
   98MOL    H2046774   8.059   7.275   4.383  0.0119  1.9804 -1.7846
   98MOL    H2146775   8.408   6.968   4.468 -1.5978  0.4123 -1.5695
   98MOL    H2246776   8.367   6.772   4.321  0.3218  0.8844  1.0649
   98MOL    H2346777   0.205   6.974   4.029 -0.2079  1.2420 -0.0899
   98MOL    H2446778   0.206   7.168   4.166 -0.2995  0.9438 -0.3192
   98MOL    H2546779   8.072   7.519   4.397 -0.4509 -1.0262  2.4558
   98MOL    C2646780   0.213   6.568   4.148  0.0858 -0.0637  0.2600
   98MOL    C2746781   0.242   6.437   4.188  0.1464 -0.5549  0.2149
   98MOL    C2846782   0.139   6.349   4.213  0.3153 -0.0303  0.5690
   98MOL    C2946783   8.425   6.388   4.199 -0.5027  0.7684 -0.0222
   98MOL    C3046784   8.398   6.518   4.154  0.4389 -0.1687  0.6181
   98MOL    C3146785   0.079   6.612   4.129  0.2138  0.0388  0.0621
   98MOL    S3246786   0.160   6.174   4.230 -0.2467  0.3675  0.3322
   98MOL    O3346787   0.270   6.132   4.141 -0.1505  0.1586 -0.3629
   98MOL    O3446788   0.030   6.107   4.210 -0.0923 -0.0012 -0.9622
   98MOL    C3546789   0.226   6.137   4.392 -0.0963 -0.2367 -0.6710
   98MOL    C3646790   0.341   6.061   4.408  0.5642  0.4561  0.0327
   98MOL    C3746791   0.382   6.023   4.536 -0.1121  0.3248 -0.0324
   98MOL    C3846792   0.319   6.069   4.650 -0.0749  0.5053 -0.5589
   98MOL    C3946793   0.197   6.133   4.636  0.8161  0.1132  0.3616
   98MOL    C4046794   0.151   6.159   4.512  0.0449  0.6171 -0.2909
   98MOL    O4146795   0.379   6.056   4.772 -0.0507 -0.6203  0.1727
   98MOL    H4246796   0.295   6.638   4.139 -0.7823  0.8047 -1.2361
   98MOL    H4346797   0.343   6.405   4.206 -0.3267 -1.0726  2.0373
   98MOL    H4446798   8.349   6.313   4.212 -0.0152  0.3155  0.2233
   98MOL    H4546799   8.295   6.550   4.154  1.0655  1.9209 -0.4835
   98MOL    H4646800   0.389   6.026   4.318 -0.9790  1.9145 -1.3656
   98MOL    H4746801   0.480   5.981   4.551 -0.4435 -0.4432  0.0432
   98MOL    H4846802   0.138   6.158   4.723  1.3340  0.1423  0.7062
   98MOL    H4946803   0.051   6.201   4.506 -1.0531 -1.8026  0.1877
   98MOL    C5046804   0.251   5.934   4.929  0.0947 -0.1562  0.2411
   98MOL    C5146805   0.221   5.808   4.985 -0.3802  0.5613  0.3611
   98MOL    C5246806   0.306   5.697   4.961  0.3321 -0.1793  0.5302
   98MOL    C5346807   0.430   5.712   4.899  0.5568 -0.3729 -0.0633
   98MOL    C5446808   0.464   5.839   4.844  0.0376  0.0666 -0.4271
   98MOL    C5546809   0.365   5.943   4.846  0.3680  0.1670  0.0627
   98MOL    S5646810   0.263   5.544   5.043 -0.3624 -0.2897 -0.3156
   98MOL    O5746811   0.353   5.444   4.988 -0.0136 -0.2014  0.0387
   98MOL    O5846812   0.114   5.532   5.037  1.1152 -0.1248  0.2896
   98MOL    C5946813   0.307   5.578   5.208 -0.1396  0.1811  0.2403
   98MOL    C6046814   0.441   5.603   5.240  0.2808 -0.2794  0.2037
   98MOL    C6146815   0.468   5.635   5.376  0.4961  0.7790 -0.1693
   98MOL    C6246816   0.372   5.632   5.474 -0.1968 -0.0286 -0.3651
   98MOL    C6346817   0.239   5.610   5.435  0.0297  0.6682 -0.0391
   98MOL    C6446818   0.209   5.569   5.305  0.4977 -0.4285  0.2619
   98MOL    O6546819   0.406   5.670   5.601  0.2110 -0.0924 -0.3009
   98MOL    H6646820   0.176   6.012   4.932 -1.5661 -1.7013 -0.1687
   98MOL    H6746821   0.136   5.789   5.049  0.7386 -0.4471  1.5838
   98MOL    H6846822   0.492   5.624   4.903  1.3709  0.2679  2.3040
   98MOL    H6946823   0.557   5.861   4.794  0.5048  1.1927  0.9063
   98MOL    H7046824   0.513   5.621   5.161 -1.5436  1.9252 -1.0570
   98MOL    H7146825   0.563   5.670   5.414  0.0429  1.8407  0.0038
   98MOL    H7246826   0.163   5.606   5.512 -0.9219 -0.2003 -1.0232
   98MOL    H7346827   0.106   5.541   5.290  0.5898 -0.7711  0.2452
   98MOL    C7446828   0.546   5.477   5.647 -0.4458  0.2283  0.0394
   98MOL    C7546829   0.604   5.388   5.734  0.2908  0.1293  0.3473
   98MOL    C7646830   0.555   5.387   5.866  0.6976  0.1680  0.1582
   98MOL    C7746831   0.458   5.476   5.917  0.3165  0.0494  0.1909
   98MOL    C7846832   0.411   5.566   5.819 -0.2354 -0.3902 -0.2698
   98MOL    C7946833   0.456   5.575   5.689 -0.0703 -0.0687  0.6682
   98MOL    S8046834   0.637   5.278   5.988 -0.0964 -0.0729 -0.2491
   98MOL    O8146835   0.695   5.360   6.097  0.0589 -0.4389 -0.7379
   98MOL    O8246836   0.729   5.199   5.907  0.1007  0.0876  0.0535
   98MOL    C8346837   0.523   5.164   6.072 -0.6181  0.1395  0.0212
   98MOL    C8446838   0.425   5.218   6.159 -0.8910  0.4400 -0.5364
   98MOL    C8546839   0.336   5.124   6.216 -0.4957  0.2939  0.0262
   98MOL    C8646840   0.336   4.985   6.181  0.5302 -0.6531 -0.4494
   98MOL    C8746841   0.437   4.941   6.095  0.5458  0.0212 -0.2263
   98MOL    C8846842   0.530   5.031   6.044  0.1868  0.4640  0.4242
   98MOL    O8946843   0.246   4.894   6.237  0.3999  0.1783 -0.6472
   98MOL    H9046844   0.582   5.475   5.545 -0.2908 -2.4903  0.1092
   98MOL    H9146845   0.661   5.305   5.694  0.6074  0.7836 -0.5720
   98MOL    H9246846   0.426   5.481   6.020 -1.4229 -0.2479 -0.3263
   98MOL    H9346847   0.349   5.649   5.847  0.3612 -0.1360  0.3223
   98MOL    H9446848   0.414   5.323   6.182 -2.2188 -0.0991  1.5010
   98MOL    H9546849   0.254   5.166   6.273 -0.1664  0.4918  0.3598
   98MOL    H9646850   0.438   4.839   6.060  0.3064 -0.5989  1.5175
   98MOL    H9746851   0.614   5.002   5.983 -0.5639 -0.1220 -0.3319
   98MOL    C9846852   0.289   4.896   6.482  0.3697 -0.4008 -0.3120
   98MOL    C9946853   0.332   4.830   6.597 -0.3338  0.0909  0.3214
   98MOL   C10046854   0.384   4.704   6.589 -0.8468  0.1275  0.3441
   98MOL   C10146855   0.390   4.639   6.461  0.1412  0.2562  0.0557
   98MOL   C10246856   0.332   4.694   6.346  0.0345 -0.0729  0.3951
   98MOL   C10346857   0.285   4.829   6.355  0.0785  0.1650  0.4473
   98MOL   S10446858   0.455   4.617   6.733 -0.0030  0.0762 -0.1737
   98MOL   O10546859   0.483   4.475   6.698  0.7891 -0.3644  0.0086
   98MOL   O10646860   0.373   4.648   6.849 -0.0963  0.0793  0.1146
   98MOL   C10746861   0.608   4.697   6.750 -0.6418  0.0506  0.0877
   98MOL   C10846862   0.633   4.825   6.805  0.0866  0.2288 -0.2539
   98MOL   C10946863   0.763   4.872   6.840  0.3117 -0.2309 -0.0860
   98MOL   C11046864   0.873   4.796   6.800  0.6077  0.4757  0.0996
   98MOL   C11146865   0.854   4.664   6.744 -0.6071 -0.4482  0.4232
   98MOL   C11246866   0.723   4.618   6.719 -0.2283 -0.6515 -0.0412
   98MOL   O11346867   1.002   4.847   6.824  0.5889 -0.1585 -0.5752
   98MOL   H11446868   0.263   4.998   6.508 -0.3867 -1.0426  1.5326
   98MOL   H11546869   0.337   4.881   6.692  1.9777  0.4522  0.0204
   98MOL   H11646870   0.438   4.542   6.461 -0.9002 -0.2717  1.1596
   98MOL   H11746871   0.325   4.640   6.252 -0.9904  1.6243 -0.5298
   98MOL   H11846872   0.553   4.883   6.848 -2.3167 -2.0899 -1.4521
   98MOL   H11946873   0.768   4.966   6.893 -2.5539 -0.5399  0.8431
   98MOL   H12046874   0.933   4.591   6.728 -1.2364 -1.4189  1.6374
   98MOL   H12146875   0.711   4.516   6.684 -0.3437 -1.0794  1.2311
   98MOL   C12246876   1.167   4.679   6.828 -0.3782 -0.4896 -0.4256
   98MOL   C12346877   1.247   4.586   6.906  0.0512 -0.6293 -0.0692
   98MOL   C12446878   1.221   4.569   7.045  0.6304  0.3700 -0.2736
   98MOL   C12546879   1.127   4.653   7.107  0.8824 -0.7708 -0.3465
   98MOL   C12646880   1.057   4.750   7.031  0.5826  0.3528  0.0606
   98MOL   C12746881   1.081   4.763   6.891  0.0312 -0.1030 -0.5902
   98MOL   S12846882   1.317   4.433   7.131  0.2294 -0.1862 -0.1743
   98MOL   O12946883   1.376   4.356   7.024  0.3183  0.3201 -0.8904
   98MOL   O13046884   1.227   4.366   7.227  0.2737  0.2672  0.1203
   98MOL   C13146885   1.448   4.518   7.208  0.1009  0.5967 -0.3817
   98MOL   C13246886   1.541   4.591   7.134 -0.2139 -0.4866 -0.4921
   98MOL   C13346887   1.646   4.665   7.199  0.5869  0.1888 -0.1685
   98MOL   C13446888   1.645   4.667   7.340  0.1928  0.6492 -0.8190
   98MOL   C13546889   1.553   4.591   7.411  0.8324  0.8023 -0.1663
   98MOL   C13646890   1.451   4.518   7.348 -0.0455  0.3040 -0.2565
   98MOL   O13746891   1.737   4.738   7.414  0.0275  0.2220 -0.3510
   98MOL   H13846892   1.177   4.670   6.721  1.2307  0.7288 -0.3993
   98MOL   H13946893   1.317   4.521   6.858 -0.8513  0.7860 -3.4361
   98MOL   H14046894   1.100   4.634   7.210  4.2197  2.4207  1.2168
   98MOL   H14146895   0.996   4.824   7.081  1.4129  0.8410  0.3588
   98MOL   H14246896   1.532   4.604   7.027  0.5371 -0.1120 -0.5184
   98MOL   H14346897   1.721   4.716   7.140  0.6925 -0.5739 -0.7026
   98MOL   H14446898   1.562   4.589   7.519 -0.2332 -1.1087 -0.0873
   98MOL   H14546899   1.377   4.460   7.401 -0.6751 -1.8111 -3.2871
   98MOL   C14646900   1.697   4.963   7.384 -0.2391  0.1314 -0.9069
   98MOL   C14746901   1.642   5.085   7.426 -0.3422  0.0365  0.0830
   98MOL   C14846902   1.589   5.089   7.554  0.5735 -0.2494 -0.2083
   98MOL   C14946903   1.596   4.980   7.643  0.5411  0.7517  0.1481
   98MOL   C15046904   1.651   4.860   7.601 -0.4059  0.1385 -0.1058
   98MOL   C15146905   1.694   4.849   7.465  0.1226 -0.6545  0.1664
   98MOL   S15246906   1.519   5.239   7.614  0.0831 -0.4775 -0.3849
   98MOL   O15346907   1.592   5.352   7.551 -0.1008 -0.0512 -0.0054
   98MOL   O15446908   1.509   5.226   7.761 -0.3161 -0.1662  0.5412
   98MOL   C15546909   1.344   5.243   7.568 -0.3191 -0.3434 -0.1026
   98MOL   C15646910   1.272   5.119   7.545 -0.3128 -0.4068  0.1760
   98MOL   C15746911   1.140   5.125   7.509  0.8127  0.6412 -0.4205
   98MOL   C15846912   1.066   5.250   7.511 -0.5164  0.5100  0.7148
   98MOL   C15946913   1.140   5.372   7.540  0.2107 -0.3338  0.4462
   98MOL   C16046914   1.275   5.364   7.575 -0.9509 -0.4638 -0.2550
   98MOL   O16146915   0.934   5.268   7.486 -0.3887  0.3613  0.3958
   98MOL   H16246916   1.733   4.942   7.284  1.1069  0.7542 -0.5587
   98MOL   H16346917   1.651   5.171   7.361  0.8634 -0.8294 -0.9198
   98MOL   H16446918   1.562   4.986   7.746  0.0717  0.0186  0.0372
   98MOL   H16546919   1.649   4.774   7.667  3.7585  1.5786  2.1347
   98MOL   H16646920   1.322   5.024   7.553 -1.2712 -0.9066  0.3364
   98MOL   H16746921   1.081   5.036   7.491 -1.1863  1.6469  0.9935
   98MOL   H16846922   1.083   5.463   7.538 -0.4034 -0.6617  1.9425
   98MOL   H16946923   1.338   5.444   7.612 -1.4093 -0.2920  0.1588
   98MOL   C17046924   0.801   5.107   7.608  0.3207 -0.2076 -0.1151
   98MOL   C17146925   0.701   5.011   7.602  0.6137  0.6621  0.1737
   98MOL   C17246926   0.648   4.966   7.483  0.1196  0.0717  0.4079
   98MOL   C17346927   0.678   5.037   7.362  0.9641 -0.8522 -0.2266
   98MOL   C17446928   0.781   5.137   7.367 -0.1799 -0.4378 -0.5499
   98MOL   C17546929   0.842   5.166   7.486  0.1488  0.5390  0.0347
   98MOL   S17646930   0.532   4.827   7.479  0.2430 -0.0064  0.0750
   98MOL   O17746931   0.400   4.891   7.463 -0.1611  0.5427 -0.0740
   98MOL   O17846932   0.551   4.751   7.599 -0.4267  0.0501  0.1402
   98MOL   C17946933   0.576   4.729   7.335 -0.8125 -0.3256 -1.1733
   98MOL   C18046934   0.475   4.656   7.273  0.0429  0.1256  0.4786
   98MOL   C18146935   0.506   4.565   7.167 -0.3215 -0.1150  0.2196
   98MOL   C18246936   0.641   4.555   7.123 -0.1117  0.5368  0.8784
   98MOL   C18346937   0.741   4.627   7.190  0.1705 -0.2209 -0.0683
   98MOL   C18446938   0.708   4.717   7.295  0.3086 -0.2390  0.1216
   98MOL   O18546939   0.673   4.479   7.020 -0.0057  0.2074  0.1879
   98MOL   H18646940   0.840   5.156   7.696 -0.0615 -0.8448  0.4143
   98MOL   H18746941   0.672   4.967   7.697  1.9480  0.4686  0.5074
   98MOL   H18846942   0.624   5.023   7.269  0.5782  0.9486 -0.2949
   98MOL   H18946943   0.813   5.184   7.275  0.0785 -0.4443 -0.4630
   98MOL   H19046944   0.374   4.668   7.309 -0.3072 -2.1522  0.3344
   98MOL   H19146945   0.437   4.504   7.109 -0.4453  1.5192 -1.3888
   98MOL   H19246946   0.843   4.630   7.153 -0.5621  0.5819 -2.0851
   98MOL   H19346947   0.788   4.774   7.341 -0.2110 -1.9177  3.2111
   98MOL   C19446948   0.605   4.250   6.987 -0.0417 -0.3532  0.3595
   98MOL   C19546949   0.613   4.111   7.019  0.0767 -0.4745 -0.0556
   98MOL   C19646950   0.704   4.074   7.115 -0.1693 -0.5140 -0.0175
   98MOL   C19746951   0.787   4.166   7.188  0.2558 -0.4239 -0.5906
   98MOL   C19846952   0.778   4.301   7.157  0.1353 -0.2180 -0.1725
   98MOL   C19946953   0.687   4.349   7.054 -0.6533 -0.0880  0.7917
   98MOL   S20046954   0.708   3.901   7.137 -0.0261  0.2649  0.0753
   98MOL   O20146955   0.797   3.841   7.038  0.5268 -0.4337 -0.8576
   98MOL   O20246956   0.568   3.857   7.134 -0.2139 -0.4443 -0.5337
   98MOL   C20346957   0.779   3.865   7.293 -0.5269 -0.2360 -0.0144
   98MOL   C20446958   0.913   3.902   7.323  0.8655 -0.3239  0.5341
   98MOL   C20546959   0.960   3.858   7.445 -0.2530 -0.4699 -0.8873
   98MOL   C20646960   0.872   3.795   7.547 -0.5482  0.1002  0.4670
   98MOL   C20746961   0.737   3.780   7.518 -0.1335 -0.3676 -0.4880
   98MOL   C20846962   0.693   3.812   7.389  0.2759  0.0883  0.3848
   98MOL   O20946963   0.928   3.773   7.668 -0.3087  0.0996  0.0418
   98MOL   H21046964   0.533   4.287   6.916 -0.2734  1.2232  1.3854
   98MOL   H21146965   0.551   4.037   6.969 -0.5762 -0.0003  0.0466
   98MOL   H21246966   0.853   4.140   7.270 -1.5410  1.1906  1.4316
   98MOL   H21346967   0.844   4.371   7.204 -1.1224  1.0866 -0.3266
   98MOL   H21446968   0.976   3.939   7.243 -1.2034  1.2030 -0.4626
   98MOL   H21546969   1.064   3.862   7.474 -0.6927 -3.1904  1.3295
   98MOL   H21646970   0.665   3.753   7.594  0.7263  1.6509  1.0933
   98MOL   H21746971   0.588   3.798   7.364  0.5418 -0.0792 -0.6856
   98MOL   C21846972   0.810   3.772   7.882 -0.8736 -0.3659 -0.3936
   98MOL   C21946973   0.721   3.703   7.967  0.3296  0.4118  0.5844
   98MOL   C22046974   0.685   3.573   7.939  0.2009 -0.1520 -0.4695
   98MOL   C22146975   0.735   3.497   7.830  0.1969 -0.3927  0.3881
   98MOL   C22246976   0.828   3.566   7.748  0.8708 -0.0237 -0.1400
   98MOL   C22346977   0.857   3.703   7.766  0.1779 -0.1299  0.0542
   98MOL   S22446978   0.557   3.502   8.046 -0.0400 -0.0987  0.2287
   98MOL   O22546979   0.562   3.559   8.181  0.3010 -0.1590  0.3754
   98MOL   O22646980   0.566   3.353   8.041  0.3753  0.0983 -0.3324
   98MOL   C22746981   0.405   3.545   7.966 -0.5769 -0.3181  0.5398
   98MOL   C22846982   0.339   3.659   8.005 -0.2163  0.7773 -0.1222
   98MOL   C22946983   0.233   3.699   7.931  0.6482 -0.0628 -0.0915
   98MOL   C23046984   0.184   3.628   7.825  0.0396 -0.4286  0.4497
   98MOL   C23146985   0.242   3.508   7.795  0.2581 -0.2272 -0.0637
   98MOL   C23246986   0.357   3.465   7.863 -0.0899  0.4443  0.4135
   98MOL   O23346987   0.080   3.671   7.750 -0.5172 -0.1055  0.0259
   98MOL   H23446988   0.838   3.873   7.907 -0.7238  0.0992 -2.3831
   98MOL   H23546989   0.674   3.751   8.052 -1.4782  0.2135 -0.2832
   98MOL   H23646990   0.690   3.405   7.795 -1.6235  1.4497 -2.2932
   98MOL   H23746991   0.869   3.506   7.669 -1.2902 -0.5708 -0.8761
   98MOL   H23846992   0.378   3.711   8.091 -3.1533  2.8481  0.0418
   98MOL   H23946993   0.183   3.791   7.957 -1.6090 -1.1365 -0.5281
   98MOL   H24046994   0.194   3.447   7.720  0.5073 -2.1654  1.3238
   98MOL   H24146995   0.409   3.374   7.835  0.6630  1.4716 -1.6017
   98MOL   C24246996   8.276   3.598   7.738  0.0475  0.0842 -0.0907
   98MOL   C24346997   8.147   3.583   7.794 -0.0816 -0.0140 -0.6339
   98MOL   C24446998   8.118   3.637   7.922 -0.0493 -0.5045  0.4342
   98MOL   C24546999   8.212   3.718   7.985  0.2929  0.0825 -0.6040
   98MOL   C24647000   8.336   3.739   7.921  0.1034 -0.1947  0.1709
   98MOL   C24747001   8.379   3.666   7.805 -0.0913  0.3923 -0.1345
   98MOL   S24847002   7.961   3.605   8.004 -0.1833  0.5702  0.2526
   98MOL   O24947003   7.927   3.715   8.098  0.7584  0.2164  0.2068
   98MOL   O25047004   7.965   3.472   8.068  0.1346 -0.2965  0.0170
   98MOL   C25147005   7.838   3.600   7.876  0.6288  0.0986  0.2949
   98MOL   C25247006   7.773   3.483   7.839  0.5543 -0.0010 -0.7237
   98MOL   C25347007   7.681   3.486   7.731  1.0863  0.2749 -1.2722
   98MOL   C25447008   7.655   3.606   7.660 -0.1508  0.4948 -0.1331
   98MOL   C25547009   7.712   3.721   7.702 -0.0962 -0.5082  0.0255
   98MOL   C25647010   7.803   3.719   7.810 -0.2753  0.2477  0.5746
   98MOL   O25747011   7.557   3.618   7.567 -0.2627 -0.0360 -0.3693
   98MOL   H25847012   8.292   3.542   7.647  0.8282 -0.4510  0.3677
   98MOL   H25947013   8.076   3.525   7.737  1.2471 -0.5711 -1.7347
   98MOL   H26047014   8.187   3.773   8.074 -0.1122  0.4601 -0.9456
   98MOL   H26147015   8.402   3.810   7.969  0.0178  1.3948 -1.9702
   98MOL   H26247016   7.796   3.388   7.886 -1.2356  0.2049  0.6141
   98MOL   H26347017   7.624   3.399   7.703 -0.3279  1.2533 -1.5103
   98MOL   H26447018   7.680   3.817   7.664 -1.0252 -0.7560  0.1676
   98MOL   H26547019   7.839   3.817   7.836  2.0756 -0.3105 -0.4558
   98MOL   C26647020   7.354   3.471   7.539 -0.6385  0.1931  0.5014
   98MOL   C26747021   7.221   3.435   7.582 -0.4882  0.6790  1.0969
   98MOL   C26847022   7.159   3.515   7.678  0.4006  0.0404  0.9999
   98MOL   C26947023   7.223   3.632   7.731 -0.2439 -0.0651 -0.4010
   98MOL   C27047024   7.355   3.659   7.698 -0.2882 -0.0262 -0.1216
   98MOL   C27147025   7.424   3.577   7.603  0.3018 -0.7914  0.1855
   98MOL   S27247026   6.982   3.491   7.713 -0.2626 -0.6844  0.2151
   98MOL   O27347027   6.964   3.347   7.726 -0.3539  0.2685 -0.1019
   98MOL   O27447028   6.901   3.567   7.620  0.0947 -0.0811  0.1367
   98MOL   C27547029   6.948   3.559   7.876  0.6971  0.8897  0.4120
   98MOL   C27647030   6.952   3.477   7.991  0.7674  0.4025 -0.4086
   98MOL   C27747031   6.928   3.540   8.117 -0.4035 -0.1954  0.3160
   98MOL   C27847032   6.889   3.676   8.126 -0.1391 -0.1341  0.0168
   98MOL   C27947033   6.879   3.749   8.008 -0.1514  0.5302  0.6890
   98MOL   C28047034   6.908   3.695   7.881 -0.1368  0.7240  0.6245
   98MOL   O28147035   6.886   3.738   8.245 -0.1622 -0.0952  0.9885
   98MOL   H28247036   7.395   3.429   7.448  1.1631 -1.4388  2.0309
   98MOL   H28347037   7.162   3.360   7.532  0.0824  0.0612  1.3362
   98MOL   H28447038   7.175   3.694   7.805 -0.3267  2.0996 -2.2302
   98MOL   H28547039   7.400   3.748   7.740  1.5062 -0.6841 -0.5693
   98MOL   H28647040   6.984   3.374   7.989 -0.3394  0.0393 -0.1260
   98MOL   H28747041   6.945   3.475   8.202  0.9034  1.2128  1.1536
   98MOL   H28847042   6.850   3.853   8.007  0.8452  0.8406 -2.3518
   98MOL   H28947043   6.907   3.751   7.788  4.0256 -1.4247 -0.8456
   98MOL   C29047044   7.024   3.785   0.016  0.4054 -0.3496  0.5251
   98MOL   C29147045   7.140   3.844   0.069 -0.6359 -0.1900  0.3935
   98MOL   C29247046   7.239   3.899   8.410  0.0804 -0.1231  0.1465
   98MOL   C29347047   7.214   3.915   8.276  0.4338  0.0643  0.0715
   98MOL   C29447048   7.096   3.861   8.220 -0.1754  0.1257  0.2529
   98MOL   C29547049   6.999   3.794   8.300  0.3152  0.2669 -0.6217
   98MOL   S29647050   7.390   3.961   0.057 -0.3773  0.2074  0.2001
   98MOL   O29747051   7.454   3.851   0.130  0.3918  0.8085 -0.1196
   98MOL   O29847052   7.365   4.086   0.131 -0.6530  0.4224 -0.7050
   98MOL   C29947053   7.496   3.998   8.336 -0.3253  0.3192 -1.0600
   98MOL   C30047054   7.576   3.895   8.281 -0.7762  0.4240  0.6652
   98MOL   C30147055   7.646   3.918   8.160 -0.6074  0.2974  0.7756
   98MOL   C30247056   7.634   4.044   8.098  0.6665 -0.4062 -0.2322
   98MOL   C30347057   7.561   4.151   8.158  0.3000  0.0528 -0.4534
   98MOL   C30447058   7.485   4.119   8.271  0.1543  0.0563  0.4007
   98MOL   O30547059   7.710   4.075   7.991  0.4607  0.5971 -0.0082
   98MOL   H30647060   6.955   3.731   0.079  0.7863  0.0801  1.3169
   98MOL   H30747061   7.162   3.844   0.175 -0.1956 -1.6708  0.3077
   98MOL   H30847062   7.290   3.955   8.210  1.2853  0.6644  1.3965
   98MOL   H30947063   7.082   3.868   8.113 -0.5455  1.9752  0.4036
   98MOL   H31047064   7.590   3.808   8.343 -1.5344  1.6262  2.5645
   98MOL   H31147065   7.716   3.847   8.118 -0.7459  0.2902  0.5550
   98MOL   H31247066   7.561   4.255   8.127 -0.7666 -0.0751 -0.9142
   98MOL   H31347067   7.417   4.192   8.312 -0.6471 -1.3516  1.6028
   98MOL   C31447068   7.867   4.252   7.962  0.0076  0.1369 -0.0219
   98MOL   C31547069   7.998   4.304   7.971  0.5294  0.7751  0.3689
   98MOL   C31647070   8.088   4.238   8.056  0.4777 -0.1371  0.5742
   98MOL   C31747071   8.048   4.123   8.130 -0.5901 -0.3129 -0.0490
   98MOL   C31847072   7.920   4.065   8.107 -0.0750  0.3652  0.2329
   98MOL   C31947073   7.829   4.131   8.020 -0.6917  0.4292 -0.2633
   98MOL   S32047074   8.250   4.316   8.065  0.4447 -0.1370 -0.1852
   98MOL   O32147075   8.234   4.439   8.147  0.4517  0.0585  0.3641
   98MOL   O32247076   8.310   4.319   7.928  0.5476  0.0996  0.1195
   98MOL   C32347077   8.354   4.219   8.169  0.4187 -0.1947 -0.2724
   98MOL   C32447078   8.425   4.108   8.109 -0.8954 -0.2344  0.8601
   98MOL   C32547079   0.078   4.025   8.186  0.3094 -0.7989  0.1420
   98MOL   C32647080   0.089   4.058   8.325  0.4326 -0.0030 -0.2771
   98MOL   C32747081   0.027   4.171   8.382 -0.7941  0.3793 -0.1325
   98MOL   C32847082   8.366   4.250   8.306  0.1181  0.3631  0.2118
   98MOL   O32947083   0.167   3.980   8.407 -0.3510  0.2168  0.1912
   98MOL   H33047084   7.790   4.306   7.908  1.6940  1.7606 -0.8854
   98MOL   H33147085   8.030   4.401   7.935  0.7137  0.4697 -0.3021
   98MOL   H33247086   8.121   4.075   8.193  1.5086  3.0070  0.1655
   98MOL   H33347087   7.886   3.980   8.165 -0.8372  0.5709  0.0972
   98MOL   H33447088   0.006   4.089   8.003 -0.7799 -0.5786  0.9256
   98MOL   H33547089   0.130   3.944   8.138 -2.4999 -1.8872 -1.1848
   98MOL   H33647090   0.057   4.195   0.058  2.2954  0.0674 -0.9438
   98MOL   H33747091   8.317   4.335   8.350  0.5604  0.3291  0.7857
   98MOL   C33847092   0.361   3.905   8.302 -0.0670  0.2720  0.2201
   98MOL   C33947093   0.502   3.907   8.283 -0.0090 -0.2095  0.2805
   98MOL   C34047094   0.586   3.993   8.359  0.5682 -0.1202 -0.5280
   98MOL   C34147095   0.514   4.087   0.017 -0.2874  0.2806  0.0357
   98MOL   C34247096   0.377   4.080   0.040 -0.5790 -0.0693  0.0997
   98MOL   C34347097   0.298   3.992   8.389 -0.1622  0.1050  0.4354
   98MOL   S34447098   0.766   3.999   8.329  0.2306  0.4448 -0.1599
   98MOL   O34547099   0.827   4.124   8.380 -0.6747  0.2672  0.1126
   98MOL   O34647100   0.784   3.972   8.185 -0.4404 -0.2228  0.3364
   98MOL   C34747101   0.833   3.850   8.419 -0.0270 -0.2096  0.2354
   98MOL   C34847102   0.763   3.729   8.420  0.0083 -0.3771 -0.1977
   98MOL   C34947103   0.819   3.611   0.056 -0.1688 -0.0670 -0.4305
   98MOL   C35047104   0.949   3.620   0.108 -0.2516 -0.0751 -0.2597
   98MOL   C35147105   1.019   3.741   0.119 -0.4908 -1.0616 -0.6738
   98MOL   C35247106   0.955   3.861   0.062 -0.2238  0.0471  0.4630
   98MOL   O35347107   0.992   3.492   0.135 -0.0150 -0.2614  0.9785
   98MOL   H35447108   0.301   3.832   8.249  1.3888 -1.2053  0.5802
   98MOL   H35547109   0.546   3.838   8.212 -0.2690 -0.8535  0.7426
   98MOL   H35647110   0.574   4.162   0.067  0.1390 -0.3329  0.4596
   98MOL   H35747111   0.333   4.145   0.114 -0.8689  0.6325 -0.6778
   98MOL   H35847112   0.671   3.709   8.367 -0.0047 -1.8201  0.3264
   98MOL   H35947113   0.767   3.517   0.047  1.0435 -0.6951 -0.9880
   98MOL   H36047114   1.110   3.755   0.174 -1.2175  0.6018  0.1171
   98MOL   H36147115   1.000   3.959   0.058  0.1721 -0.2092 -1.8791
   98MOL   C36247116   1.220   3.458   0.177  0.7060  0.1604 -0.0102
   98MOL   C36347117   1.348   3.417   0.129 -0.2844  0.2614  0.0658
   98MOL   C36447118   1.350   3.354   0.005 -0.7810  0.0117  0.1795
   98MOL   C36547119   1.237   3.337   8.342 -1.0633  0.6751  0.2726
   98MOL   C36647120   1.120   3.398   8.391  0.3135  0.1007 -0.0426
   98MOL   C36747121   1.112   3.456   0.088  0.4860  0.0868  0.2592
   98MOL   S36847122   1.501   3.284   8.377  0.3744 -0.0844 -0.2751
   98MOL   O36947123   1.597   3.335   0.051  0.9569  0.1293 -0.6802
   98MOL   O37047124   1.516   3.308   8.232  0.2475 -0.3971  0.4155
   98MOL   C37147125   1.474   3.115   8.405 -0.8465  0.4926  0.6099
   98MOL   C37247126   1.578   3.030   8.357 -0.3647  0.0294 -0.0021
   98MOL   C37347127   1.559   2.890   8.374  0.0739 -0.3059 -0.0428
   98MOL   C37447128   1.447   2.831   0.009 -0.0465 -0.6527  0.3674
   98MOL   C37547129   1.338   2.915   0.048 -0.6820 -0.2991  0.0792
   98MOL   C37647130   1.354   3.053   0.024 -0.1910  0.1141 -0.1766
   98MOL   O37747131   1.453   2.696   0.044  0.2021 -0.6362 -0.1779
   98MOL   H37847132   1.207   3.509   0.271 -0.8882 -1.5925  0.7321
   98MOL   H37947133   1.436   3.424   0.191  1.7663 -4.7524 -2.0244
   98MOL   H38047134   1.247   3.292   8.245 -1.2805  1.3127 -0.0494
   98MOL   H38147135   1.037   3.409   8.323  0.2336 -1.4044 -0.1898
   98MOL   H38247136   1.666   3.080   8.321  0.2987 -2.0478 -1.3550
   98MOL   H38347137   1.646   2.826   8.366  0.5355 -0.0763  2.4773
   98MOL   H38447138   1.246   2.875   0.088 -1.1639  0.5123 -0.2204
   98MOL   H38547139   1.273   3.112   0.065 -0.0627  0.3146 -0.2132
   98MOL   C38647140   1.514   2.573   8.277 -0.4067 -0.9513  0.3441
   98MOL   C38747141   1.485   2.493   8.168 -0.4644  0.0708 -0.0550
   98MOL   C38847142   1.353   2.465   8.133  0.4800 -0.6173 -0.0700
   98MOL   C38947143   1.245   2.504   8.222 -0.1537 -0.7891  0.1367
   98MOL   C39047144   1.280   2.596   8.333 -0.3709 -0.4101 -0.4903
   98MOL   C39147145   1.418   2.616   8.366  0.8230 -0.1653  0.3505
   98MOL   S39247146   1.302   2.355   8.006 -0.1404 -0.0517 -0.0875
   98MOL   O39347147   1.164   2.312   8.024 -0.1504 -0.4809 -0.3433
   98MOL   O39447148   1.410   2.258   7.983  0.2992  0.2608 -1.0318
   98MOL   C39547149   1.305   2.462   7.852 -0.4473  0.2135  0.2661
   98MOL   C39647150   1.181   2.510   7.812 -0.2333  0.6723  0.8603
   98MOL   C39747151   1.165   2.582   7.687  0.1556 -0.9521 -0.0001
   98MOL   C39847152   1.278   2.603   7.615 -1.1112 -0.1918 -0.4552
   98MOL   C39947153   1.399   2.541   7.651  0.2118  0.1516 -0.1574
   98MOL   C40047154   1.419   2.472   7.771  0.4090  0.9778  0.4845
   98MOL   O40147155   1.281   2.687   7.503  0.7663 -0.2432  0.2320
   98MOL   H40247156   1.617   2.573   8.308 -0.4994 -0.9492  0.6463
   98MOL   H40347157   1.568   2.460   8.107 -1.4227 -2.3619 -0.1322
   98MOL   H40447158   1.141   2.486   8.200  0.4007 -0.6407 -2.7018
   98MOL   H40547159   1.199   2.636   8.391 -1.2998 -1.9923 -0.6667
   98MOL   H40647160   1.092   2.495   7.872 -1.5480  1.0222 -0.9811
   98MOL   H40747161   1.072   2.628   7.659  1.6300  0.8248 -2.1419
   98MOL   H40847162   1.487   2.554   7.590  0.4043  0.1208  0.1125
   98MOL   H40947163   1.515   2.434   7.800  0.3158 -0.4298 -1.0015
   98MOL   C41047164   1.066   2.791   7.463 -0.3041 -0.0715  0.3567
   98MOL   C41147165   0.988   2.904   7.476 -0.0248  0.2393 -0.5453
   98MOL   C41247166   1.039   3.014   7.545 -0.2178  0.1010 -1.2876
   98MOL   C41347167   1.172   3.020   7.582 -0.0120  0.1280  0.6784
   98MOL   C41447168   1.252   2.912   7.571  0.8646 -0.1871  0.5885
   98MOL   C41547169   1.205   2.800   7.502  0.1654  0.0061  0.0793
   98MOL   S41647170   0.927   3.160   7.578 -0.1335  0.3178 -0.1432
   98MOL   O41747171   0.812   3.149   7.488  0.2077  0.3765 -0.0422
   98MOL   O41847172   0.997   3.289   7.579 -0.5723 -0.3870  0.5130
   98MOL   C41947173   0.855   3.130   7.740 -0.1832  0.0725 -0.2264
   98MOL   C42047174   0.932   3.084   7.847 -0.2341 -0.5637  0.2188
   98MOL   C42147175   0.862   3.038   7.966 -0.2187 -0.3533 -0.4147
   98MOL   C42247176   0.726   3.046   7.973  0.4736  0.2025  0.3360
   98MOL   C42347177   0.647   3.109   7.874  0.5154  0.1484  0.1170
   98MOL   C42447178   0.718   3.147   7.757 -0.1869 -0.0006  0.5210
   98MOL   O42547179   0.674   2.991   8.090  0.2953 -0.1500  0.1753
   98MOL   H42647180   1.036   2.705   7.405 -0.9656  0.7580 -0.5518
   98MOL   H42747181   0.884   2.902   7.445  0.1387 -1.1034 -1.0228
   98MOL   H42847182   1.201   3.105   7.641  2.2456  0.9926 -1.6198
   98MOL   H42947183   1.352   2.908   7.614  0.6931  0.4045  1.0472
   98MOL   H43047184   1.040   3.076   7.849  0.1127  3.1735  1.0303
   98MOL   H43147185   0.925   3.004   8.047  0.6521  3.7100  0.7337
   98MOL   H43247186   0.540   3.119   7.882  0.4523 -0.3400 -0.1479
   98MOL   H43347187   0.670   3.188   7.670 -1.9910  0.4892  1.7234
   98MOL   C43447188   0.440   3.020   8.148  0.5906 -0.6427 -0.3836
   98MOL   C43547189   0.310   2.974   8.141 -0.4400 -0.2633 -0.1305
   98MOL   C43647190   0.276   2.868   8.062 -0.8322  0.0332  0.1239
   98MOL   C43747191   0.376   2.794   7.990  0.1771  0.1925 -0.6716
   98MOL   C43847192   0.511   2.834   8.012 -0.7653  0.1476 -0.1817
   98MOL   C43947193   0.545   2.947   8.086  0.0947 -0.3407  0.1250
   98MOL   S44047194   0.095   2.823   8.060  0.2555  0.2291 -0.3195
   98MOL   O44147195   0.031   2.881   7.939  0.2317 -0.3402  0.0912
   98MOL   O44247196   0.035   2.850   8.192  0.3919  0.0565  0.3386
   98MOL   C44347197   0.085   2.642   8.050 -0.0075  0.2465  0.0319
   98MOL   C44447198   0.036   2.582   7.937 -0.5729 -0.0143 -0.0012
   98MOL   C44547199   0.016   2.441   7.934  0.4307 -0.1488 -0.5066
   98MOL   C44647200   0.029   2.365   8.049 -0.6570  0.1425 -0.0456
   98MOL   C44747201   0.080   2.429   8.163 -0.5985  0.0994  0.2567
   98MOL   C44847202   0.107   2.567   8.168 -1.3251 -0.2599  0.2299
   98MOL   O44947203   0.009   2.228   8.040 -0.1611 -0.0950 -0.1560
   98MOL   H45047204   0.465   3.107   8.207  2.9327 -1.6422  0.1553
   98MOL   H45147205   0.230   3.018   8.198 -1.0434 -2.0837  0.4593
   98MOL   H45247206   0.355   2.700   7.941 -0.8578 -0.4076  0.8598
   98MOL   H45347207   0.588   2.765   7.980 -0.1277  0.3189  0.9591
   98MOL   H45447208   0.022   2.646   7.851 -1.6925  1.1593  1.0362
   98MOL   H45547209   8.410   2.405   7.837 -0.4838  1.7769 -0.9476
   98MOL   H45647210   0.090   2.381   8.259 -0.2083  1.5344  0.9521
   98MOL   H45747211   0.128   2.609   8.265 -1.8796 -0.4196  0.4208
   98MOL   C45847212   0.021   2.100   8.250 -0.0963  0.3359 -0.0794
   98MOL   C45947213   8.375   2.041   8.356 -0.2622  0.1231 -0.3260
   98MOL   C46047214   8.227   2.037   8.359  0.2908  0.2886  0.7329
   98MOL   C46147215   8.158   2.082   8.244 -0.4117 -0.0459 -0.5293
   98MOL   C46247216   8.232   2.140   8.139  0.2328 -0.2761 -0.1205
   98MOL   C46347217   8.371   2.155   8.141  0.4489  0.3964 -0.1910
   98MOL   S46447218   8.139   1.982   0.082 -0.6735  0.0345  0.1347
   98MOL   O46547219   8.026   2.070   0.106  0.0185  0.1102  0.2744
   98MOL   O46647220   8.241   1.964   0.188  0.4338  0.1306 -0.3508
   98MOL   C46747221   8.077   1.814   0.048 -0.2448  0.0070 -0.6076
   98MOL   C46847222   8.163   1.708   0.004  0.2753 -0.5366 -0.5040
   98MOL   C46947223   8.114   1.578   8.414  0.2978  0.1061 -0.3137
   98MOL   C47047224   7.971   1.558   0.007 -0.5004 -0.4467 -0.4775
   98MOL   C47147225   7.889   1.666   0.046  0.4973  0.3555  0.4491
   98MOL   C47247226   7.935   1.794   0.064 -0.6048  1.0965 -0.4008
   98MOL   O47347227   7.910   1.433   0.011 -0.3057 -0.2624 -0.6171
   98MOL   H47447228   0.128   2.111   8.261 -0.1480  0.1594  0.5953
   98MOL   H47547229   0.010   2.013   0.016 -1.5514  1.0719  0.9222
   98MOL   H47647230   8.052   2.087   8.267 -0.7386 -0.2328 -2.0007
   98MOL   H47747231   8.177   2.183   8.056  0.3046  1.9336  0.9395
   98MOL   H47847232   8.269   1.723   8.419  0.0469  2.1489  0.7166
   98MOL   H47947233   8.174   1.492   8.389 -0.5560 -1.6066  3.1637
   98MOL   H48047234   7.784   1.646   0.057  0.1739  1.1021 -1.1224
   98MOL   H48147235   7.872   1.873   0.102 -1.0196  0.5285  0.1041
   98MOL   H48247236   7.971   1.364   8.415 -1.0857 -0.5029 -2.1315
   99MOL     C147237   1.187   6.230   4.434 -0.0157 -0.3137  0.0487
   99MOL     C247238   1.232   6.367   4.416  0.2040  1.3582  0.2408
   99MOL     C347239   1.274   6.409   4.289 -0.2550 -0.0634  0.9261
   99MOL     C447240   1.275   6.313   4.184 -0.0558  0.1485 -0.3468
   99MOL     C547241   1.243   6.177   4.205  0.0253  0.3249  0.1437
   99MOL     C647242   1.198   6.138   4.328  0.7470  0.1058  0.7285
   99MOL     S747243   1.308   6.578   4.256  0.5084 -0.0585 -0.1695
   99MOL     O847244   1.260   6.607   4.122  0.5143 -0.1820  0.6571
   99MOL     O947245   1.452   6.587   4.292 -0.2581 -0.6603  0.3060
   99MOL    C1047246   1.214   6.673   4.377  0.6137  0.0449 -0.3264
   99MOL    C1147247   1.259   6.705   4.503 -0.5743  0.3025  0.1539
   99MOL    C1247248   1.177   6.771   4.593  0.2596  0.0242 -0.0712
   99MOL    C1347249   1.051   6.817   4.555 -0.2041  0.1906  0.6292
   99MOL    C1447250   0.999   6.785   4.427 -0.5914  0.5827 -0.2586
   99MOL    C1547251   1.082   6.709   4.345 -0.1345  0.2178  0.3178
   99MOL    O1647252   0.966   6.886   4.638  0.5386 -0.0663  0.6858
   99MOL    H1747253   1.145   6.198   4.528  2.2170 -2.6191  0.3150
   99MOL    H1847254   1.227   6.442   4.494  0.8882  0.1491  1.4516
   99MOL    H1947255   1.304   6.364   4.093  1.9697  1.5973  1.0727
   99MOL    H2047256   1.249   6.113   4.118  0.6425  0.7774 -0.1504
   99MOL    H2147257   1.361   6.674   4.524 -0.6897 -0.4276 -0.3713
   99MOL    H2247258   1.224   6.795   4.687 -0.8932  0.9010  0.3108
   99MOL    H2347259   0.896   6.812   4.408 -1.1321 -0.0910  1.5947
   99MOL    H2447260   1.044   6.677   4.249 -1.6918 -0.9310  1.2912
   99MOL    H2547261   1.159   6.037   4.328  0.3882  0.1820 -2.5480
   99MOL    C2647262   1.040   6.918   4.857 -0.0425  0.1717 -0.3812
   99MOL    C2747263   1.094   7.002   4.954  1.0372 -0.0175 -0.8423
   99MOL    C2847264   1.133   7.136   4.926  0.7709 -0.7545  0.2581
   99MOL    C2947265   1.126   7.185   4.791  0.0198 -0.2972  0.6879
   99MOL    C3047266   1.066   7.096   4.699 -0.7093 -0.9179 -0.3280
   99MOL    C3147267   1.025   6.969   4.728 -0.2400 -1.1832 -0.4441
   99MOL    S3247268   1.198   7.242   5.051 -0.4559 -0.3146  0.0945
   99MOL    O3347269   1.315   7.317   5.001 -0.1040  0.1739  0.2862
   99MOL    O3447270   1.205   7.161   5.178  0.0958 -0.4046 -0.1269
   99MOL    C3547271   1.066   7.366   5.062 -0.2452  0.1153 -0.2625
   99MOL    C3647272   1.100   7.503   5.051  0.0732 -0.0997  0.5691
   99MOL    C3747273   0.999   7.601   5.038  0.5925  0.3249 -0.2962
   99MOL    C3847274   0.863   7.563   5.045  0.1195  0.4801  0.0035
   99MOL    C3947275   0.829   7.425   5.071 -0.1422 -0.1936 -0.3131
   99MOL    C4047276   0.930   7.329   5.073  0.8557  0.4100  0.2028
   99MOL    O4147277   0.768   7.665   5.049  0.1311  0.0441 -0.1550
   99MOL    H4247278   1.004   6.822   4.892 -1.4517  0.9740  0.3774
   99MOL    H4347279   1.097   6.966   5.056  2.2286 -0.2059 -0.9402
   99MOL    H4447280   1.152   7.284   4.755  0.4872 -0.5611  0.2959
   99MOL    H4547281   1.045   7.121   4.596  1.7687  0.5387 -0.5218
   99MOL    H4647282   1.205   7.526   5.054  0.2428 -0.8855  0.7929
   99MOL    H4747283   1.022   7.703   5.009 -0.5192  0.4842 -0.6329
   99MOL    H4847284   0.723   7.405   5.078  0.1740 -1.2197  1.8785
   99MOL    H4947285   0.899   7.226   5.086 -0.1271  0.9186  2.0848
   99MOL    C5047286   0.775   7.714   4.811 -0.1400 -0.0391 -0.4252
   99MOL    C5147287   0.707   7.728   4.688 -0.2748 -0.2965 -0.0376
   99MOL    C5247288   0.569   7.708   4.678  0.1180  0.0516 -0.1100
   99MOL    C5347289   0.499   7.677   4.795  0.6853  1.1754 -0.1510
   99MOL    C5447290   0.563   7.661   4.915 -0.6964  0.2972 -0.3943
   99MOL    C5547291   0.702   7.680   4.929  0.1819 -0.1315 -0.1111
   99MOL    S5647292   0.478   7.718   4.518  0.0686  0.6039  0.0532
   99MOL    O5747293   0.333   7.734   4.553  0.0168  0.4771 -0.5373
   99MOL    O5847294   0.526   7.614   4.431  0.8354  0.1639  0.5322
   99MOL    C5947295   0.532   7.873   4.459  0.0870  0.6567  0.2474
   99MOL    C6047296   0.481   7.997   4.517 -0.2045  0.7748  0.1624
   99MOL    C6147297   0.538   8.115   4.478  0.3795 -0.0100 -0.0918
   99MOL    C6247298   0.640   8.120   4.379  0.1293 -0.2228 -0.3871
   99MOL    C6347299   0.682   7.999   4.325 -0.2589 -0.9026 -0.2964
   99MOL    C6447300   0.631   7.873   4.359  0.1798 -0.0969  0.0626
   99MOL    O6547301   0.685   8.242   4.342 -0.6243  0.6310  0.2202
   99MOL    H6647302   0.883   7.721   4.817  0.0102 -3.0950  1.5504
   99MOL    H6747303   0.765   7.764   4.604  0.7544  0.4880  0.9962
   99MOL    H6847304   0.393   7.658   4.792  0.7538  0.6622  0.5660
   99MOL    H6947305   0.504   7.634   5.002 -0.8625  0.7379 -0.3685
   99MOL    H7047306   0.405   7.997   4.593  0.5248  1.4094  0.8946
   99MOL    H7147307   0.495   8.209   4.509  0.5247  0.8843 -2.5382
   99MOL    H7247308   0.764   8.012   4.256 -0.7217  3.6576 -0.1384
   99MOL    H7347309   0.664   7.780   4.314 -0.8776 -0.7216  0.5637
   99MOL    C7447310   0.930   8.262   4.356 -0.2370  0.2598  0.0739
   99MOL    C7547311   1.039   8.286   4.440 -1.2190 -0.6022  0.7651
   99MOL    C7647312   1.018   8.343   4.566  0.8015  0.0280  0.3435
   99MOL    C7747313   0.891   8.379   4.615 -0.4286  0.4525 -0.0138
   99MOL    C7847314   0.781   8.350   4.534  0.3375 -0.1003  0.6513
   99MOL    C7947315   0.797   8.291   4.404 -0.1457 -0.2121 -0.0354
   99MOL    S8047316   1.165   8.374   4.672  0.0207 -0.0436  0.3232
   99MOL    O8147317   1.134   0.075   4.748 -0.1474  0.5700 -0.2869
   99MOL    O8247318   1.286   8.381   4.589  0.4588 -0.0458 -0.3043
   99MOL    C8347319   1.168   8.226   4.781 -1.0313 -0.0454 -0.0682
   99MOL    C8447320   1.155   8.245   4.920  0.5850 -0.3111 -0.3473
   99MOL    C8547321   1.168   8.133   5.011 -0.2433  0.4036 -0.2703
   99MOL    C8647322   1.169   8.004   4.959 -0.0009  0.4652 -0.3867
   99MOL    C8747323   1.166   7.985   4.818  0.0696  0.1235  0.0543
   99MOL    C8847324   1.169   8.092   4.732  0.1712 -0.0110 -0.6791
   99MOL    O8947325   1.179   7.888   5.036  0.3248  0.4593 -0.2697
   99MOL    H9047326   0.942   8.214   4.260  2.2242 -1.0570  1.0046
   99MOL    H9147327   1.138   8.262   4.405 -1.3120  1.2511 -0.8810
   99MOL    H9247328   0.889   0.015   4.704 -2.0250 -0.4707  0.5890
   99MOL    H9347329   0.681   8.360   4.574  0.0339  3.4109 -0.8004
   99MOL    H9447330   1.144   8.349   4.946 -0.7561 -0.3919 -0.5492
   99MOL    H9547331   1.182   8.151   5.116 -0.6275 -1.8645  0.1899
   99MOL    H9647332   1.166   7.887   4.771 -1.1551 -0.3483  1.0041
   99MOL    H9747333   1.171   8.088   4.624  0.0112 -1.1499 -0.6490
   99MOL    C9847334   1.172   7.835   5.272 -0.0064 -0.1338  0.3037
   99MOL    C9947335   1.245   7.812   5.388  0.1972 -0.2168 -0.5299
   99MOL   C10047336   1.378   7.850   5.399 -0.1105  0.6154 -0.3770
   99MOL   C10147337   1.438   7.907   5.284 -0.5023  0.0938 -0.1838
   99MOL   C10247338   1.371   7.928   5.167  0.1950  0.4631  0.1255
   99MOL   C10347339   1.234   7.895   5.159  0.5211  0.8171  0.0506
   99MOL   S10447340   1.459   7.852   5.555  0.5940 -0.0555 -0.1748
   99MOL   O10547341   1.548   7.963   5.564  0.0589 -0.4810 -0.4522
   99MOL   O10647342   1.501   7.717   5.581 -0.3025 -0.1321  0.0965
   99MOL   C10747343   1.339   7.885   5.675 -0.0729 -0.3177 -0.0164
   99MOL   C10847344   1.270   7.776   5.730 -0.0777 -0.0260 -0.4453
   99MOL   C10947345   1.168   7.807   5.825 -0.3473  0.2990  0.2399
   99MOL   C11047346   1.141   7.936   5.870  0.1779  0.4450 -0.2309
   99MOL   C11147347   1.220   8.045   5.825 -0.3436  0.2870  0.3458
   99MOL   C11247348   1.316   8.020   5.721  0.4675 -0.0927 -0.2262
   99MOL   O11347349   1.059   7.932   5.981 -0.1157  0.1849  0.3331
   99MOL   H11447350   1.067   7.814   5.256 -0.5733  2.8219 -0.1657
   99MOL   H11547351   1.203   7.759   5.472  1.9656  0.3053  0.7034
   99MOL   H11647352   1.540   7.939   5.294 -0.2740 -0.2045 -1.4630
   99MOL   H11747353   1.427   7.976   5.087 -1.5115  0.1797 -1.2746
   99MOL   H11847354   1.290   7.674   5.702  2.2917  0.5056 -0.8531
   99MOL   H11947355   1.115   7.727   5.875  1.5543 -0.3469  1.2672
   99MOL   H12047356   1.215   8.140   5.875  1.1570  0.4975  0.1338
   99MOL   H12147357   1.376   8.103   5.689  2.4032 -0.8192  1.4254
   99MOL   C12247358   1.179   8.017   6.169  0.1363 -0.1903 -0.5892
   99MOL   C12347359   1.201   8.122   6.264  0.1619 -1.4429 -0.3721
   99MOL   C12447360   1.119   8.241   6.253 -0.1427 -0.0420 -0.0617
   99MOL   C12547361   1.018   8.254   6.157  0.2599 -0.7158 -0.0993
   99MOL   C12647362   0.999   8.143   6.069 -0.0253 -0.6030  1.0392
   99MOL   C12747363   1.076   8.029   6.074 -0.6558 -0.2187  0.1837
   99MOL   S12847364   1.164   8.367   6.380 -0.0988  0.0912 -0.2092
   99MOL   O12947365   1.181   8.293   6.505 -0.4360  0.5982 -0.2632
   99MOL   O13047366   1.062   0.049   6.375  0.2012 -0.0888 -0.5918
   99MOL   C13147367   1.319   0.013   6.339 -0.7061 -0.1738  0.1645
   99MOL   C13247368   1.343   0.138   6.396  0.5094  0.3491  0.1331
   99MOL   C13347369   1.461   0.210   6.370 -0.0682  0.3528 -0.0388
   99MOL   C13447370   1.554   0.154   6.279  0.1065  0.2868 -0.0447
   99MOL   C13547371   1.534   0.028   6.229  0.8064  0.5305 -0.1090
   99MOL   C13647372   1.417   8.377   6.264  0.1802 -0.2190 -0.2554
   99MOL   O13747373   1.659   0.227   6.233 -0.5012 -0.2500 -0.1797
   99MOL   H13847374   1.230   7.922   6.184 -1.9509 -1.5130 -1.6908
   99MOL   H13947375   1.276   8.124   6.342 -1.5587  0.4009  1.2911
   99MOL   H14047376   0.978   8.355   6.154 -0.2688 -0.9448 -0.7833
   99MOL   H14147377   0.929   8.157   5.989 -0.1960  1.1197  1.4646
   99MOL   H14247378   1.276   0.169   6.474  0.7207 -1.7053  1.1686
   99MOL   H14347379   1.488   0.305   6.413  2.0422  0.6692 -1.9317
   99MOL   H14447380   1.610   8.417   6.162  0.5343  3.1002 -1.8789
   99MOL   H14547381   1.402   8.276   6.227  0.3642 -0.3571  0.0450
   99MOL   C14647382   1.860   0.127   6.137  0.0168  0.0364  0.6299
   99MOL   C14747383   1.979   0.056   6.159 -0.4961  0.3695 -0.4161
   99MOL   C14847384   2.026   0.031   6.288 -0.7743  0.4912  0.4000
   99MOL   C14947385   1.954   0.077   6.397  0.5204 -0.3080  0.2529
   99MOL   C15047386   1.830   0.144   6.378  0.4678  0.2708  0.1065
   99MOL   C15147387   1.781   0.169   6.248 -0.9269 -0.1335  0.0861
   99MOL   S15247388   2.180   8.364   6.322  0.0070 -0.3198  0.1238
   99MOL   O15347389   2.155   8.223   6.286 -0.5348 -0.3901  0.2120
   99MOL   O15447390   2.215   8.396   6.464 -0.0552 -0.1818  0.1369
   99MOL   C15547391   2.302   0.002   6.210  0.1072 -0.0135  1.1974
   99MOL   C15647392   2.408   0.080   6.264 -0.0810  0.0810 -0.6241
   99MOL   C15747393   2.522   0.104   6.186 -0.2218 -0.0078 -0.0295
   99MOL   C15847394   2.526   0.057   6.055  0.0882 -0.8543  0.1611
   99MOL   C15947395   2.415   8.424   5.996  0.6653 -0.0391 -0.0032
   99MOL   C16047396   2.301   8.395   6.069 -0.0005 -0.3469 -0.6900
   99MOL   O16147397   2.648   0.061   5.988 -0.2908 -0.1808  0.2510
   99MOL   H16247398   1.828   0.141   6.035  0.3883 -0.1346  0.4880
   99MOL   H16347399   2.027   0.015   6.071 -0.5791  0.3254 -0.4408
   99MOL   H16447400   1.987   0.055   6.497 -1.4297 -0.2306  0.9375
   99MOL   H16547401   1.762   0.167   6.459  0.0073 -2.0522  0.4169
   99MOL   H16647402   2.400   0.116   6.365 -1.7536 -1.1939 -0.2785
   99MOL   H16747403   2.610   0.151   6.229 -0.4298 -1.1433  1.6808
   99MOL   H16847404   2.421   8.384   5.896  1.9942 -1.6433  0.7008
   99MOL   H16947405   2.221   8.338   6.026  0.6975  0.0613 -2.5560
   99MOL   C17047406   2.862   8.398   5.945 -0.4905 -0.2136 -0.1183
   99MOL   C17147407   2.960   8.300   5.960  0.1032 -0.2087 -0.1586
   99MOL   C17247408   2.924   8.182   6.025 -0.4087  0.0947 -0.2083
   99MOL   C17347409   2.797   8.162   6.069 -0.5117 -0.5064  0.6809
   99MOL   C17447410   2.707   8.268   6.068 -0.5964 -0.2335 -0.1245
   99MOL   C17547411   2.740   8.391   6.006  0.3187  0.0930  0.0204
   99MOL   S17647412   3.027   8.037   6.008 -0.0981  0.2600 -0.1444
   99MOL   O17747413   3.166   8.078   5.990  0.1966 -0.4136 -0.0244
   99MOL   O17847414   2.964   7.959   5.901 -0.1150 -0.0127 -0.4455
   99MOL   C17947415   3.038   7.937   6.157  0.2390  0.6034 -0.2124
   99MOL   C18047416   3.025   7.801   6.146 -0.1464  0.4873 -0.5509
   99MOL   C18147417   3.029   7.724   6.266  0.1896  0.1760 -0.5155
   99MOL   C18247418   3.039   7.791   6.391  0.4595  0.3845  0.0152
   99MOL   C18347419   3.053   7.930   6.397  0.8500  0.0313  0.3295
   99MOL   C18447420   3.049   8.001   6.279  0.4090  0.0883 -0.5504
   99MOL   O18547421   3.032   7.720   6.507 -0.3378 -0.7873  0.0788
   99MOL   H18647422   2.872   0.060   5.881 -0.0649  0.3045  0.6455
   99MOL   H18747423   3.055   8.322   5.914 -0.7031 -0.1000 -1.8225
   99MOL   H18847424   2.767   8.067   6.110 -0.0027 -1.1404 -0.4076
   99MOL   H18947425   2.610   8.247   6.112  0.6218 -0.1276  2.7119
   99MOL   H19047426   3.017   7.745   6.054  2.6380  0.8648 -1.0589
   99MOL   H19147427   3.029   7.616   6.261 -0.3330  0.0473  1.6731
   99MOL   H19247428   3.062   7.978   6.493  1.6845 -0.4253  0.4867
   99MOL   H19347429   3.051   8.106   6.307  0.3313  0.0549 -0.4260
   99MOL   C19447430   2.941   7.502   6.531  0.2406 -0.5030 -0.1827
   99MOL   C19547431   2.834   7.414   6.565  0.1981  0.0996 -0.5148
   99MOL   C19647432   2.709   7.473   6.588 -0.1754  0.0807  0.1788
   99MOL   C19747433   2.685   7.610   6.577  0.4555  0.1772  0.5893
   99MOL   C19847434   2.793   7.695   6.565 -0.1511  0.6588 -0.3242
   99MOL   C19947435   2.923   7.643   6.530 -0.2480  0.0477 -0.0405
   99MOL   S20047436   2.579   7.363   6.648  0.1965 -0.1070  0.1393
   99MOL   O20147437   2.584   7.239   6.567  0.0358  0.1436 -0.4907
   99MOL   O20247438   2.451   7.436   6.646 -0.1435 -0.5194 -0.3265
   99MOL   C20347439   2.612   7.325   6.820  0.3849 -0.0676 -0.3184
   99MOL   C20447440   2.617   7.192   6.874 -0.0055 -0.4562 -0.6146
   99MOL   C20547441   2.648   7.177   7.012  0.1539  0.6438  0.1116
   99MOL   C20647442   2.662   7.284   7.100  1.1263 -0.2223 -0.2437
   99MOL   C20747443   2.654   7.414   7.046  0.6989  0.1675 -0.8113
   99MOL   C20847444   2.628   7.437   6.905  0.4000  0.3445  0.2679
   99MOL   O20947445   2.691   7.252   7.226  0.7790  0.2620 -0.2546
   99MOL   H21047446   3.039   7.467   6.502  0.2260  0.7826 -1.8602
   99MOL   H21147447   2.859   7.310   6.574 -2.0266 -0.4006 -0.0283
   99MOL   H21247448   2.586   7.652   6.591  0.4012  0.9785 -1.8827
   99MOL   H21347449   2.776   7.801   6.565 -1.2502  0.5062  1.9120
   99MOL   H21447450   2.616   7.101   6.815  0.6643 -0.7470 -0.1852
   99MOL   H21547451   2.643   7.078   7.055 -1.0625  0.0719 -1.2936
   99MOL   H21647452   2.671   7.496   7.114  0.5583 -1.2383  0.9524
   99MOL   H21747453   2.603   7.537   6.874  0.2896  0.5276  0.9428
   99MOL   C21847454   2.659   7.406   7.413 -0.4196  0.1775  0.8914
   99MOL   C21947455   2.723   7.499   7.499  0.6614 -0.2040 -0.3314
   99MOL   C22047456   2.866   7.524   7.502  0.8995 -0.2305  0.1121
   99MOL   C22147457   2.943   7.457   7.405  0.1412 -0.2510 -0.7828
   99MOL   C22247458   2.882   7.369   7.314  0.5071  0.2729  0.1154
   99MOL   C22347459   2.742   7.344   7.315  0.3988 -0.4861  0.2102
   99MOL   S22447460   2.953   7.629   7.616  0.0387 -0.2666 -0.0197
   99MOL   O22547461   2.985   7.754   7.550 -0.0579 -0.2490  0.0698
   99MOL   O22647462   3.061   7.548   7.676  0.0185  0.9286 -0.0219
   99MOL   C22747463   2.852   7.670   7.750 -0.1942 -0.1241  0.0609
   99MOL   C22847464   2.799   7.566   7.829  0.2217  0.2895 -0.4125
   99MOL   C22947465   2.693   7.607   7.912  0.3717 -0.2406 -0.2546
   99MOL   C23047466   2.673   7.743   7.945  0.3706 -0.1846  0.5244
   99MOL   C23147467   2.757   7.839   7.888 -0.1470  0.2864 -0.5670
   99MOL   C23247468   2.837   7.804   7.782 -0.2871  0.0760 -0.3618
   99MOL   O23347469   2.582   7.774   8.038 -0.5118 -0.0828  0.3814
   99MOL   H23447470   2.559   7.367   7.427 -0.4549  0.0457  0.2881
   99MOL   H23547471   2.670   7.548   7.580 -1.3711 -1.6702 -0.7262
   99MOL   H23647472   3.049   7.473   7.390 -0.5262  4.2808 -1.5129
   99MOL   H23747473   2.937   7.319   7.235 -0.1134  2.4753 -1.7889
   99MOL   H23847474   2.802   7.462   7.802  2.3829 -0.0010  0.8403
   99MOL   H23947475   2.626   7.532   7.952  0.1203 -0.1741 -0.5431
   99MOL   H24047476   2.742   7.943   7.913 -0.1270 -0.0877  1.0189
   99MOL   H24147477   2.898   7.881   7.736 -0.2385  0.8473  0.9603
   99MOL   C24247478   2.416   7.937   7.991 -0.3741 -0.1651  0.1629
   99MOL   C24347479   2.286   7.970   7.955  0.3750  0.3134 -0.3446
   99MOL   C24447480   2.183   7.869   7.945  0.7861 -0.4985 -0.0510
   99MOL   C24547481   2.220   7.731   7.957 -0.1412 -0.5319  0.9900
   99MOL   C24647482   2.359   7.703   7.982  0.0209  0.5243 -0.0922
   99MOL   C24747483   2.453   7.804   8.000 -0.0784 -0.3726 -0.1988
   99MOL   S24847484   2.019   7.913   7.919 -0.1840  0.2400  0.0095
   99MOL   O24947485   1.999   8.040   7.994 -0.4199 -0.4556  0.1820
   99MOL   O25047486   1.936   7.795   7.934  0.2433 -0.3910  0.0799
   99MOL   C25147487   2.003   7.953   7.746  0.6772  0.0103 -0.7403
   99MOL   C25247488   2.086   8.041   7.676  0.5786 -0.3281 -0.1302
   99MOL   C25347489   2.066   8.072   7.540 -0.3076 -0.5246  0.4340
   99MOL   C25447490   1.949   8.026   7.478 -0.7636  0.0862  0.1778
   99MOL   C25547491   1.855   7.948   7.551  0.2341  0.0170 -0.8152
   99MOL   C25647492   1.883   7.910   7.687 -0.1830 -0.0714  0.5137
   99MOL   O25747493   1.927   8.055   7.347 -0.4290 -0.3244 -0.5491
   99MOL   H25847494   2.494   8.008   8.008 -0.6529  0.8669 -2.5432
   99MOL   H25947495   2.269   8.073   7.926 -0.6769 -0.1644 -1.4520
   99MOL   H26047496   2.149   7.651   7.944  1.5864 -2.3871  2.6683
   99MOL   H26147497   2.400   7.603   7.979  2.2533  1.2804  2.4475
   99MOL   H26247498   2.178   8.069   7.725  1.2043 -2.4353 -0.0177
   99MOL   H26347499   2.144   8.119   7.482 -0.0328 -0.2183  1.0448
   99MOL   H26447500   1.762   7.909   7.513 -0.4053 -2.3744  2.9713
   99MOL   H26547501   1.811   7.847   7.737 -0.4601  0.6716  1.0799
   99MOL   C26647502   1.953   8.219   7.181 -0.2715  0.5442  0.1880
   99MOL   C26747503   1.970   8.346   7.131 -0.0439  0.0941  0.7813
   99MOL   C26847504   1.957   0.032   7.215 -0.0038 -0.6086  0.3104
   99MOL   C26947505   1.931   0.008   7.351 -0.3258 -0.1497  1.0540
   99MOL   C27047506   1.915   8.301   7.397  0.0619 -0.2064  0.2765
   99MOL   C27147507   1.928   8.188   7.310 -0.3042 -0.3930  0.2735
   99MOL   S27247508   1.976   0.191   7.140  0.6945  0.2170  0.2349
   99MOL   O27347509   2.103   0.185   7.064 -0.1793  0.1567  0.2780
   99MOL   O27447510   1.955   0.298   7.239 -0.7186  0.5300 -0.3517
   99MOL   C27547511   1.841   0.204   7.016 -0.4158 -0.5409 -0.1280
   99MOL   C27647512   1.851   0.168   6.883 -0.3161  0.0103 -0.2387
   99MOL   C27747513   1.732   0.139   6.810  0.5800  0.1863  0.0653
   99MOL   C27847514   1.604   0.181   6.860 -0.1600  0.1143  0.3063
   99MOL   C27947515   1.597   0.228   6.995 -0.7710  0.7243 -0.1601
   99MOL   C28047516   1.718   0.235   7.074  0.1376 -0.3038  0.0947
   99MOL   O28147517   1.498   0.178   6.774 -0.4178 -0.1850  0.0425
   99MOL   H28247518   1.967   8.135   7.114  0.4266 -0.1230  1.1553
   99MOL   H28347519   2.001   8.365   7.029 -2.2784  3.3800  0.6511
   99MOL   H28447520   1.934   0.094   7.417  2.2315  1.1020 -0.6336
   99MOL   H28547521   1.901   8.293   7.503 -1.1231  2.6571  0.3805
   99MOL   H28647522   1.952   0.142   6.858 -0.7985 -2.1308 -0.0241
   99MOL   H28747523   1.742   0.094   6.712 -0.4320  1.8130 -0.8088
   99MOL   H28847524   1.505   0.264   7.038 -0.1704 -0.5554  2.2830
   99MOL   H28947525   1.716   0.257   7.180 -2.6750  0.1253  0.0013
   99MOL   C29047526   1.403   8.380   6.806  0.0678 -0.0233 -0.1650
   99MOL   C29147527   1.298   8.295   6.848  1.0832  0.0514 -0.9407
   99MOL   C29247528   1.178   8.351   6.895 -0.4135 -0.2328  0.5816
   99MOL   C29347529   1.159   0.067   6.900  0.3391 -0.5156  1.1538
   99MOL   C29447530   1.263   0.146   6.855 -0.6878 -0.2489 -0.2524
   99MOL   C29547531   1.391   0.096   6.813 -0.3865  0.7624 -0.4654
   99MOL   S29647532   1.047   8.252   6.958 -0.2761 -0.2861 -0.1771
   99MOL   O29747533   0.986   8.330   7.069  0.0268 -0.1540  0.1441
   99MOL   O29847534   1.094   8.111   6.979 -0.3032  0.0922 -0.5597
   99MOL   C29947535   0.930   8.244   6.831  0.5190 -0.2284  0.1489
   99MOL   C30047536   0.845   8.134   6.834 -1.0098  0.4798 -0.2928
   99MOL   C30147537   0.758   8.117   6.724 -0.4536 -0.1984  0.0478
   99MOL   C30247538   0.749   8.204   6.617 -0.2025  0.1995  0.1316
   99MOL   C30347539   0.831   8.320   6.619  0.0719 -0.0705  0.0728
   99MOL   C30447540   0.923   8.341   6.723 -0.1806 -0.8080 -0.6602
   99MOL   O30547541   0.667   8.177   6.508 -0.5169 -0.3454 -0.2779
   99MOL   H30647542   1.498   8.337   6.778  0.1719  0.7136 -0.9712
   99MOL   H30747543   1.312   8.188   6.856 -2.3342 -0.2350  2.9821
   99MOL   H30847544   1.066   0.112   6.934  1.0930  1.6121  0.5032
   99MOL   H30947545   1.236   0.251   6.856  0.7203  0.1205  0.7539
   99MOL   H31047546   0.851   8.054   6.906  1.3790  1.7654  0.9811
   99MOL   H31147547   0.683   8.039   6.728  0.2254 -0.8613 -0.0751
   99MOL   H31247548   0.829   8.386   6.534  1.0817 -0.1209 -0.0051
   99MOL   H31347549   0.990   8.424   6.705 -2.4164  1.2489  0.2850
   99MOL   C31447550   0.665   8.346   6.334  0.1185  0.1643  0.4966
   99MOL   C31547551   0.597   0.036   6.271 -0.0064 -0.0568 -0.0763
   99MOL   C31647552   0.475   0.082   6.319 -0.3513 -0.0236 -0.9861
   99MOL   C31747553   0.419   0.023   6.430  0.0987  0.6204 -0.2354
   99MOL   C31847554   0.481   8.333   6.495 -1.0363  0.2067  0.7923
   99MOL   C31947555   0.609   8.282   6.446 -0.7576 -0.3667 -0.1754
   99MOL   S32047556   0.384   0.203   6.217 -0.1099  0.0569 -0.5740
   99MOL   O32147557   0.466   0.230   6.097 -0.1366  0.1540  0.8285
   99MOL   O32247558   0.342   0.313   6.306  0.0986 -0.2769  0.4276
   99MOL   C32347559   0.242   0.119   6.152  0.7606  0.5417 -1.0449
   99MOL   C32447560   0.252   8.416   6.093 -0.0721  0.2478  0.2289
   99MOL   C32547561   0.141   8.360   6.026  0.0020  0.0834 -0.0482
   99MOL   C32647562   0.019   0.006   6.018 -0.1265 -0.2722 -0.0175
   99MOL   C32747563   0.012   0.134   6.076 -0.1497  0.1485  0.1261
   99MOL   C32847564   0.121   0.190   6.143 -0.0397 -0.6007  0.4666
   99MOL   O32947565   8.338   8.383   5.951 -0.1137  0.0741 -0.4220
   99MOL   H33047566   0.760   8.305   6.302  1.0304  1.4774  1.4746
   99MOL   H33147567   0.639   0.088   6.186 -0.1406  0.0574 -0.0737
   99MOL   H33247568   0.326   0.061   6.471 -0.2755  0.0426 -0.5546
   99MOL   H33347569   0.426   8.289   6.578  1.4848 -0.5343  2.1298
   99MOL   H33447570   0.341   8.357   6.103 -1.4223 -1.5255  2.3422
   99MOL   H33547571   0.134   8.262   5.981  0.2531  0.7810 -1.6399
   99MOL   H33647572   8.342   0.184   6.075 -0.9394 -1.3398 -0.4223
   99MOL   H33747573   0.114   0.294   6.172  0.9701 -0.4620  0.2113
   99MOL   C33847574   8.121   8.370   6.061  0.3013 -0.0128 -0.0174
   99MOL   C33947575   8.020   8.291   6.116  0.0876 -0.5149  0.9659
   99MOL   C34047576   8.045   8.155   6.129  0.3007  0.4005  0.2244
   99MOL   C34147577   8.173   8.095   6.090 -0.2622 -0.0395  0.2336
   99MOL   C34247578   8.273   8.177   6.036 -0.1754 -0.8990 -0.2399
   99MOL   C34347579   8.249   8.314   6.023  0.0407 -0.2661 -0.5226
   99MOL   S34447580   7.913   8.048   6.199 -0.0406  0.1949  0.1366
   99MOL   O34547581   7.793   8.127   6.210  0.2694  0.0997  0.1820
   99MOL   O34647582   7.976   7.978   6.315  0.7257  0.5508 -0.5507
   99MOL   C34747583   7.891   7.934   6.064  0.4864  0.2043  0.3021
   99MOL   C34847584   7.945   7.800   6.067 -0.2893  0.1898 -0.3322
   99MOL   C34947585   7.944   7.726   5.945  0.0442 -0.3852  0.9445
   99MOL   C35047586   7.873   7.777   5.833  0.3954 -0.3775 -0.1649
   99MOL   C35147587   7.810   7.906   5.836  0.4233  0.6748 -0.4762
   99MOL   C35247588   7.823   7.984   5.949  0.3982 -0.0642  0.4823
   99MOL   O35347589   7.869   7.689   5.727  0.2513  0.5139  0.1148
   99MOL   H35447590   8.094   0.048   6.044  0.1182 -0.2453 -1.1666
   99MOL   H35547591   7.923   8.335   6.136  1.0747  1.7936  0.8169
   99MOL   H35647592   8.170   7.987   6.090  1.2053 -0.0873  0.5888
   99MOL   H35747593   8.366   8.126   6.016 -0.4069 -0.7194 -1.8642
   99MOL   H35847594   7.993   7.749   6.149  0.3592  1.0688 -0.1629
   99MOL   H35947595   7.985   7.626   5.945 -2.7167 -1.5536  0.9850
   99MOL   H36047596   7.756   7.952   5.755  0.4271 -0.9613 -1.4212
   99MOL   H36147597   7.797   8.088   5.952  2.1722  0.4083 -0.0995
   99MOL   C36247598   7.967   7.824   5.555  0.3734 -0.3758  0.2678
   99MOL   C36347599   7.969   7.859   5.417 -0.4050 -0.4131 -1.0421
   99MOL   C36447600   7.868   7.809   5.332  0.2447 -0.5562 -0.4333
   99MOL   C36547601   7.774   7.710   5.377 -0.2772  0.0865 -0.0677
   99MOL   C36647602   7.775   7.680   5.510  0.2132 -0.8444 -0.0626
   99MOL   C36747603   7.872   7.731   5.598 -0.2596 -0.7183  0.6040
   99MOL   S36847604   7.843   7.870   5.167 -0.4380  0.3969  0.3926
   99MOL   O36947605   7.762   7.991   5.173  0.4563 -0.3646 -0.0472
   99MOL   O37047606   7.797   7.756   5.089 -0.0437  0.3644  0.0200
   99MOL   C37147607   8.004   7.915   5.105  0.4877 -0.1066  0.6561
   99MOL   C37247608   8.100   7.815   5.098  0.2870  0.2597  0.4524
   99MOL   C37347609   8.231   7.846   5.053  0.1912  0.1229  1.0147
   99MOL   C37447610   8.256   7.978   5.019 -0.3031 -0.4558 -0.9915
   99MOL   C37547611   8.158   8.078   5.030  0.5183 -0.3506  0.3413
   99MOL   C37647612   8.025   8.045   5.074  0.1838  0.8213 -0.1259
   99MOL   O37747613   8.378   8.010   4.961  0.1201 -0.0654 -0.1339
   99MOL   H37847614   8.041   7.857   5.626 -0.3984  1.6532  0.1767
   99MOL   H37947615   8.043   7.923   5.372  0.6486 -0.6469  0.3446
   99MOL   H38047616   7.703   7.666   5.309  0.9703  1.1206 -2.1201
   99MOL   H38147617   7.696   7.617   5.549 -0.9148  0.1338 -0.7469
   99MOL   H38247618   8.089   7.715   5.139 -0.5617  0.1133 -0.1166
   99MOL   H38347619   8.306   7.769   5.048 -0.9067 -1.0738  2.4263
   99MOL   H38447620   8.184   8.181   5.007 -0.3857 -0.1161  0.3645
   99MOL   H38547621   7.944   8.116   5.081 -0.4645  0.2054 -1.2828
   99MOL   C38647622   0.055   8.092   5.167 -0.5698 -0.0334 -0.2327
   99MOL   C38747623   0.137   8.185   5.230 -0.4994 -0.1236 -0.4278
   99MOL   C38847624   0.208   8.274   5.153 -0.4896  0.1062  0.1493
   99MOL   C38947625   0.208   8.268   5.010  0.3208 -0.3847  0.1705
   99MOL   C39047626   0.114   8.186   4.947 -0.3570 -0.2866  0.5861
   99MOL   C39147627   0.043   8.094   5.027  0.5380 -0.0045  0.6043
   99MOL   S39247628   0.306   8.403   5.230 -0.1458 -0.2597  0.2323
   99MOL   O39347629   0.319   0.087   5.136 -0.1224 -0.3654 -0.0028
   99MOL   O39447630   0.431   8.341   5.281 -0.3383  0.3845  0.0805
   99MOL   C39547631   0.202   0.036   5.365  0.2768  0.0554 -1.6955
   99MOL   C39647632   0.063   0.066   5.350  0.3491  0.2790 -0.4028
   99MOL   C39747633   8.410   0.082   5.465 -0.2558 -0.6366 -0.1896
   99MOL   C39847634   0.041   0.090   5.596  0.2181  0.4889  0.0477
   99MOL   C39947635   0.179   0.068   5.601  0.0941  0.2307 -0.2963
   99MOL   C40047636   0.260   0.040   5.493 -0.4178  0.5275 -0.3763
   99MOL   O40147637   8.399   0.123   5.707  0.0752  1.1089  0.2281
   99MOL   H40247638   8.418   8.026   5.226 -0.2266 -1.3209 -1.2945
   99MOL   H40347639   0.138   8.181   5.338 -0.8997  1.7841 -0.3354
   99MOL   H40447640   0.260   8.340   4.948  0.9645 -0.2549  0.8579
   99MOL   H40547641   0.109   8.179   4.840 -0.5182 -1.4280  0.6634
   99MOL   H40647642   0.011   0.059   5.255  1.7122  1.1319 -1.2371
   99MOL   H40747643   8.303   0.084   5.452 -0.5570 -3.5741  1.4466
   99MOL   H40847644   0.235   0.075   5.693  0.5480 -2.4393 -0.3196
   99MOL   H40947645   0.365   0.020   5.508 -0.9249 -0.6788  1.6972
   99MOL   C41047646   8.159   0.106   5.723 -0.3891 -0.6247 -0.9174
   99MOL   C41147647   8.034   0.170   5.720 -0.2109 -0.6518  0.5661
   99MOL   C41247648   8.026   0.301   5.679  0.0503  0.1044  0.2461
   99MOL   C41347649   8.146   0.379   5.659 -0.3095 -0.1612 -0.3344
   99MOL   C41447650   8.273   0.322   5.674 -0.5484  0.6971  0.3132
   99MOL   C41547651   8.278   0.183   5.698 -0.6011 -0.4124  0.1907
   99MOL   S41647652   7.863   0.378   5.649  0.0203 -0.2395  0.0447
   99MOL   O41747653   7.876   0.524   5.662 -0.1471  0.0608 -0.3603
   99MOL   O41847654   7.765   0.299   5.734  0.3182 -0.1927  0.0616
   99MOL   C41947655   7.817   0.344   5.475 -0.2263 -0.0687  0.6917
   99MOL   C42047656   7.916   0.305   5.378  0.5073  0.5570  0.4084
   99MOL   C42147657   7.884   0.281   5.250  0.1990 -0.7657  0.2098
   99MOL   C42247658   7.749   0.297   5.210  0.5669 -0.3478  0.5616
   99MOL   C42347659   7.654   0.338   5.301  0.2029 -0.1231  0.3058
   99MOL   C42447660   7.685   0.361   5.431  0.5871 -0.2068  0.4807
   99MOL   O42547661   7.719   0.279   5.076  0.3193 -0.0395  0.2390
   99MOL   H42647662   8.160   0.001   5.748 -3.5949 -0.5690 -0.3788
   99MOL   H42747663   7.944   0.110   5.713 -1.5175  1.3154  0.0077
   99MOL   H42847664   8.144   0.485   5.638 -0.3768 -0.3251 -1.1829
   99MOL   H42947665   8.359   0.385   5.658 -1.8110  1.5228 -3.6755
   99MOL   H43047666   8.017   0.281   5.409  0.8261 -1.4636 -2.0572
   99MOL   H43147667   7.963   0.249   5.185  1.0620 -0.2007  0.9695
   99MOL   H43247668   7.554   0.330   5.260 -0.5599  0.9663  1.9004
   99MOL   H43347669   7.615   0.398   5.504 -1.1840 -0.9595 -0.8110
   99MOL   C43447670   7.676   0.051   5.036 -0.1432  0.5643 -0.6260
   99MOL   C43547671   7.583   8.374   5.005  0.0928 -0.1215 -0.2219
   99MOL   C43647672   7.446   8.406   4.970 -0.0097  0.3609 -0.0307
   99MOL   C43747673   7.411   0.118   4.967 -0.3037  0.8041 -0.1274
   99MOL   C43847674   7.500   0.219   5.006  0.5434  0.9480  0.8165
   99MOL   C43947675   7.632   0.183   5.049  0.7426  0.3913 -0.5722
   99MOL   S44047676   7.343   8.266   4.928 -0.5160 -0.2592 -0.2192
   99MOL   O44147677   7.379   8.169   5.035  0.2081 -0.2398 -0.7101
   99MOL   O44247678   7.367   8.226   4.787  0.2976  0.1650 -0.4287
   99MOL   C44347679   7.181   8.313   4.949 -0.1676  0.1931 -0.7543
   99MOL   C44447680   7.113   8.304   5.075  0.1900  0.0604 -0.0254
   99MOL   C44547681   6.989   8.365   5.093  0.2027 -0.8848 -0.3382
   99MOL   C44647682   6.919   8.420   4.983  0.1010 -0.4815 -0.1830
   99MOL   C44747683   6.978   8.425   4.858  0.3926  0.2992 -0.8759
   99MOL   C44847684   7.111   8.373   4.841  1.1173  0.1138  0.0030
   99MOL   O44947685   6.791   0.045   5.003 -0.1065 -0.3704  0.6563
   99MOL   H45047686   7.777   0.025   5.063 -0.1264  1.0287 -0.2352
   99MOL   H45147687   7.606   8.269   4.993 -1.9046 -0.6134 -0.0066
   99MOL   H45247688   7.307   0.135   4.943 -0.1913  1.0037 -0.4753
   99MOL   H45347689   7.472   0.322   5.012  1.0125  1.1631 -0.5346
   99MOL   H45447690   7.175   8.272   5.158 -1.6402 -0.3035  1.2251
   99MOL   H45547691   6.949   8.364   5.194  0.6174 -0.7989 -0.1733
   99MOL   H45647692   6.927   0.041   4.772 -1.8974  1.6283  1.0495
   99MOL   H45747693   7.166   8.370   4.748  1.8051 -0.0580  0.4074
   99MOL   C45847694   6.775   0.177   5.205 -1.1337 -0.5580  0.4830
   99MOL   C45947695   6.787   0.300   5.272  0.5005  0.5698  0.3341
   99MOL   C46047696   6.795   0.418   5.192  0.4259 -0.1994 -0.3117
   99MOL   C46147697   6.793   0.413   5.052  0.1506 -0.2027 -0.5845
   99MOL   C46247698   6.800   0.286   4.988 -0.2716  0.4396  0.1931
   99MOL   C46347699   6.793   0.170   5.066 -0.3304  0.0441  0.0506
   99MOL   S46447700   6.797   0.578   5.284 -0.1159 -0.3437 -0.1020
   99MOL   O46547701   6.918   0.586   5.371  0.1667  0.6682  0.6774
   99MOL   O46647702   6.666   0.592   5.351 -0.1359 -0.5022  0.3016
   99MOL   C46747703   6.801   0.700   5.160 -0.2238 -0.4485 -0.6605
   99MOL   C46847704   6.682   0.747   5.100  0.1763  0.2235  0.0707
   99MOL   C46947705   6.695   0.850   5.000 -0.4033 -0.3883 -0.7465
   99MOL   C47047706   6.823   0.897   4.953  1.1463  0.3556 -0.2300
   99MOL   C47147707   6.941   0.855   5.018  0.0585  0.9995  0.1293
   99MOL   C47247708   6.926   0.761   5.131  0.7658 -0.0319 -0.1054
   99MOL   O47347709   6.824   0.986   4.853 -0.2618  0.4761  0.3110
   99MOL   H47447710   6.763   0.082   5.255  0.5956  0.0530  2.1487
   99MOL   H47547711   6.782   0.304   5.380 -1.8440 -0.7742  0.3019
   99MOL   H47647712   6.805   0.498   4.987 -1.6172 -1.2344 -2.3380
   99MOL   H47747713   6.805   0.276   4.880 -1.6180 -0.4340  0.2008
   99MOL   H47847714   6.586   0.706   5.127 -0.5124  0.0016 -2.5485
   99MOL   H47947715   6.610   0.882   4.942 -0.9578  0.3443  0.4612
   99MOL   H48047716   7.041   0.891   4.996 -0.1023  1.6729  0.4818
   99MOL   H48147717   7.022   0.738   5.175  0.0646  1.4806  2.3292
   99MOL   H48247718   6.743   1.021   4.818 -0.9180  1.1525  2.3657
  100MOL     C147719   6.609   4.067   1.910  0.3646 -0.0019 -0.1848
  100MOL     C247720   6.541   3.974   1.987 -0.0800 -0.3431 -0.3231
  100MOL     C347721   6.400   3.987   1.991  0.8668  0.4204 -0.1274
  100MOL     C447722   6.329   4.100   1.927 -0.7698  0.2772  0.2045
  100MOL     C547723   6.407   4.195   1.856 -0.7104 -0.3012  0.1555
  100MOL     C647724   6.544   4.178   1.849  0.1295  0.1270  0.1051
  100MOL     S747725   6.307   3.866   2.088  0.2666 -0.2728  0.4427
  100MOL     O847726   6.400   3.753   2.114 -0.1471 -0.2648 -0.4177
  100MOL     O947727   6.178   3.838   2.021 -0.0266  0.4851 -0.0945
  100MOL    C1047728   6.264   3.941   2.244 -0.6077  0.3286  0.2981
  100MOL    C1147729   6.238   3.856   2.351  0.4619 -0.6736 -0.2808
  100MOL    C1247730   6.201   3.914   2.477  0.0686 -0.4466  0.1996
  100MOL    C1347731   6.194   4.053   2.493  0.3595 -0.4073 -0.0526
  100MOL    C1447732   6.215   4.137   2.386 -0.5786 -0.1927  0.1527
  100MOL    C1547733   6.249   4.082   2.260 -0.4378 -0.1837 -0.3246
  100MOL    O1647734   6.170   4.111   2.614  0.0543  0.1347 -0.3188
  100MOL    H1747735   6.715   4.051   1.901 -0.1037 -1.7838 -3.2676
  100MOL    H1847736   6.596   3.894   2.033  0.3651 -0.8013 -1.6079
  100MOL    H1947737   6.222   4.105   1.940 -0.4410  0.8371  3.1353
  100MOL    H2047738   6.360   4.286   1.823 -0.9395 -0.3521  0.3365
  100MOL    H2147739   6.252   3.750   2.336  0.1869 -0.4827 -2.0079
  100MOL    H2247740   6.188   3.841   2.556 -0.2630 -2.7647 -1.9480
  100MOL    H2347741   6.215   4.244   2.396 -1.4033 -0.3452  1.9513
  100MOL    H2447742   6.259   4.142   2.171  2.4134 -0.5057 -0.2776
  100MOL    H2547743   6.599   4.255   1.798  0.7858  0.3862  1.1920
  100MOL    C2647744   5.989   4.097   2.753 -0.6268  0.2169  0.4010
  100MOL    C2747745   5.926   4.040   2.864  0.1527 -0.0129  0.5049
  100MOL    C2847746   5.990   3.948   2.947 -0.3594  0.1174 -0.1302
  100MOL    C2947747   6.115   3.898   2.902  0.3357 -0.4312 -0.4811
  100MOL    C3047748   6.185   3.950   2.796  0.7680 -1.0031  0.6496
  100MOL    C3147749   6.115   4.045   2.719 -0.5204 -0.0367  0.2838
  100MOL    S3247750   5.919   3.891   3.098 -0.1366  0.0723 -0.2383
  100MOL    O3347751   5.820   3.989   3.140 -0.4589 -0.3530  0.7713
  100MOL    O3447752   6.031   3.857   3.189  0.3806  0.5127  0.0415
  100MOL    C3547753   5.831   3.742   3.058  0.1293 -0.5178 -0.0677
  100MOL    C3647754   5.901   3.627   3.029 -0.2898  0.6072  0.4768
  100MOL    C3747755   5.839   3.508   2.978 -0.4977 -0.2287  0.4367
  100MOL    C3847756   5.700   3.513   2.954 -0.1996 -0.5366 -0.3149
  100MOL    C3947757   5.621   3.628   2.997 -0.8077  0.8796  0.4189
  100MOL    C4047758   5.690   3.741   3.052  0.0694 -0.1153 -0.1149
  100MOL    O4147759   5.647   3.406   2.891  0.0196 -0.0249 -0.2497
  100MOL    H4247760   5.935   4.168   2.691 -0.0765  0.3477  0.0671
  100MOL    H4347761   5.829   4.080   2.889  0.3924  0.3591  0.8499
  100MOL    H4447762   6.156   3.816   2.960  1.2214  0.1804 -0.2247
  100MOL    H4547763   6.283   3.919   2.763  0.4718 -0.9615 -0.2982
  100MOL    H4647764   6.007   3.627   3.052  0.1619  0.0710 -1.5154
  100MOL    H4747765   5.898   3.419   2.960  2.0287  1.7694 -1.6696
  100MOL    H4847766   5.514   3.618   2.992 -0.6461 -1.2827  0.8726
  100MOL    H4947767   5.631   3.827   3.078  0.6835  0.1470  0.4217
  100MOL    C5047768   5.615   3.243   3.062 -0.6476  0.0470  0.3940
  100MOL    C5147769   5.525   3.158   3.126 -0.7243 -0.1095  0.3789
  100MOL    C5247770   5.392   3.138   3.079 -0.1484 -0.0253  0.6850
  100MOL    C5347771   5.350   3.211   2.971 -0.0710  0.7532 -0.1443
  100MOL    C5447772   5.438   3.298   2.908  0.4753 -1.0097  0.1174
  100MOL    C5547773   5.570   3.315   2.957 -0.2501 -0.3115  0.0828
  100MOL    S5647774   5.286   3.024   3.174  0.5782  0.1979  0.0891
  100MOL    O5747775   5.362   2.962   3.282  0.0313  0.3295 -0.3629
  100MOL    O5847776   5.216   2.942   3.076 -0.5416  0.2260  0.3218
  100MOL    C5947777   5.160   3.136   3.250 -0.1109 -0.4502 -0.2280
  100MOL    C6047778   5.039   3.164   3.179  0.6460  0.6395  0.0719
  100MOL    C6147779   4.940   3.241   3.243  0.9177  0.3415  0.1634
  100MOL    C6247780   4.968   3.301   3.371 -0.3531  0.1697  0.0854
  100MOL    C6347781   5.089   3.269   3.435 -0.3650  0.3987 -0.5839
  100MOL    C6447782   5.188   3.187   3.380 -0.5295 -0.5079  0.2964
  100MOL    O6547783   4.874   3.375   3.437 -0.3039  0.7417 -0.3514
  100MOL    H6647784   5.717   3.259   3.094  0.0289 -1.9574 -0.7039
  100MOL    H6747785   5.568   3.095   3.202  1.6665 -0.2322 -1.0093
  100MOL    H6847786   5.252   3.194   2.929  0.4534 -2.5810 -0.1590
  100MOL    H6947787   5.402   3.351   2.821 -0.3160 -1.9063 -0.1070
  100MOL    H7047788   5.014   3.117   3.085  1.1701  2.5954 -1.0746
  100MOL    H7147789   4.843   3.256   3.197 -0.2439 -0.3870  2.3217
  100MOL    H7247790   5.101   3.302   3.537  0.2150 -3.8013  0.8214
  100MOL    H7347791   5.282   3.159   3.426  0.7278  0.5278 -1.5600
  100MOL    C7447792   4.867   3.574   3.570 -0.1388  0.3446  0.1484
  100MOL    C7547793   4.878   3.716   3.572  0.3523  0.5758 -0.8551
  100MOL    C7647794   4.928   3.790   3.466  0.3432 -0.5295 -0.3447
  100MOL    C7747795   4.953   3.729   3.342  0.2833 -0.2552  0.2095
  100MOL    C7847796   4.938   3.591   3.330  0.4461  0.2627 -0.2513
  100MOL    C7947797   4.890   3.511   3.444  1.3106  0.0757  0.7052
  100MOL    S8047798   4.962   3.970   3.484 -0.2976  0.2720  0.0820
  100MOL    O8147799   5.049   4.018   3.374  0.4937  0.0987 -0.0268
  100MOL    O8247800   5.009   3.987   3.624 -0.4112  0.2611 -0.2106
  100MOL    C8347801   4.804   4.055   3.458 -0.2406  0.3966 -0.3744
  100MOL    C8447802   4.712   4.001   3.368 -0.2873 -0.1942 -0.7348
  100MOL    C8547803   4.584   4.062   3.354 -0.6776 -0.0416  0.3573
  100MOL    C8647804   4.555   4.186   3.413 -0.2252 -0.2746 -0.1595
  100MOL    C8747805   4.652   4.246   3.496 -0.1497  0.2312 -0.5645
  100MOL    C8847806   4.774   4.178   3.520 -0.2092  0.6122 -0.4494
  100MOL    O8947807   4.432   4.241   3.395 -0.3348  0.3429 -0.1866
  100MOL    H9047808   4.850   3.519   3.662  4.6548 -0.3241  0.7943
  100MOL    H9147809   4.862   3.775   3.661 -0.2910  1.4799 -1.5622
  100MOL    H9247810   4.998   3.779   3.258 -0.9174  1.4254  0.5364
  100MOL    H9347811   4.968   3.539   3.241 -0.6590 -1.3850  0.3059
  100MOL    H9447812   4.739   3.910   3.317 -0.9872 -0.4541 -0.6409
  100MOL    H9547813   4.501   4.010   3.308 -0.6831  1.2780 -1.1851
  100MOL    H9647814   4.633   4.333   3.558 -0.1721 -0.4458  0.3882
  100MOL    H9747815   4.850   4.223   3.582 -0.7718  1.2197 -0.1882
  100MOL    C9847816   4.451   4.346   3.178  0.2343 -0.2566 -0.1439
  100MOL    C9947817   4.471   4.457   3.101  0.1474 -0.6438 -0.3945
  100MOL   C10047818   4.452   4.583   3.158  0.2036  0.4125  0.2089
  100MOL   C10147819   4.434   4.601   3.294  0.1022 -0.0641 -0.1683
  100MOL   C10247820   4.424   4.482   3.373 -0.1459  0.4104 -0.9721
  100MOL   C10347821   4.431   4.354   3.316 -0.4483  0.2402 -0.5906
  100MOL   S10447822   4.480   4.723   3.059  0.3421 -0.1335 -0.2810
  100MOL   O10547823   4.544   4.682   2.935 -0.0860 -0.0348  0.6899
  100MOL   O10647824   4.545   4.825   3.144  0.2239 -0.3505 -0.5600
  100MOL   C10747825   4.314   4.794   3.018 -0.0102  0.6792 -1.2954
  100MOL   C10847826   4.257   4.755   2.894  0.2368  0.1836  0.7101
  100MOL   C10947827   4.133   4.814   2.851  0.0376 -0.1905 -0.1518
  100MOL   C11047828   4.076   4.907   2.939  0.3467  0.1602 -0.1906
  100MOL   C11147829   4.132   4.937   3.064  0.4285  0.2109 -0.1285
  100MOL   C11247830   4.248   4.882   3.112  0.0126 -0.5846 -0.5072
  100MOL   O11347831   3.956   4.954   2.898 -0.2948 -0.0097  0.0961
  100MOL   H11447832   4.466   4.249   3.132 -0.5157 -0.6855  0.4898
  100MOL   H11547833   4.484   4.459   2.993 -0.6204 -1.2199 -0.5005
  100MOL   H11647834   4.432   4.699   3.341 -1.0528 -0.7286  1.2186
  100MOL   H11747835   4.415   4.489   3.480 -1.4661  2.0145 -1.1752
  100MOL   H11847836   4.309   4.685   2.830 -0.7773 -0.5263  0.6488
  100MOL   H11947837   4.081   4.787   2.760 -0.4780 -1.7708  0.5862
  100MOL   H12047838   4.072   5.003   3.125 -0.8914 -1.2380  0.1929
  100MOL   H12147839   4.282   4.907   3.211 -1.4629 -1.9636  0.3756
  100MOL   C12247840   3.779   4.985   3.042  0.3437 -0.2095 -0.1901
  100MOL   C12347841   3.670   4.930   3.113 -0.4772 -0.8772  0.0306
  100MOL   C12447842   3.624   4.793   3.093  0.0010 -0.8060  0.5053
  100MOL   C12547843   3.696   4.712   3.002 -0.0891  0.0492 -0.0378
  100MOL   C12647844   3.800   4.772   2.926 -0.7915  0.6841 -0.5107
  100MOL   C12747845   3.841   4.906   2.949 -0.0261 -0.4299  0.4083
  100MOL   S12847846   3.512   4.712   3.198  0.3047 -0.1506 -0.0962
  100MOL   O12947847   3.587   4.620   3.290  0.5521 -0.3430  0.5226
  100MOL   O13047848   3.393   4.669   3.114 -0.4211  0.2700 -0.4999
  100MOL   C13147849   3.450   4.838   3.303 -0.7890  0.5264  0.0453
  100MOL   C13247850   3.360   4.928   3.255 -0.3180  0.6365  0.2147
  100MOL   C13347851   3.317   5.023   3.339  0.2963  0.5653  0.3129
  100MOL   C13447852   3.354   5.031   3.474  0.1053  0.7787  0.4249
  100MOL   C13547853   3.444   4.936   3.528  0.5328 -0.2150 -0.3168
  100MOL   C13647854   3.495   4.834   3.441 -0.0072  0.3379 -0.5779
  100MOL   O13747855   3.306   5.132   3.550  0.2852  0.3948 -0.5366
  100MOL   H13847856   3.810   5.088   3.057  0.2954 -0.2090 -0.0897
  100MOL   H13947857   3.629   4.992   3.192  0.7954 -1.7852  1.4169
  100MOL   H14047858   3.661   4.610   2.988 -2.8189  0.3529  3.9057
  100MOL   H14147859   3.850   4.717   2.848  0.4074 -0.2356  0.8821
  100MOL   H14247860   3.318   4.913   3.157 -0.9260 -0.1164  0.5904
  100MOL   H14347861   3.252   5.099   3.299 -0.6016  0.0492  0.7719
  100MOL   H14447862   3.486   4.947   3.627  0.1250  1.0691 -0.2725
  100MOL   H14547863   3.572   4.766   3.475 -0.7596 -0.0673  0.3178
  100MOL   C14647864   3.104   5.069   3.669  0.0704 -0.7519 -0.8436
  100MOL   C14747865   2.968   5.085   3.688  0.8828  0.6012 -0.0400
  100MOL   C14847866   2.897   5.163   3.604  0.6150  0.1231 -0.5179
  100MOL   C14947867   2.954   5.237   3.499  0.2720  0.2900 -0.0148
  100MOL   C15047868   3.097   5.232   3.481 -0.4277  0.3296  0.2548
  100MOL   C15147869   3.170   5.140   3.566  0.6880  0.1297  0.3209
  100MOL   S15247870   2.714   5.172   3.623  0.2324 -0.3932  0.0935
  100MOL   O15347871   2.675   5.086   3.733 -0.9155  0.1949  0.0280
  100MOL   O15447872   2.649   5.164   3.489  0.0502  0.5720  0.5010
  100MOL   C15547873   2.704   5.343   3.689  0.5334  0.4669 -0.0723
  100MOL   C15647874   2.731   5.376   3.819 -0.4504 -0.5202 -0.5814
  100MOL   C15747875   2.704   5.504   3.872 -0.7955  0.1934 -0.2165
  100MOL   C15847876   2.640   5.601   3.797  0.1755 -0.2671  0.2992
  100MOL   C15947877   2.606   5.567   3.666 -0.0332  0.2417 -0.1980
  100MOL   C16047878   2.641   5.444   3.609 -0.0428  0.0161  0.5577
  100MOL   O16147879   2.606   5.722   3.847  0.1510  0.6539  0.1849
  100MOL   H16247880   3.164   4.998   3.724  2.7910  2.1756  0.1733
  100MOL   H16347881   2.924   5.028   3.769 -1.4096  1.8307 -0.3615
  100MOL   H16447882   2.888   5.299   3.439 -0.3568 -1.5773 -1.2897
  100MOL   H16547883   3.149   5.289   3.406  2.2744 -1.7584  0.4480
  100MOL   H16647884   2.770   5.304   3.889  0.4883 -1.0082 -1.5917
  100MOL   H16747885   2.728   5.540   3.971 -0.8937  2.1488 -0.8724
  100MOL   H16847886   2.553   5.640   3.605  0.0853  0.0409 -0.5412
  100MOL   H16947887   2.611   5.420   3.508  0.7171  2.2773 -0.2454
  100MOL   C17047888   2.696   5.913   3.963 -0.0512 -0.2722  0.2098
  100MOL   C17147889   2.779   6.016   3.972  0.0443  0.2242  0.0778
  100MOL   C17247890   2.859   6.054   3.867 -0.0894  0.4418  0.1423
  100MOL   C17347891   2.850   5.979   3.745  0.3185 -0.3152  0.4410
  100MOL   C17447892   2.779   5.859   3.741 -0.0545  0.1505 -0.6570
  100MOL   C17547893   2.695   5.826   3.850  1.0715 -0.5978 -0.1035
  100MOL   S17647894   2.973   6.197   3.880  0.4530  0.1105  0.1417
  100MOL   O17747895   3.076   6.183   3.777  0.1487  0.4224 -0.3937
  100MOL   O17847896   3.007   6.214   4.025 -0.3421 -0.4137  0.2159
  100MOL   C17947897   2.878   6.341   3.842  0.1249  0.3137  0.4762
  100MOL   C18047898   2.756   6.323   3.782 -0.4577 -0.4257  0.9777
  100MOL   C18147899   2.681   6.437   3.743  0.3213  0.3938 -0.1829
  100MOL   C18247900   2.725   6.564   3.786  0.3811  0.5797 -0.2399
  100MOL   C18347901   2.846   6.581   3.851  0.3217 -0.0865 -0.9337
  100MOL   C18447902   2.919   6.468   3.881 -0.0058 -0.4980 -0.0152
  100MOL   O18547903   2.659   6.683   3.750  0.1163  0.1339 -0.1702
  100MOL   H18647904   2.624   5.890   4.040  0.5874 -2.8156  0.1072
  100MOL   H18747905   2.776   6.072   4.064  0.0324  1.8715 -0.8903
  100MOL   H18847906   2.908   6.015   3.661 -0.5881 -0.5089 -0.2841
  100MOL   H18947907   2.787   5.799   3.652 -1.1624  1.1010 -1.3981
  100MOL   H19047908   2.712   6.228   3.756  0.3711 -0.6067  0.2510
  100MOL   H19147909   2.582   6.418   3.703  0.0423  0.5595  0.4248
  100MOL   H19247910   2.886   6.675   3.885 -0.9332 -0.3379  1.3730
  100MOL   H19347911   3.008   6.474   3.942 -0.3350 -2.5812  0.7300
  100MOL   C19447912   2.442   6.693   3.636  0.5369 -0.2680 -0.3543
  100MOL   C19547913   2.368   6.684   3.519 -0.0884 -0.1607  0.4906
  100MOL   C19647914   2.431   6.663   3.397  0.8345 -0.2407  0.3577
  100MOL   C19747915   2.572   6.638   3.396 -0.1585 -0.8414 -0.0763
  100MOL   C19847916   2.646   6.645   3.516  0.1446 -0.8761  0.0816
  100MOL   C19947917   2.580   6.682   3.634 -0.3056  0.5782  0.3057
  100MOL   S20047918   2.343   6.658   3.239 -0.0504  0.1453  0.0683
  100MOL   O20147919   2.423   6.579   3.144 -0.0976  0.4489  0.2352
  100MOL   O20247920   2.319   6.798   3.199 -0.0437 -0.1995 -0.0223
  100MOL   C20347921   2.191   6.574   3.275  0.2766 -0.7283 -0.6299
  100MOL   C20447922   2.178   6.434   3.277 -0.0827  0.0062 -0.9041
  100MOL   C20547923   2.054   6.371   3.298 -0.0401 -0.2005  0.1397
  100MOL   C20647924   1.936   6.445   3.314 -0.4476 -0.1672 -0.1478
  100MOL   C20747925   1.943   6.590   3.308 -0.0680  0.5691  1.1410
  100MOL   C20847926   2.070   6.650   3.284 -0.5816 -0.1350 -0.8151
  100MOL   O20947927   1.816   6.384   3.343  0.2702 -0.2210 -0.1870
  100MOL   H21047928   2.394   6.718   3.730  1.1981  2.2617 -0.6717
  100MOL   H21147929   2.262   6.703   3.522  0.0869  0.7530  1.0253
  100MOL   H21247930   2.628   6.623   3.305 -1.2800 -1.7439 -0.6309
  100MOL   H21347931   2.754   6.633   3.520  0.0670 -1.5386  0.2227
  100MOL   H21447932   2.267   6.375   3.259 -1.5432 -2.0719 -1.4514
  100MOL   H21547933   2.042   6.265   3.308  0.2234 -0.2219  0.2376
  100MOL   H21647934   1.852   6.647   3.318  0.1069  1.0423  0.0511
  100MOL   H21747935   2.077   6.757   3.282  2.3021 -0.3039 -1.5561
  100MOL   C21847936   1.731   6.313   3.133 -0.0597 -1.1772  0.3749
  100MOL   C21947937   1.696   6.211   3.046  0.4514 -0.1726 -0.4552
  100MOL   C22047938   1.719   6.077   3.082 -0.0655 -0.3896  0.1067
  100MOL   C22147939   1.765   6.044   3.208 -1.0633  0.5679  0.3015
  100MOL   C22247940   1.802   6.146   3.297  0.4381 -0.4770  0.0138
  100MOL   C22347941   1.787   6.284   3.255  0.1747 -0.1536  0.3904
  100MOL   S22447942   1.682   5.948   2.964  0.1199 -0.0415  0.3355
  100MOL   O22547943   1.796   5.865   2.940 -0.0820  0.4457 -0.0030
  100MOL   O22647944   1.635   6.019   2.839  0.5858  0.8744 -0.0256
  100MOL   C22747945   1.548   5.844   3.026 -0.4617 -0.3354  0.0803
  100MOL   C22847946   1.506   5.837   3.160 -0.4635 -0.7906  0.0530
  100MOL   C22947947   1.411   5.750   3.203  0.0745  0.2573  0.4506
  100MOL   C23047948   1.358   5.654   3.116  0.4796 -0.0693 -0.3974
  100MOL   C23147949   1.392   5.657   2.986 -0.5663  0.7084 -0.2354
  100MOL   C23247950   1.479   5.760   2.936 -0.1149 -0.1857 -0.0860
  100MOL   O23347951   1.265   5.570   3.170 -0.2505  0.0299 -0.4875
  100MOL   H23447952   1.707   6.415   3.105  1.9853 -0.8016 -0.0668
  100MOL   H23547953   1.657   6.236   2.949  0.6319 -0.1575 -0.5252
  100MOL   H23647954   1.791   5.944   3.238  0.8112  0.9703  0.1041
  100MOL   H23747955   1.846   6.131   3.395  1.0483  5.3828  0.8562
  100MOL   H23847956   1.544   5.905   3.236  0.2492 -1.3519  0.2020
  100MOL   H23947957   1.389   5.748   3.308  0.4067  0.8070  0.5340
  100MOL   H24047958   1.356   5.586   2.913 -1.3052 -0.2288  1.0493
  100MOL   H24147959   1.497   5.752   2.830 -3.9895 -2.9767 -0.6726
  100MOL   C24247960   1.311   5.332   3.182  0.0273  1.0236  1.0056
  100MOL   C24347961   1.302   5.205   3.125  0.5178 -0.3182 -0.4047
  100MOL   C24447962   1.225   5.183   3.011 -0.4246  0.0501 -0.3344
  100MOL   C24547963   1.154   5.287   2.957  0.0324 -0.1049  0.5389
  100MOL   C24647964   1.163   5.420   3.008 -0.0816  0.3638  0.2947
  100MOL   C24747965   1.248   5.440   3.123  0.6476 -0.6246 -0.0325
  100MOL   S24847966   1.204   5.016   2.945 -0.2502  0.3422  0.1533
  100MOL   O24947967   1.064   4.987   2.937 -0.0399  0.1304 -0.2383
  100MOL   O25047968   1.288   4.929   3.025  0.2299 -0.1271  0.2516
  100MOL   C25147969   1.280   5.022   2.776 -0.4989  0.3839 -0.2381
  100MOL   C25247970   1.195   5.050   2.666 -0.5657 -1.1317 -0.4592
  100MOL   C25347971   1.242   5.038   2.536 -0.7637 -0.4248  0.1706
  100MOL   C25447972   1.377   5.008   2.510  0.2644 -1.0129 -0.3911
  100MOL   C25547973   1.457   4.972   2.620  0.0946  0.3483 -0.7969
  100MOL   C25647974   1.410   4.975   2.750 -0.9321  0.2370  0.8485
  100MOL   O25747975   1.417   4.981   2.384 -1.0803 -0.0611 -0.5275
  100MOL   H25847976   1.369   5.353   3.271 -1.2436  0.5713  1.9502
  100MOL   H25947977   1.346   5.115   3.166  1.3977 -0.3268 -1.3117
  100MOL   H26047978   1.093   5.279   2.869 -0.1137  0.3487  0.5981
  100MOL   H26147979   1.118   5.501   2.953  1.7080  2.8285  2.3414
  100MOL   H26247980   1.094   5.084   2.684  0.4106  1.3081  0.6344
  100MOL   H26347981   1.180   5.057   2.449 -2.2418  0.1002  1.3336
  100MOL   H26447982   1.555   4.927   2.616  0.3650  0.7931  0.5041
  100MOL   H26547983   1.474   4.946   2.832 -0.5331  1.9893  1.1832
  100MOL   C26647984   1.624   4.957   2.264  0.3937  0.1301  0.4975
  100MOL   C26747985   1.733   5.016   2.200  0.4733  0.8310 -0.5071
  100MOL   C26847986   1.757   5.152   2.205  0.2449 -0.9130  0.3495
  100MOL   C26947987   1.661   5.238   2.258  0.3837 -0.6059 -0.3922
  100MOL   C27047988   1.538   5.187   2.318 -0.7123  0.0789  0.1544
  100MOL   C27147989   1.527   5.042   2.325  0.2530  0.7020  0.2173
  100MOL   S27247990   1.914   5.210   2.126 -0.6351  0.1997 -0.3596
  100MOL   O27347991   1.886   5.205   1.983 -0.3493  0.1210 -0.4771
  100MOL   O27447992   2.018   5.125   2.188  0.7324 -0.4006  0.6535
  100MOL   C27547993   1.940   5.378   2.189  0.6479  0.0760 -0.0881
  100MOL   C27647994   1.935   5.475   2.094 -0.1758 -0.7320  0.3909
  100MOL   C27747995   1.958   5.601   2.142  0.1670 -0.4217 -0.2449
  100MOL   C27847996   1.977   5.632   2.279 -0.4282 -0.3261 -0.8632
  100MOL   C27947997   1.983   5.525   2.375 -0.5637  0.8623 -0.2454
  100MOL   C28047998   1.963   5.396   2.327 -0.0446 -0.0543 -0.1408
  100MOL   O28147999   2.009   5.760   2.327  0.4545 -0.7086  0.4645
  100MOL   H28248000   1.617   4.849   2.260  3.1953 -0.1568  2.0619
  100MOL   H28348001   1.811   4.955   2.156 -0.8640 -0.3864 -1.2264
  100MOL   H28448002   1.693   5.341   2.264  0.2588 -0.5611 -0.4879
  100MOL   H28548003   1.470   5.250   2.373 -0.8648 -0.4719  0.6155
  100MOL   H28648004   1.928   5.454   1.989  4.1929  0.1910 -0.1954
  100MOL   H28748005   1.965   5.683   2.071  1.5020 -0.2982  0.0060
  100MOL   H28848006   1.991   5.546   2.480 -3.1932  0.4491  0.0530
  100MOL   H28948007   1.973   5.307   2.386  1.7709  0.1725 -0.0936
  100MOL   C29048008   1.804   5.856   2.255  0.7043 -0.3157  0.1906
  100MOL   C29148009   1.738   5.968   2.191 -0.1531  0.2921  0.1153
  100MOL   C29248010   1.806   6.089   2.165 -0.2833  0.2843  0.7893
  100MOL   C29348011   1.949   6.094   2.187 -0.0903 -0.2313 -0.5543
  100MOL   C29448012   2.016   5.977   2.242 -0.2284 -0.0740 -0.6346
  100MOL   C29548013   1.941   5.864   2.269 -0.4990  0.6229 -0.6664
  100MOL   S29648014   1.721   6.233   2.093  0.2275 -0.0582 -0.5511
  100MOL   O29748015   1.575   6.222   2.113  0.2977  0.2948 -0.0297
  100MOL   O29848016   1.764   6.252   1.957  0.5407 -0.4182  0.4553
  100MOL   C29948017   1.776   6.387   2.188  0.0040  0.6931 -0.3229
  100MOL   C30048018   1.882   6.464   2.137 -0.5273 -0.5907 -1.0450
  100MOL   C30148019   1.929   6.582   2.204 -0.3371  0.0796 -0.0918
  100MOL   C30248020   1.862   6.619   2.327 -0.1099  0.2038  0.3507
  100MOL   C30348021   1.760   6.538   2.379  0.0757  0.1935  0.4153
  100MOL   C30448022   1.719   6.420   2.311  0.0834 -0.4022 -0.4574
  100MOL   O30548023   1.882   6.734   2.395  0.7073  0.2365  0.7873
  100MOL   H30648024   1.739   5.773   2.276 -0.4644  0.7429  0.8547
  100MOL   H30748025   1.631   5.971   2.173 -0.5139  0.5232  2.1898
  100MOL   H30848026   1.995   6.190   2.172 -2.7287  1.2206  0.3578
  100MOL   H30948027   2.123   5.980   2.261 -0.3872 -0.9447  0.4923
  100MOL   H31048028   1.931   6.445   2.043  1.0719  1.3812 -0.6452
  100MOL   H31148029   2.009   6.632   2.152 -1.4823 -0.8124 -2.8013
  100MOL   H31248030   1.715   6.560   2.475 -0.0175  1.2850  0.1331
  100MOL   H31348031   1.646   6.357   2.358 -0.7309  1.7617  1.3183
  100MOL   C31448032   2.102   6.661   2.476  0.1576  0.6137 -0.2813
  100MOL   C31548033   2.208   6.673   2.565 -0.1415  0.0403 -0.5312
  100MOL   C31648034   2.196   6.763   2.672 -0.4862 -0.1478  0.2131
  100MOL   C31748035   2.071   6.826   2.696  1.4296  0.0839 -0.2533
  100MOL   C31848036   1.966   6.820   2.603 -0.5375 -0.5490 -0.4726
  100MOL   C31948037   1.978   6.736   2.489  0.1477 -0.5278  0.7989
  100MOL   S32048038   2.326   6.780   2.786 -0.3202 -0.3759  0.3410
  100MOL   O32148039   2.356   6.645   2.841  0.2481  0.1892  0.1446
  100MOL   O32248040   2.292   6.879   2.888 -0.2325 -0.4727 -0.3553
  100MOL   C32348041   2.467   6.836   2.677  0.0356 -0.5365  0.3929
  100MOL   C32448042   2.590   6.772   2.682  0.2763 -0.0882 -0.6209
  100MOL   C32548043   2.700   6.822   2.608 -0.0625 -0.1537 -0.3870
  100MOL   C32648044   2.678   6.929   2.514 -0.6326  0.7802 -0.8758
  100MOL   C32748045   2.551   6.990   2.508  0.3241  0.3487 -0.0901
  100MOL   C32848046   2.450   6.944   2.589  0.2096  0.3364  0.0494
  100MOL   O32948047   2.783   6.959   2.435 -0.0469 -0.0302 -0.3078
  100MOL   H33048048   2.107   6.594   2.392 -1.8970  0.6768 -0.4820
  100MOL   H33148049   2.295   6.609   2.553  0.0443 -0.2819  2.3374
  100MOL   H33248050   2.063   6.892   2.781 -1.7004 -0.1061 -0.3501
  100MOL   H33348051   1.871   6.868   2.618 -0.1344 -0.5047  2.1645
  100MOL   H33448052   2.598   6.684   2.744  0.9448 -1.3723 -2.4974
  100MOL   H33548053   2.798   6.776   2.614  0.8998  1.5308 -2.3267
  100MOL   H33648054   2.531   7.073   2.441  1.0745  0.0804 -0.6587
  100MOL   H33748055   2.354   6.991   2.578 -0.4359 -1.4803 -2.6022
  100MOL   C33848056   2.763   7.122   2.264  0.0960 -0.1680  0.1281
  100MOL   C33948057   2.774   7.259   2.221 -0.1751  0.6378  0.7017
  100MOL   C34048058   2.836   7.349   2.304 -0.5344 -0.3924 -0.5840
  100MOL   C34148059   2.866   7.323   2.443  0.0816  0.1079 -0.7613
  100MOL   C34248060   2.855   7.185   2.482 -0.3588 -0.2730  0.0561
  100MOL   C34348061   2.806   7.087   2.393  0.1387 -0.4787 -0.2371
  100MOL   S34448062   2.864   7.512   2.246 -0.4953  0.4469 -0.2266
  100MOL   O34548063   2.820   7.525   2.107  0.0893  0.3262  0.2431
  100MOL   O34648064   3.007   7.538   2.278 -0.2323 -0.7589 -0.2780
  100MOL   C34748065   2.756   7.605   2.359 -0.3973  0.2329 -0.3586
  100MOL   C34848066   2.797   7.737   2.393  0.2477  0.1446  0.3531
  100MOL   C34948067   2.718   7.821   2.472  0.2251 -0.0036  0.3526
  100MOL   C35048068   2.601   7.773   2.537  0.5847  1.2805 -0.1183
  100MOL   C35148069   2.564   7.641   2.516  0.9347  0.0221  0.2249
  100MOL   C35248070   2.638   7.562   2.424  0.5211  0.0762 -0.2988
  100MOL   O35348071   2.525   7.850   2.628  0.1035 -0.2187 -0.3750
  100MOL   H35448072   2.735   7.045   2.193  0.1014  1.2279 -1.4227
  100MOL   H35548073   2.757   7.283   2.117  1.8681  0.5551  0.3446
  100MOL   H35648074   2.902   7.399   2.511 -0.4761  0.3322 -0.7108
  100MOL   H35748075   2.876   7.158   2.585 -1.4334 -0.4345  0.2365
  100MOL   H35848076   2.891   7.767   2.349 -1.2711 -0.1532 -3.2579
  100MOL   H35948077   2.769   7.914   2.493 -0.1710 -0.0032  1.3195
  100MOL   H36048078   2.478   7.595   2.562  0.4282  0.6469 -0.0834
  100MOL   H36148079   2.602   7.464   2.396  1.2442 -0.3737  0.3163
  100MOL   C36248080   2.607   7.764   2.841 -0.6113 -0.2931 -0.4074
  100MOL   C36348081   2.668   7.775   2.964  0.1482 -0.2708  0.5641
  100MOL   C36448082   2.695   7.902   3.015 -0.1877 -0.2838  0.3650
  100MOL   C36548083   2.690   8.010   2.926  0.4430  0.0221  0.1185
  100MOL   C36648084   2.646   7.995   2.790 -0.0132  0.4917  0.0784
  100MOL   C36748085   2.592   7.873   2.749 -0.0138  0.0761  0.5300
  100MOL   S36848086   2.778   7.929   3.169 -0.2099 -0.0922 -0.1191
  100MOL   O36948087   2.733   8.057   3.225 -0.5367 -0.1488 -0.0396
  100MOL   O37048088   2.924   7.921   3.140 -0.7720 -0.2815  0.0321
  100MOL   C37148089   2.737   7.801   3.287  0.8209  0.4655 -0.6916
  100MOL   C37248090   2.844   7.765   3.375  0.0800 -0.0803  0.1463
  100MOL   C37348091   2.812   7.677   3.484 -0.7612  0.1588 -0.6090
  100MOL   C37448092   2.678   7.644   3.515 -0.2127  0.2755  0.5364
  100MOL   C37548093   2.575   7.679   3.425 -0.4309 -0.3741  0.4422
  100MOL   C37648094   2.603   7.760   3.315  0.0328 -0.2668  0.6142
  100MOL   O37748095   2.656   7.587   3.636  0.4011  0.3980 -0.2531
  100MOL   H37848096   2.564   7.671   2.806 -2.1765  0.2412  0.0329
  100MOL   H37948097   2.675   7.693   3.034  1.5705  0.4327  1.2717
  100MOL   H38048098   2.721   8.106   2.966 -1.3825  1.0740 -0.8745
  100MOL   H38148099   2.642   8.088   2.735  0.3154 -0.7442 -2.0964
  100MOL   H38248100   2.946   7.800   3.365  0.1196 -0.8152 -2.1120
  100MOL   H38348101   2.891   7.658   3.555 -0.5729 -0.9118 -1.0883
  100MOL   H38448102   2.473   7.647   3.436  0.0984 -1.6033  2.1450
  100MOL   H38548103   2.524   7.788   3.247  1.7032 -0.5079 -1.4982
  100MOL   C38648104   2.607   7.773   3.773 -0.2160  0.7811 -0.8035
  100MOL   C38748105   2.642   7.847   3.892 -0.3809  0.5001 -0.3743
  100MOL   C38848106   2.753   7.811   3.967  0.0920 -0.0993  0.0382
  100MOL   C38948107   2.820   7.688   3.943 -0.1788  0.1844  0.4066
  100MOL   C39048108   2.791   7.619   3.825 -1.1795  0.5512 -0.4967
  100MOL   C39148109   2.689   7.664   3.741  0.0350  0.1930 -0.2318
  100MOL   S39248110   2.790   7.893   4.120 -0.3732  0.5081 -0.3299
  100MOL   O39348111   2.937   7.884   4.141 -0.4385 -0.4121 -0.1932
  100MOL   O39448112   2.697   7.836   4.218 -0.1847  0.2040 -0.7768
  100MOL   C39548113   2.726   8.064   4.103  0.7057 -0.7368 -0.1146
  100MOL   C39648114   2.770   8.148   4.001 -0.3613  0.5572 -0.3945
  100MOL   C39748115   2.720   8.279   3.985 -0.6935 -0.2428 -0.4787
  100MOL   C39848116   2.615   8.322   4.071  0.1393 -0.5297  0.0061
  100MOL   C39948117   2.554   8.231   4.162  0.0470  0.6357  0.4778
  100MOL   C40048118   2.609   8.105   4.178 -0.2579 -0.5740 -0.4373
  100MOL   O40148119   2.574   0.029   4.067  0.0423 -0.2061  0.5499
  100MOL   H40248120   2.518   7.793   3.714 -0.6877 -1.3677 -0.8866
  100MOL   H40348121   2.580   7.930   3.922 -2.0824 -0.4753 -1.1076
  100MOL   H40448122   2.908   7.649   3.990 -0.0884 -0.7353 -0.5078
  100MOL   H40548123   2.846   7.529   3.802  0.8410  1.4727  0.6484
  100MOL   H40648124   2.857   8.118   3.946  0.2378  0.9288  0.3452
  100MOL   H40748125   2.761   8.357   3.922  1.3420 -0.1272  0.9474
  100MOL   H40848126   2.473   8.258   4.228 -0.9398 -0.2685 -0.3425
  100MOL   H40948127   2.553   8.040   4.244 -0.3762  2.1902  2.3043
  100MOL   C41048128   2.495   0.150   3.874  0.1798  0.4040 -0.2622
  100MOL   C41148129   2.385   0.200   3.804  0.1588 -0.4348 -0.3781
  100MOL   C41248130   2.259   0.135   3.813 -0.4444  0.3423  0.0924
  100MOL   C41348131   2.235   0.040   3.921 -0.2083  0.1076  0.4970
  100MOL   C41448132   2.339   0.005   4.007 -0.8365  0.1835 -0.6259
  100MOL   C41548133   2.468   0.061   3.984 -0.1306  0.0037  0.5996
  100MOL   S41648134   2.111   0.188   3.715  0.3007  0.4983 -0.2193
  100MOL   O41748135   2.150   0.261   3.591  0.0677  0.9160 -0.6767
  100MOL   O41848136   2.007   0.244   3.800 -0.1268  0.3997  0.5836
  100MOL   C41948137   2.043   0.034   3.656  0.0536  0.4570  0.3683
  100MOL   C42048138   2.123   8.340   3.663 -0.3610  0.5282  0.4163
  100MOL   C42148139   2.069   8.227   3.607  0.1707 -0.2443  0.0765
  100MOL   C42248140   1.945   8.223   3.536  0.9146 -0.2371  0.0936
  100MOL   C42348141   1.863   8.339   3.542 -0.4212  0.4432 -0.7009
  100MOL   C42448142   1.913   0.035   3.599  0.1526  0.2151 -0.1617
  100MOL   O42548143   1.894   8.104   3.487  0.8236 -0.4880 -0.6025
  100MOL   H42648144   2.592   0.195   3.858  1.9420 -2.6808  1.3851
  100MOL   H42748145   2.385   0.277   3.728  0.5358 -1.2219 -1.1800
  100MOL   H42848146   2.139   8.417   3.930  0.1172 -1.4703 -3.3890
  100MOL   H42948147   2.323   8.363   4.091 -1.5486 -1.1030 -1.7701
  100MOL   H43048148   2.215   8.340   3.719 -0.8092 -0.3523  1.1559
  100MOL   H43148149   2.130   8.138   3.610  0.5217 -0.0901 -2.0897
  100MOL   H43248150   1.774   8.338   3.481 -0.4143 -2.2019 -0.7222
  100MOL   H43348151   1.858   0.128   3.596 -2.4494 -1.2687  0.1726
  100MOL   C43448152   1.800   8.046   3.273 -0.1773  0.1709  0.3534
  100MOL   C43548153   1.822   8.010   3.137 -0.1364 -0.4134 -0.3747
  100MOL   C43648154   1.956   8.002   3.086 -0.2493 -0.1578 -0.5476
  100MOL   C43748155   2.067   8.041   3.165  0.4550  0.4042  0.3254
  100MOL   C43848156   2.043   8.064   3.307  0.0644  0.4787 -0.3005
  100MOL   C43948157   1.911   8.070   3.356 -0.3012  0.0949  0.3622
  100MOL   S44048158   1.983   7.994   2.915 -0.0859 -0.2172  0.1241
  100MOL   O44148159   2.108   7.920   2.892 -0.7920 -0.1713 -0.0788
  100MOL   O44248160   1.980   8.130   2.872 -0.1514 -0.0233 -0.4383
  100MOL   C44348161   1.838   7.904   2.854 -1.4019 -0.3304 -0.0781
  100MOL   C44448162   1.832   7.768   2.889  0.8631 -0.2242 -0.3587
  100MOL   C44548163   1.722   7.694   2.843  0.5175 -0.2813 -0.1464
  100MOL   C44648164   1.625   7.759   2.766 -0.3405 -0.1341 -0.1057
  100MOL   C44748165   1.636   7.895   2.728  0.2232 -0.3777 -0.8442
  100MOL   C44848166   1.740   7.971   2.778 -1.1082 -0.6728  0.2525
  100MOL   O44948167   1.511   7.692   2.736 -0.4814 -0.3788  0.0867
  100MOL   H45048168   1.701   8.050   3.317  0.1734 -0.5503  1.2247
  100MOL   H45148169   1.735   7.986   3.077  0.5553 -0.6677 -1.2956
  100MOL   H45248170   2.166   8.052   3.123  0.8910 -1.2039  0.8996
  100MOL   H45348171   2.123   8.072   3.379  0.7209  0.3548 -1.0108
  100MOL   H45448172   1.913   7.719   2.941  0.6313 -1.0489 -0.7655
  100MOL   H45548173   1.709   7.588   2.862  2.0162 -0.3505  0.5944
  100MOL   H45648174   1.566   7.945   2.663 -1.9087 -0.5406  1.2442
  100MOL   H45748175   1.763   8.076   2.767  0.3875 -1.0677 -0.5671
  100MOL   C45848176   1.508   7.665   2.493  0.0661  0.1022  0.4601
  100MOL   C45948177   1.531   7.587   2.380  0.4290 -0.1413  0.0985
  100MOL   C46048178   1.570   7.451   2.397  0.0138 -0.5777 -0.0387
  100MOL   C46148179   1.589   7.396   2.526 -0.5392  0.5362  0.0867
  100MOL   C46248180   1.564   7.476   2.640  0.1701 -0.1470  0.2293
  100MOL   C46348181   1.524   7.614   2.623 -0.2941  0.4376 -0.3175
  100MOL   S46448182   1.610   7.363   2.248  0.1388 -0.4207  0.2207
  100MOL   O46548183   1.523   7.245   2.249 -0.2046  0.2291  0.4030
  100MOL   O46648184   1.754   7.346   2.246  0.3223 -0.1999  0.2399
  100MOL   C46748185   1.563   7.468   2.108 -0.0729 -0.5461  0.7879
  100MOL   C46848186   1.643   7.583   2.078 -0.2092 -0.0684  0.0619
  100MOL   C46948187   1.602   7.671   1.978 -0.2061 -0.2279  0.0050
  100MOL   C47048188   1.484   7.640   1.910  1.1207 -0.4815 -0.0640
  100MOL   C47148189   1.405   7.532   1.937  0.0347  0.3070 -0.6048
  100MOL   C47248190   1.444   7.437   2.034 -0.4236 -0.4235 -0.3301
  100MOL   O47348191   1.446   7.729   1.816 -0.3669  0.4080 -0.0597
  100MOL   H47448192   1.483   7.770   2.480 -1.2711  0.5403  5.2684
  100MOL   H47548193   1.530   7.648   2.291  0.5698 -0.6913 -0.2825
  100MOL   H47648194   1.608   7.290   2.534  3.1152  1.0758 -0.3096
  100MOL   H47748195   1.582   7.434   2.738  1.7565 -3.3983 -1.3412
  100MOL   H47848196   1.736   7.595   2.131 -0.1596 -1.3764  0.2889
  100MOL   H47948197   1.663   7.754   1.946 -0.0674 -0.8900 -1.4985
  100MOL   H48048198   1.303   7.530   1.900  0.5115  0.8627 -1.9892
  100MOL   H48148199   1.383   7.353   2.063  1.7644 -1.7377  0.5483
  100MOL   H48248200   1.359   7.714   1.783  0.5596 -3.0545 -1.1210
  101MOL     C148201   0.907   7.254   7.677 -0.1466 -0.2013 -0.1444
  101MOL     C248202   0.992   7.182   7.593 -0.2768  0.3623  0.5668
  101MOL     C348203   1.017   7.046   7.608  0.0048  0.6237 -0.4732
  101MOL     C448204   0.944   6.981   7.710 -0.2268  0.1499  0.8550
  101MOL     C548205   0.866   7.057   7.801 -0.2257  0.4387 -0.3163
  101MOL     C648206   0.838   7.193   7.782 -0.9972 -0.0211 -0.0421
  101MOL     S748207   1.138   6.955   7.520 -0.4109  0.1670  0.3489
  101MOL     O848208   1.217   6.876   7.614  0.1155  0.1364 -0.3319
  101MOL     O948209   1.202   7.058   7.431 -0.5436  0.1083 -0.7496
  101MOL    C1048210   1.053   6.834   7.410 -0.5340 -0.0420 -0.0024
  101MOL    C1148211   0.919   6.848   7.369  0.0057 -0.3611  0.1193
  101MOL    C1248212   0.874   6.754   7.269 -0.2194  0.3134  0.5235
  101MOL    C1348213   0.948   6.646   7.226  0.2097  0.2941 -0.7143
  101MOL    C1448214   1.079   6.625   7.280  0.5231  0.5460 -0.6563
  101MOL    C1548215   1.129   6.728   7.366 -0.2304  0.2805  0.8511
  101MOL    O1648216   0.905   6.558   7.128  0.0196  0.6364 -0.4789
  101MOL    H1748217   0.905   7.358   7.648  0.9341 -0.6486 -1.9303
  101MOL    H1848218   1.053   7.230   7.518  1.5276 -2.0914  0.4314
  101MOL    H1948219   0.958   6.878   7.737 -2.9870 -0.3932  0.3927
  101MOL    H2048220   0.825   7.002   7.885  0.5315  0.0713 -0.1897
  101MOL    H2148221   0.864   6.935   7.401 -0.8354 -0.8097 -0.0874
  101MOL    H2248222   0.777   6.759   7.222  0.6561  0.6203 -1.3115
  101MOL    H2348223   1.149   6.550   7.247 -0.0758  0.4777 -1.7879
  101MOL    H2448224   1.227   6.718   7.412 -0.2406  0.1958  0.8542
  101MOL    H2548225   0.780   7.249   7.855  0.0079  0.6111  0.2934
  101MOL    C2648226   1.048   6.451   6.970 -0.6738  0.4882 -0.2746
  101MOL    C2748227   1.134   6.457   6.852 -0.7771 -0.4630 -0.4631
  101MOL    C2848228   1.128   6.578   6.779 -0.7872 -0.2581  0.6102
  101MOL    C2948229   1.035   6.684   6.808 -0.0157  0.1746  0.7282
  101MOL    C3048230   0.968   6.671   6.930 -0.6096  0.3510  0.1930
  101MOL    C3148231   0.966   6.559   7.007  0.1087  0.0471  0.5447
  101MOL    S3248232   1.253   6.605   6.658  0.1449  0.2905  0.0584
  101MOL    O3348233   1.199   6.545   6.535  0.7881  0.1067 -0.1332
  101MOL    O3448234   1.380   6.550   6.713 -0.0622 -0.5311  0.7469
  101MOL    C3548235   1.282   6.782   6.640 -0.3185  0.2860  0.2091
  101MOL    C3648236   1.269   6.836   6.512 -0.1977 -0.3538 -0.8057
  101MOL    C3748237   1.272   6.976   6.504 -0.3562 -0.1296  0.2045
  101MOL    C3848238   1.272   7.059   6.616  0.9742  0.2695  0.0855
  101MOL    C3948239   1.293   6.999   6.741 -0.3231 -0.2180  0.6715
  101MOL    C4048240   1.308   6.857   6.753 -0.3389  0.0721 -0.6330
  101MOL    O4148241   1.260   7.196   6.597 -0.4383  0.5750 -0.4554
  101MOL    H4248242   1.045   6.366   7.036  0.9078  0.9279  0.3912
  101MOL    H4348243   1.196   6.376   6.817  0.6426  0.7006 -0.7012
  101MOL    H4448244   1.037   6.779   6.758 -1.7652 -0.8388 -1.3767
  101MOL    H4548245   0.914   6.759   6.962 -1.4886 -0.4437  0.8977
  101MOL    H4648246   1.257   6.779   6.421 -1.4726 -2.7008  0.7671
  101MOL    H4748247   1.261   7.000   6.399  1.2676 -1.2624 -0.2542
  101MOL    H4848248   1.294   7.058   6.832 -0.7677  1.1185 -0.1785
  101MOL    H4948249   1.311   6.807   6.848  1.2224 -0.8393 -1.1451
  101MOL    C5048250   1.026   7.214   6.659 -0.2884  0.4494  0.1304
  101MOL    C5148251   0.898   7.248   6.611  0.0823  0.1674  0.1433
  101MOL    C5248252   0.879   7.320   6.492  0.5215  0.8038  0.5608
  101MOL    C5348253   0.989   7.368   6.415  0.2034 -0.0485 -0.0194
  101MOL    C5448254   1.116   7.328   6.463 -0.4770 -0.6087 -0.2260
  101MOL    C5548255   1.136   7.251   6.575 -1.1067  0.4670  0.0255
  101MOL    S5648256   0.717   7.356   6.423  0.0589  0.0777  0.1171
  101MOL    O5748257   0.694   7.502   6.437  0.1477  0.0549  0.4401
  101MOL    O5848258   0.625   7.254   6.482 -0.0759 -0.3549  0.1331
  101MOL    C5948259   0.738   7.326   6.251 -1.1292 -0.2139  1.2040
  101MOL    C6048260   0.816   7.214   6.211 -1.1932 -0.5950  0.5121
  101MOL    C6148261   0.817   7.188   6.072  0.8214  0.7149 -0.2312
  101MOL    C6248262   0.747   7.267   5.980 -0.0426 -0.6344 -0.2967
  101MOL    C6348263   0.680   7.383   6.019  0.6821  0.0293 -0.2507
  101MOL    C6448264   0.683   7.415   6.155 -0.0843 -0.1273 -0.6100
  101MOL    O6548265   0.754   7.243   5.845 -0.2937 -0.0803  0.0016
  101MOL    H6648266   1.040   7.165   6.755 -2.7078 -0.5569  0.0135
  101MOL    H6748267   0.807   7.216   6.660  0.7475 -1.1354  0.5701
  101MOL    H6848268   0.989   7.430   6.327  2.2653 -0.4853 -0.3371
  101MOL    H6948269   1.211   7.347   6.415 -0.1143 -0.5345  0.4983
  101MOL    H7048270   0.860   7.138   6.274 -1.0744  0.2093  1.4203
  101MOL    H7148271   0.865   7.097   6.041 -2.4088 -1.3640  0.6271
  101MOL    H7248272   0.636   7.440   5.938 -1.8406 -3.2029 -1.2598
  101MOL    H7348273   0.620   7.500   6.179  1.1495  1.2622 -2.1472
  101MOL    C7448274   0.591   7.061   5.812  0.0722 -0.3798  0.4206
  101MOL    C7548275   0.558   6.935   5.765 -0.1945  0.3853 -0.5475
  101MOL    C7648276   0.658   6.854   5.708 -1.0072  0.2678  0.6423
  101MOL    C7748277   0.790   6.908   5.680  0.6393  0.6490 -0.1568
  101MOL    C7848278   0.818   7.036   5.731  0.5083  0.4084  0.1378
  101MOL    C7948279   0.721   7.117   5.795  0.6065  0.0080  0.4538
  101MOL    S8048280   0.618   6.692   5.663  0.5624  0.0535  0.1495
  101MOL    O8148281   0.672   6.665   5.525 -0.0440  0.1193 -0.2055
  101MOL    O8248282   0.476   6.673   5.687 -0.2019 -0.1710  0.2595
  101MOL    C8348283   0.713   6.584   5.781  0.3124  0.1524 -0.1664
  101MOL    C8448284   0.749   6.629   5.908 -0.7417 -0.1149 -0.8380
  101MOL    C8548285   0.820   6.546   5.995 -0.0033 -0.2071 -0.0304
  101MOL    C8648286   0.856   6.414   5.957 -0.1208  0.3747 -0.1928
  101MOL    C8748287   0.813   6.367   5.830 -0.2486 -0.0357 -0.3133
  101MOL    C8848288   0.751   6.456   5.737  0.0014  0.1538 -0.3959
  101MOL    O8948289   0.930   6.339   6.040  0.3275 -0.9889 -0.3215
  101MOL    H9048290   0.523   7.130   5.861 -0.5021  0.4746 -1.5580
  101MOL    H9148291   0.459   6.898   5.786  1.1338 -3.6822 -1.1188
  101MOL    H9248292   0.873   6.844   5.652 -0.3332  0.5660 -2.9864
  101MOL    H9348293   0.918   7.075   5.715  1.3038 -0.5864  2.4487
  101MOL    H9448294   0.733   6.727   5.951  0.5891  0.1623 -0.9635
  101MOL    H9548295   0.842   6.577   6.096 -0.0169 -0.0682 -0.0709
  101MOL    H9648296   0.831   6.268   5.791 -0.8820 -0.9741  1.6939
  101MOL    H9748297   0.723   6.428   5.637  1.4249  0.2493 -0.8223
  101MOL    C9848298   1.117   6.321   5.881  0.3699  0.9446 -0.9521
  101MOL    C9948299   1.240   6.262   5.851  0.2112 -1.3121 -0.8767
  101MOL   C10048300   1.312   6.188   5.949 -0.0514  0.4045  0.1694
  101MOL   C10148301   1.246   6.148   6.065 -0.0582  0.7212  0.8807
  101MOL   C10248302   1.117   6.192   6.092 -0.3051  0.1635 -0.7596
  101MOL   C10348303   1.056   6.290   6.007  0.3149 -0.1564  0.0629
  101MOL   S10448304   1.484   6.134   5.929  0.0326 -0.1474  0.0375
  101MOL   O10548305   1.504   6.015   6.007 -0.8017  0.2604 -0.5451
  101MOL   O10648306   1.567   6.249   5.963  0.1221  0.0980  0.0123
  101MOL   C10748307   1.514   6.101   5.755  0.6112  0.2630 -0.2154
  101MOL   C10848308   1.599   6.184   5.675  0.0529  0.6132 -0.1633
  101MOL   C10948309   1.629   6.156   5.540  0.6932  0.4829  0.4046
  101MOL   C11048310   1.582   6.034   5.492  0.1017  0.3756 -0.2505
  101MOL   C11148311   1.512   5.946   5.572  0.7989 -0.5292  0.0527
  101MOL   C11248312   1.465   5.985   5.699  0.0070  0.6362  0.0825
  101MOL   O11348313   1.599   5.998   5.364 -0.3442 -0.6369 -0.6962
  101MOL   H11448314   1.063   6.380   5.809 -0.4500  1.8245  0.3571
  101MOL   H11548315   1.298   6.305   5.770 -0.1372  2.4142  0.7394
  101MOL   H11648316   1.308   6.090   6.132 -1.2615 -1.8030 -0.1307
  101MOL   H11748317   1.075   6.168   6.188  4.0380  0.5024  1.3467
  101MOL   H11848318   1.637   6.271   5.726 -0.5964  0.7519  0.0954
  101MOL   H11948319   1.698   6.218   5.486  1.4115 -0.8454 -0.2283
  101MOL   H12048320   1.487   5.851   5.527  1.4895 -0.5035 -0.3772
  101MOL   H12148321   1.403   5.917   5.755 -0.5378  1.2491  0.2458
  101MOL   C12248322   1.737   5.804   5.352 -0.7619 -0.5047 -0.3861
  101MOL   C12348323   1.862   5.746   5.317 -0.3443  0.4767  0.1137
  101MOL   C12448324   1.971   5.831   5.291  0.2616 -0.3595  0.8536
  101MOL   C12548325   1.957   5.971   5.282  1.2972  0.6869 -0.4634
  101MOL   C12648326   1.831   6.023   5.306 -0.0641  0.2494  0.0495
  101MOL   C12748327   1.722   5.942   5.335  0.3378 -0.1611  0.0805
  101MOL   S12848328   2.128   5.758   5.244 -0.0853 -0.2855 -0.0276
  101MOL   O12948329   2.154   5.801   5.104  0.4306  0.1968 -0.0490
  101MOL   O13048330   2.132   5.621   5.290 -0.2091 -0.7135  0.4181
  101MOL   C13148331   2.243   5.845   5.359 -0.1240  0.4025  0.2520
  101MOL   C13248332   2.372   5.865   5.311 -0.2050  0.4947  0.5158
  101MOL   C13348333   2.472   5.926   5.392 -0.2203  0.3260  0.1866
  101MOL   C13448334   2.440   5.975   5.523 -0.1939 -0.6995  0.0752
  101MOL   C13548335   2.311   5.951   5.565 -0.0873 -0.4036 -0.0090
  101MOL   C13648336   2.203   5.893   5.487 -1.0928 -0.4442  0.4970
  101MOL   O13748337   2.529   6.038   5.608  0.6746  0.1443  0.2790
  101MOL   H13848338   1.645   5.748   5.365  0.4366 -2.7200 -1.2010
  101MOL   H13948339   1.873   5.638   5.320 -1.5070  0.3716  1.2126
  101MOL   H14048340   2.047   6.029   5.266  1.1149  0.0954 -3.8444
  101MOL   H14148341   1.813   6.128   5.291 -1.4841  0.0039 -0.0467
  101MOL   H14248342   2.392   5.833   5.210  0.1332 -0.0704  0.7585
  101MOL   H14348343   2.571   5.941   5.350 -0.0150  0.1824  0.6131
  101MOL   H14448344   2.280   5.989   5.661  1.4441 -0.3446  0.4654
  101MOL   H14548345   2.102   5.887   5.523 -1.6742 -1.8134 -1.3227
  101MOL   C14648346   2.668   6.177   5.452 -0.3873 -0.3243  0.6360
  101MOL   C14748347   2.782   6.197   5.384 -0.8380  0.2847 -0.2179
  101MOL   C14848348   2.892   6.116   5.421 -0.2964 -0.0105  0.2041
  101MOL   C14948349   2.889   6.027   5.529 -0.5070  0.1425 -0.3362
  101MOL   C15048350   2.766   6.008   5.595 -0.5784  0.2428  0.2404
  101MOL   C15148351   2.653   6.077   5.552 -0.1934 -0.1141 -0.0241
  101MOL   S15248352   3.047   6.140   5.330 -0.1429 -0.2505 -0.1687
  101MOL   O15348353   3.155   6.103   5.422 -0.2045 -0.7780  0.3865
  101MOL   O15448354   3.048   6.276   5.267 -0.5147 -0.9754  0.1979
  101MOL   C15548355   3.050   6.015   5.198 -0.1889 -0.0458 -0.2919
  101MOL   C15648356   3.043   6.069   5.074 -0.3053 -0.1784  0.5543
  101MOL   C15748357   3.032   5.972   4.969 -0.0873 -1.0509 -0.2859
  101MOL   C15848358   3.039   5.830   4.992 -0.2644 -0.3739 -0.3290
  101MOL   C15948359   3.063   5.784   5.125  0.9193  0.9531  0.6782
  101MOL   C16048360   3.067   5.879   5.228  0.1400 -0.1570  0.8716
  101MOL   O16148361   3.028   5.747   4.884 -0.1987 -0.0576  0.0564
  101MOL   H16248362   2.579   6.235   5.431  1.4406  3.6025  3.2157
  101MOL   H16348363   2.794   6.271   5.306  0.5606  1.5327  1.1470
  101MOL   H16448364   2.974   5.961   5.542 -0.0144  1.0007  0.9153
  101MOL   H16548365   2.754   5.929   5.668  0.7305  0.9761  1.2629
  101MOL   H16648366   3.034   6.174   5.049  1.2533 -0.0622  0.4453
  101MOL   H16748367   3.021   6.009   4.868 -2.4747  0.8226  0.6141
  101MOL   H16848368   3.079   5.680   5.151  2.1439  0.9541 -0.0687
  101MOL   H16948369   3.090   5.843   5.328 -0.7995  0.2614  1.2524
  101MOL   C17048370   2.996   5.510   4.830  0.2628  0.8986  0.0922
  101MOL   C17148371   2.919   5.395   4.845  0.7228  0.2661 -1.0086
  101MOL   C17248372   2.803   5.397   4.924 -0.2701 -0.5313  0.0956
  101MOL   C17348373   2.757   5.517   4.982  0.2254  0.6075  0.4882
  101MOL   C17448374   2.832   5.634   4.969 -0.5897 -0.0791  0.4369
  101MOL   C17548375   2.954   5.625   4.902  0.0320 -0.6708 -0.1389
  101MOL   S17648376   2.720   5.244   4.964 -0.2936 -0.3214 -0.0723
  101MOL   O17748377   2.742   5.158   4.850 -0.3662  0.0681  0.2237
  101MOL   O17848378   2.585   5.268   5.012  0.6335 -0.0796  0.0013
  101MOL   C17948379   2.819   5.183   5.102 -0.0854  0.9945  0.0378
  101MOL   C18048380   2.918   5.264   5.165  0.3541 -1.0625  0.0327
  101MOL   C18148381   2.997   5.213   5.268  0.3185 -0.5715 -0.0848
  101MOL   C18248382   2.971   5.084   5.320 -0.0069 -0.0809 -0.2089
  101MOL   C18348383   2.879   4.999   5.252 -0.5916 -0.5802 -0.0335
  101MOL   C18448384   2.814   5.044   5.137  0.0330  0.3098  0.7535
  101MOL   O18548385   3.038   5.049   5.432  0.2958 -0.0400 -1.0542
  101MOL   H18648386   3.092   5.512   4.781 -0.2635  1.9301 -0.9018
  101MOL   H18748387   2.960   5.297   4.828  1.6602  0.2841  0.9695
  101MOL   H18848388   2.672   5.521   5.049  0.3537  1.5819  0.6082
  101MOL   H18948389   2.804   5.725   5.020  1.4660  0.2304  1.0619
  101MOL   H19048390   2.940   5.364   5.131 -0.5848 -0.5618  0.8637
  101MOL   H19148391   3.062   5.280   5.323 -0.8874 -1.2672  2.2463
  101MOL   H19248392   2.856   4.901   5.290 -0.0026 -1.7505 -2.5817
  101MOL   H19348393   2.754   4.967   5.091  1.7779 -0.3208 -0.5197
  101MOL   C19448394   3.039   5.199   5.621  0.7322 -0.4850 -0.1918
  101MOL   C19548395   2.972   5.256   5.729 -0.5210  0.1679  0.0365
  101MOL   C19648396   2.848   5.209   5.768  0.1689  0.3691 -0.5981
  101MOL   C19748397   2.800   5.087   5.716  0.0180 -0.3011  0.1066
  101MOL   C19848398   2.871   5.030   5.604  0.5848 -0.5666 -0.7683
  101MOL   C19948399   2.983   5.088   5.552  0.4633  0.5535  0.0770
  101MOL   S20048400   2.756   5.286   5.906 -0.1719 -0.4827  0.1634
  101MOL   O20148401   2.808   5.424   5.906  0.1720 -0.3455 -0.7845
  101MOL   O20248402   2.761   5.197   6.024  0.4145  0.3696 -0.1284
  101MOL   C20348403   2.586   5.305   5.854 -0.3486 -0.2383  0.0712
  101MOL   C20448404   2.560   5.332   5.717  0.1973  0.7173  0.2271
  101MOL   C20548405   2.425   5.327   5.670  0.6390 -0.2634 -0.0918
  101MOL   C20648406   2.318   5.292   5.762 -0.2778  0.1182 -0.4171
  101MOL   C20748407   2.353   5.263   5.896  0.4965 -0.4838  0.2627
  101MOL   C20848408   2.485   5.272   5.943 -0.4312 -0.4732 -0.3338
  101MOL   O20948409   2.197   5.264   5.711 -0.2111 -0.3570  0.2988
  101MOL   H21048410   3.126   5.250   5.583  1.2324 -1.9282 -0.9911
  101MOL   H21148411   3.013   5.348   5.767 -0.9314  0.4440 -0.1926
  101MOL   H21248412   2.706   5.044   5.747 -2.2828  1.0759 -4.4910
  101MOL   H21348413   2.842   4.938   5.557 -0.7492  0.1208 -1.2916
  101MOL   H21448414   2.644   5.346   5.651  0.5927  0.5380  0.6923
  101MOL   H21548415   2.408   5.326   5.564 -1.1781  1.0379  0.1525
  101MOL   H21648416   2.273   5.231   5.961 -0.5504  0.1954 -0.6720
  101MOL   H21748417   2.506   5.246   6.045  0.8729 -0.5008 -0.5987
  101MOL   C21848418   2.120   5.491   5.683  0.3857  0.0216  0.1967
  101MOL   C21948419   2.021   5.588   5.712 -0.3001  0.8247  1.1522
  101MOL   C22048420   1.901   5.545   5.775 -0.6133  0.8052  0.0581
  101MOL   C22148421   1.880   5.416   5.815  0.1572 -0.2447 -0.4829
  101MOL   C22248422   1.986   5.322   5.796  0.7714 -0.1660 -0.3014
  101MOL   C22348423   2.102   5.359   5.729  0.2592  0.5646  0.1455
  101MOL   S22448424   1.777   5.664   5.816  0.4609  0.2988 -0.0814
  101MOL   O22548425   1.656   5.591   5.861  0.1902  0.5680 -0.2525
  101MOL   O22648426   1.769   5.759   5.706 -0.3553 -0.0164 -0.5156
  101MOL   C22748427   1.835   5.757   5.954 -0.6562  0.5151  0.0538
  101MOL   C22848428   1.778   5.892   5.968 -0.2486  0.3470  0.2238
  101MOL   C22948429   1.817   5.975   6.074  0.8041  0.4785 -0.1823
  101MOL   C23048430   1.913   5.923   6.169  0.1811  0.0564  0.3174
  101MOL   C23148431   1.970   5.797   6.152 -0.3481  0.4079  0.4273
  101MOL   C23248432   1.930   5.715   6.049  0.7857 -0.1222  0.7761
  101MOL   O23348433   1.960   6.004   6.274 -0.9049  0.4979  0.1409
  101MOL   H23448434   2.208   5.519   5.627  1.0406  1.4704  1.8738
  101MOL   H23548435   2.029   5.690   5.680  0.7692  1.1249  2.3416
  101MOL   H23648436   1.787   5.379   5.856  0.7753 -0.5787  0.6569
  101MOL   H23748437   1.968   5.223   5.835 -0.5211  0.0528 -0.2979
  101MOL   H23848438   1.696   5.907   5.900 -0.2037  2.2502  0.5570
  101MOL   H23948439   1.768   6.071   6.081  0.5421  0.6127 -3.2808
  101MOL   H24048440   2.043   5.761   6.224 -1.0586  1.4857  1.7075
  101MOL   H24148441   1.967   5.615   6.030 -0.5959 -0.3220 -0.9586
  101MOL   C24248442   1.824   5.985   6.469  0.8663 -0.2045  0.8328
  101MOL   C24348443   1.807   5.934   6.604  0.5906  0.4335 -0.0383
  101MOL   C24448444   1.915   5.855   6.659 -0.4356  0.4244  0.2564
  101MOL   C24548445   2.032   5.823   6.592 -0.0618 -0.2058  0.4585
  101MOL   C24648446   2.049   5.886   6.471  0.2282  1.0163  0.8387
  101MOL   C24748447   1.948   5.959   6.403 -0.6224  0.4550  0.2698
  101MOL   S24848448   1.893   5.798   6.830  0.0598  0.2746 -0.1998
  101MOL   O24948449   1.972   5.676   6.851  0.4414  0.4747 -0.1625
  101MOL   O25048450   1.749   5.793   6.863 -0.0964  0.4249  0.3507
  101MOL   C25148451   1.952   5.939   6.927  0.4126 -1.1021  1.2821
  101MOL   C25248452   2.036   5.921   7.035 -0.2916  0.6401 -0.3003
  101MOL   C25348453   2.100   6.028   7.096 -0.0683 -0.0975 -0.1633
  101MOL   C25448454   2.078   6.159   7.052 -0.3589 -0.6601 -0.9623
  101MOL   C25548455   1.982   6.187   6.955 -0.2355  0.0308  0.5570
  101MOL   C25648456   1.920   6.076   6.891 -0.1930 -0.3765 -0.0078
  101MOL   O25748457   2.154   6.258   7.112  0.5585 -0.0081  0.5892
  101MOL   H25848458   1.738   6.034   6.425  0.9428 -1.9288 -1.3094
  101MOL   H25948459   1.713   5.940   6.655 -0.5566  1.7146 -2.2395
  101MOL   H26048460   2.114   5.774   6.643  0.7654  0.4605 -0.2234
  101MOL   H26148461   2.145   5.879   6.422  0.2911 -2.2551  1.3213
  101MOL   H26248462   2.063   5.824   7.074  0.2755  0.1103 -2.0072
  101MOL   H26348463   2.166   6.031   7.181 -0.6603  0.3120  0.2862
  101MOL   H26448464   1.953   6.289   6.935  0.4183  0.3962  1.4253
  101MOL   H26548465   1.849   6.091   6.812 -1.0198  1.5053  1.0513
  101MOL   C26648466   2.218   6.485   7.059  0.0744 -0.4595  0.2847
  101MOL   C26748467   2.289   6.573   6.971  0.3153  0.8158 -0.6943
  101MOL   C26848468   2.362   6.521   6.860  0.7680 -0.4895 -0.1094
  101MOL   C26948469   2.354   6.387   6.828  0.1355 -0.1053  0.3712
  101MOL   C27048470   2.282   6.298   6.909 -1.0751 -0.4793 -0.3518
  101MOL   C27148471   2.220   6.346   7.029  0.2361  0.4860  0.2114
  101MOL   S27248472   2.474   6.631   6.757 -0.1398 -0.1353  0.1963
  101MOL   O27348473   2.546   6.552   6.654 -0.0988 -0.1987 -0.6133
  101MOL   O27448474   2.557   6.718   6.848  0.5870 -0.0086 -0.0343
  101MOL   C27548475   2.374   6.744   6.671  0.7135 -0.1188  0.4597
  101MOL   C27648476   2.257   6.695   6.610  0.2994 -0.1380 -0.0931
  101MOL   C27748477   2.168   6.777   6.534 -0.6217 -0.0750  0.5209
  101MOL   C27848478   2.205   6.916   6.521  0.8552 -0.2588  0.9700
  101MOL   C27948479   2.321   6.962   6.588  0.8964 -0.2561  0.0194
  101MOL   C28048480   2.406   6.876   6.658 -0.0568 -0.4828  0.5505
  101MOL   O28148481   2.140   7.004   6.444 -0.0342 -0.2390  0.0450
  101MOL   H28248482   2.169   6.521   7.148  0.7061  1.1362 -0.0011
  101MOL   H28348483   2.292   6.679   6.991 -0.2949  1.0927 -2.0030
  101MOL   H28448484   2.402   6.344   6.741 -2.0891 -0.6297 -0.6336
  101MOL   H28548485   2.275   6.193   6.884 -0.5429 -0.5047 -0.3936
  101MOL   H28648486   2.239   6.589   6.605 -2.9917  0.4243 -1.7804
  101MOL   H28748487   2.080   6.750   6.477 -0.6217 -1.0581  0.9894
  101MOL   H28848488   2.342   7.065   6.564 -0.4659 -0.0419 -0.3078
  101MOL   H28948489   2.498   6.922   6.691 -0.0515 -1.0895  1.3795
  101MOL   C29048490   2.175   6.905   6.226 -0.3030  0.4778 -0.4904
  101MOL   C29148491   2.224   6.922   6.094  0.0581  0.2216  0.5833
  101MOL   C29248492   2.267   7.046   6.050 -0.4000 -0.6172  0.7348
  101MOL   C29348493   2.274   7.150   6.139  0.2259  0.0460 -0.0647
  101MOL   C29448494   2.240   7.140   6.276 -0.7612 -0.0414  0.2425
  101MOL   C29548495   2.184   7.020   6.317 -0.4209  0.1168 -0.1820
  101MOL   S29648496   2.318   7.064   5.879 -0.2792 -0.0446 -0.4541
  101MOL   O29748497   2.420   6.964   5.843 -0.0291 -0.3804  0.4449
  101MOL   O29848498   2.360   7.202   5.859 -0.2306 -0.1368 -0.0728
  101MOL   C29948499   2.168   7.055   5.783 -0.0236 -0.3653  0.3668
  101MOL   C30048500   2.061   7.140   5.810 -0.2814  0.5639 -0.8045
  101MOL   C30148501   1.942   7.137   5.731 -0.1648  0.6454  0.0015
  101MOL   C30248502   1.928   7.044   5.625 -0.2100  0.0700 -0.4714
  101MOL   C30348503   2.035   6.956   5.591 -0.3254 -0.1649 -0.0822
  101MOL   C30448504   2.157   6.965   5.672 -0.2563 -0.5781  0.2855
  101MOL   O30548505   1.813   7.044   5.562 -0.4415 -0.2450  0.1272
  101MOL   H30648506   2.141   6.812   6.269  0.6237  0.7951  0.9919
  101MOL   H30748507   2.238   6.837   6.030  0.9430  0.4773  0.4337
  101MOL   H30848508   2.311   7.244   6.102 -1.4347  0.9038  0.3978
  101MOL   H30948509   2.241   7.226   6.341  0.1158  0.1737 -0.0560
  101MOL   H31048510   2.064   7.208   5.894 -0.3233 -0.5111  0.0737
  101MOL   H31148511   1.856   7.193   5.764  0.0306 -0.3483  2.3113
  101MOL   H31248512   2.030   6.875   5.519  3.7527 -0.8103  0.2535
  101MOL   H31348513   2.242   6.899   5.657 -0.8771 -1.0199 -1.3652
  101MOL   C31448514   1.749   6.847   5.433 -0.2331 -0.7384  0.1124
  101MOL   C31548515   1.675   6.732   5.421  0.6264 -0.3439  0.1154
  101MOL   C31648516   1.588   6.694   5.527  0.6953  1.0184 -0.7224
  101MOL   C31748517   1.578   6.782   5.639 -0.5199 -0.6040 -0.0952
  101MOL   C31848518   1.650   6.900   5.654  0.4355  0.4069  0.6024
  101MOL   C31948519   1.742   6.928   5.555  0.3329 -0.3489 -0.2066
  101MOL   S32048520   1.477   6.551   5.517  0.2490  0.0939  0.3510
  101MOL   O32148521   1.437   6.522   5.654  0.0290  0.3941  0.1637
  101MOL   O32248522   1.547   6.447   5.444 -0.3443 -0.0610  0.4780
  101MOL   C32348523   1.338   6.596   5.414 -0.1852 -0.7923  0.1635
  101MOL   C32448524   1.213   6.545   5.446 -0.0874 -0.0968  0.2326
  101MOL   C32548525   1.105   6.578   5.364 -0.4145 -0.1133  0.0915
  101MOL   C32648526   1.121   6.661   5.251  0.4449  1.2232 -0.8795
  101MOL   C32748527   1.253   6.703   5.212 -0.1329 -0.0002 -0.3232
  101MOL   C32848528   1.362   6.672   5.293 -0.8816 -0.2756  0.3361
  101MOL   O32948529   1.006   6.682   5.174  0.2606 -0.2688 -0.5230
  101MOL   H33048530   1.824   6.882   5.363 -0.0963  1.9374  1.5301
  101MOL   H33148531   1.703   6.671   5.336  1.3220 -0.8492  0.6960
  101MOL   H33248532   1.510   6.755   5.718  0.0346  3.0460  1.6943
  101MOL   H33348533   1.633   6.961   5.742 -1.8597  1.4068 -0.5215
  101MOL   H33448534   1.201   6.472   5.525  3.0946  0.1203  0.9605
  101MOL   H33548535   1.011   6.535   5.395  0.8086 -1.6937  1.7090
  101MOL   H33648536   1.266   6.764   5.125  1.2523  2.2370  1.4010
  101MOL   H33748537   1.462   6.710   5.273 -1.5690  1.9223  1.0079
  101MOL   C33848538   0.816   6.816   5.113  0.3753  0.4864  0.1433
  101MOL   C33948539   0.730   6.923   5.142 -0.0230 -0.1413 -0.2070
  101MOL   C34048540   0.756   7.008   5.249  0.1135  0.3330  0.1701
  101MOL   C34148541   0.869   6.985   5.325  0.1798  0.6929  0.2294
  101MOL   C34248542   0.957   6.879   5.303 -0.1048 -0.4270  0.1955
  101MOL   C34348543   0.928   6.793   5.196  0.0277 -0.4193  0.2360
  101MOL   S34448544   0.646   7.137   5.289  0.0627 -0.1951 -0.2111
  101MOL   O34548545   0.613   7.207   5.166 -0.4731 -0.0578 -0.1392
  101MOL   O34648546   0.687   7.212   5.406 -0.1390  0.0062 -0.0872
  101MOL   C34748547   0.496   7.057   5.340 -0.1311  0.3801  0.4552
  101MOL   C34848548   0.374   7.113   5.298  0.1094  0.6855 -0.1372
  101MOL   C34948549   0.249   7.040   5.313  0.0577 -0.0936  0.1697
  101MOL   C35048550   0.252   6.911   5.374 -0.4162  0.6317 -0.1828
  101MOL   C35148551   0.377   6.865   5.422  0.5131  0.7368  0.4470
  101MOL   C35248552   0.499   6.937   5.413  0.5166  0.2626  0.3434
  101MOL   O35348553   0.142   6.838   5.388  0.1005 -0.2077 -0.0957
  101MOL   H35448554   0.794   6.749   5.031  0.3072  0.8308 -0.1228
  101MOL   H35548555   0.650   6.946   5.073 -0.7226  1.7745  1.1915
  101MOL   H35648556   0.890   7.048   5.410  0.5764  2.6984 -1.3230
  101MOL   H35748557   1.044   6.862   5.364 -0.6651 -0.0386  1.1232
  101MOL   H35848558   0.384   7.197   5.232  0.8347  0.1933 -0.6506
  101MOL   H35948559   0.153   7.071   5.274  0.2010 -2.0573 -1.7988
  101MOL   H36048560   0.384   6.765   5.461 -0.1111  0.1428 -0.9200
  101MOL   H36148561   0.592   6.889   5.440 -0.6699 -2.9269 -0.9226
  101MOL   C36248562   0.216   6.680   5.216  0.1717 -0.0679 -0.7610
  101MOL   C36348563   0.212   6.551   5.160  0.6808  0.4990 -0.4393
  101MOL   C36448564   0.130   6.449   5.217 -0.1754  0.5616  0.4391
  101MOL   C36548565   0.043   6.479   5.324  1.0347 -0.1334  0.3561
  101MOL   C36648566   0.054   6.613   5.382 -0.4053 -0.1427  0.3176
  101MOL   C36748567   0.137   6.710   5.328 -0.4191 -0.0551  0.0620
  101MOL   S36848568   0.131   6.290   5.149  0.1301 -0.1401  0.4589
  101MOL   O36948569   0.185   6.311   5.016  0.0001  0.2172  0.0488
  101MOL   O37048570   8.425   6.233   5.156  0.3751 -0.4260 -0.5876
  101MOL   C37148571   0.247   6.190   5.237  0.1175  0.0222 -0.1312
  101MOL   C37248572   0.213   6.059   5.266  0.1849  0.3393  0.2159
  101MOL   C37348573   0.298   5.972   5.335  0.4442 -0.2281  0.0338
  101MOL   C37448574   0.424   6.016   5.374  0.6882 -0.1784  0.6507
  101MOL   C37548575   0.457   6.152   5.350 -0.7075  0.2887  0.3974
  101MOL   C37648576   0.377   6.237   5.274 -0.4609  0.3595  0.2810
  101MOL   O37748577   0.513   5.922   5.434  0.3288  0.4600  0.5385
  101MOL   H37848578   0.273   6.758   5.168  0.3502  0.8449  0.8876
  101MOL   H37948579   0.264   6.523   5.069 -0.3947 -1.8620 -0.3622
  101MOL   H38048580   8.410   6.398   5.366  0.0770  0.0264 -0.6338
  101MOL   H38148581   8.420   6.630   5.470  0.0174 -2.1894  1.0307
  101MOL   H38248582   0.117   6.026   5.230  0.7798  0.3285 -1.3724
  101MOL   H38348583   0.279   5.868   5.358  1.0393 -0.3256  0.1096
  101MOL   H38448584   0.554   6.193   5.373 -0.5152  0.6001 -0.8854
  101MOL   H38548585   0.413   6.338   5.261 -0.1023  0.6996  3.5982
  101MOL   C38648586   0.734   5.990   5.381 -0.1353  0.9780 -0.5241
  101MOL   C38748587   0.858   6.024   5.431  0.2194  0.1556 -0.2035
  101MOL   C38848588   0.898   6.007   5.564  0.1098  0.1168 -0.2164
  101MOL   C38948589   0.800   5.978   5.657 -0.7243 -0.2504 -0.7571
  101MOL   C39048590   0.667   5.951   5.616  0.0284 -0.3203 -0.6134
  101MOL   C39148591   0.634   5.958   5.478  0.2982 -0.4169 -0.3511
  101MOL   S39248592   1.066   6.046   5.619  0.5946 -0.1200  0.0232
  101MOL   O39348593   1.097   5.974   5.744 -0.3303 -0.9877  0.1159
  101MOL   O39448594   1.088   6.194   5.613 -0.4584  0.5307 -0.5868
  101MOL   C39548595   1.161   5.971   5.488 -0.3346  0.5583 -0.5911
  101MOL   C39648596   1.208   5.840   5.503 -0.2927 -0.0086  0.3207
  101MOL   C39748597   1.282   5.772   5.401  0.5497  0.2691  0.2524
  101MOL   C39848598   1.307   5.844   5.283  0.6279  0.1602  0.1875
  101MOL   C39948599   1.272   5.983   5.273 -0.0261  0.2113 -0.2060
  101MOL   C40048600   1.201   6.048   5.373 -0.1219 -0.2399  0.1570
  101MOL   O40148601   1.354   5.764   5.179 -0.2733 -1.3500 -0.3798
  101MOL   H40248602   0.709   6.008   5.278 -0.3273  2.1168 -0.2858
  101MOL   H40348603   0.924   6.064   5.355  1.2112 -1.0625  0.0123
  101MOL   H40448604   0.824   5.985   5.762  1.3637 -0.4224 -1.2146
  101MOL   H40548605   0.593   5.934   5.693  1.0386 -0.7087  0.2819
  101MOL   H40648606   1.189   5.783   5.592 -1.0494  0.8416  0.7150
  101MOL   H40748607   1.296   5.667   5.419 -1.0491  0.3183  2.0074
  101MOL   H40848608   1.293   6.041   5.184  0.2619  0.5115  0.0544
  101MOL   H40948609   1.161   6.147   5.364  0.1253 -0.1534  0.0121
  101MOL   C41048610   1.195   5.817   5.000 -0.2482 -0.0497  0.1451
  101MOL   C41148611   1.170   5.840   4.863  0.1151 -0.3414 -0.1978
  101MOL   C41248612   1.281   5.831   4.772 -0.3735 -0.0995 -0.2955
  101MOL   C41348613   1.412   5.794   4.812 -0.0993  0.2319 -0.0861
  101MOL   C41448614   1.432   5.774   4.948  0.2986 -0.2163 -0.2762
  101MOL   C41548615   1.324   5.784   5.043 -0.2849  0.3874 -0.2105
  101MOL   S41648616   1.249   5.876   4.602  0.0251  0.0553 -0.3056
  101MOL   O41748617   1.380   5.920   4.551  0.3809 -0.9610  0.3385
  101MOL   O41848618   1.130   5.966   4.601  0.4901 -0.6531  0.5617
  101MOL   C41948619   1.211   5.736   4.503  0.1563 -0.1620  0.4379
  101MOL   C42048620   1.143   5.627   4.558 -0.2742 -0.1510 -0.2635
  101MOL   C42148621   1.104   5.525   4.472  0.2107 -0.0201 -0.1552
  101MOL   C42248622   1.139   5.522   4.339 -0.9836 -0.0489  0.5771
  101MOL   C42348623   1.215   5.626   4.281 -0.7672 -0.0239 -0.0402
  101MOL   C42448624   1.241   5.741   4.362  0.6939  0.4059  0.4141
  101MOL   O42548625   1.090   5.417   4.263  0.0604 -0.7646  0.2269
  101MOL   H42648626   1.112   5.834   5.066 -0.0350 -0.4804  0.5267
  101MOL   H42748627   1.075   5.865   4.818  1.1693 -0.7343 -2.7440
  101MOL   H42848628   1.487   5.776   4.737 -1.3140  2.0144 -1.7646
  101MOL   H42948629   1.536   5.760   4.976  1.2120  3.1836 -1.6922
  101MOL   H43048630   1.121   5.631   4.664  1.8265 -2.3551  0.3135
  101MOL   H43148631   1.044   5.448   4.518  0.0535  0.7903  1.0141
  101MOL   H43248632   1.249   5.617   4.179 -1.5668  3.3050 -0.6634
  101MOL   H43348633   1.299   5.823   4.322  1.2183  0.0999  0.5446
  101MOL   C43448634   0.966   5.440   4.066 -0.2655 -0.0341  0.2687
  101MOL   C43548635   0.843   5.453   3.998 -0.0844  0.5246  0.0142
  101MOL   C43648636   0.725   5.474   4.077  0.4743  0.4492  0.0154
  101MOL   C43748637   0.733   5.461   4.216  0.1371  0.6195 -0.0856
  101MOL   C43848638   0.850   5.440   4.284 -0.3628 -0.2053 -0.0936
  101MOL   C43948639   0.969   5.434   4.205 -0.4248 -0.0727 -0.4827
  101MOL   S44048640   0.573   5.494   3.987 -0.2688  0.0916  0.1960
  101MOL   O44148641   0.598   5.566   3.856 -0.0063  0.3308  0.2205
  101MOL   O44248642   0.476   5.554   4.075 -0.0591  0.2159 -0.2792
  101MOL   C44348643   0.531   5.328   3.948 -0.4352 -0.2540 -0.4336
  101MOL   C44448644   0.482   5.254   4.057 -0.5024  0.1800  0.2605
  101MOL   C44548645   0.457   5.117   4.036 -0.2652  0.1220 -0.0325
  101MOL   C44648646   0.469   5.058   3.909  0.4222  0.4433  0.0132
  101MOL   C44748647   0.522   5.139   3.801  0.4494  0.5976  0.0756
  101MOL   C44848648   0.555   5.275   3.822  0.5244  0.1656 -0.0403
  101MOL   O44948649   0.432   4.928   3.897  0.1440 -0.3134 -0.4539
  101MOL   H45048650   1.056   5.445   4.008  0.6404 -0.2214  1.6230
  101MOL   H45148651   0.841   5.469   3.891  1.1231 -1.3448 -0.3033
  101MOL   H45248652   0.639   5.475   4.268  0.2967  1.7223 -0.0933
  101MOL   H45348653   0.844   5.433   4.391  1.5210 -0.1325  0.0392
  101MOL   H45448654   0.474   5.296   4.156  0.9321 -1.5281  1.1341
  101MOL   H45548655   0.415   5.058   4.116  0.6749 -1.3613 -0.6177
  101MOL   H45648656   0.542   5.097   3.703 -1.3026  3.7656 -1.7547
  101MOL   H45748657   0.587   5.343   3.744 -1.4834  0.7517 -0.3863
  101MOL   C45848658   0.238   4.828   4.000  0.7959 -0.1974 -0.7375
  101MOL   C45948659   0.102   4.787   3.996 -0.4816 -0.8855 -0.0348
  101MOL   C46048660   0.022   4.844   3.888 -0.7098 -0.5897  0.0331
  101MOL   C46148661   0.079   4.925   3.791 -0.1845  0.3202 -0.4844
  101MOL   C46248662   0.217   4.946   3.792 -0.3671  0.4688  0.4722
  101MOL   C46348663   0.300   4.901   3.896  0.5588 -0.0351 -0.2322
  101MOL   S46448664   8.279   4.793   3.877 -0.1205 -0.2705  0.1359
  101MOL   O46548665   8.206   4.884   3.789 -0.2121  0.3609 -0.4590
  101MOL   O46648666   8.239   4.767   4.014 -0.4777  0.6289 -0.0936
  101MOL   C46748667   8.278   4.633   3.789 -0.0190 -0.3209  0.5923
  101MOL   C46848668   8.153   4.563   3.775 -0.0970 -0.1733 -0.2671
  101MOL   C46948669   8.154   4.439   3.704 -0.1305 -0.2472  0.0617
  101MOL   C47048670   8.268   4.412   3.629  0.3980 -0.3252  0.0155
  101MOL   C47148671   8.388   4.477   3.650  0.3024 -0.5965 -0.4986
  101MOL   C47248672   8.395   4.588   3.734 -0.6736 -0.0608  0.4792
  101MOL   O47348673   8.263   4.313   3.543 -0.4308  0.0014 -0.0514
  101MOL   H47448674   0.303   4.791   4.078  0.7473 -3.1288 -2.0252
  101MOL   H47548675   0.059   4.722   4.071 -0.9817 -0.0993  0.3627
  101MOL   H47648676   0.021   4.967   3.711 -1.0074 -0.4063 -0.2700
  101MOL   H47748677   0.271   5.001   3.716  0.3668 -1.8264 -0.7100
  101MOL   H47848678   8.061   4.601   3.816 -0.4971 -0.2978 -1.0467
  101MOL   H47948679   8.062   4.384   3.696 -1.6264  1.9641  1.5209
  101MOL   H48048680   0.055   4.445   3.603  1.7863 -1.4166  2.8128
  101MOL   H48148681   0.066   4.636   3.747 -0.7056 -0.2769  1.5961
  101MOL   H48248682   8.184   4.334   3.495 -0.4197 -0.4142 -0.2555
  102MOL     C148683   1.140   3.299   6.622 -0.3260  0.5279  0.1222
  102MOL     C248684   1.072   3.330   6.503 -0.3322  0.2307 -0.7202
  102MOL     C348685   0.945   3.389   6.511  0.1299 -0.9548 -0.8421
  102MOL     C448686   0.880   3.401   6.640  0.6051 -0.0088 -0.2431
  102MOL     C548687   0.952   3.366   6.754 -0.0684  0.8461  0.3482
  102MOL     C648688   1.085   3.326   6.750  0.2891  0.6845 -0.2845
  102MOL     S748689   0.863   3.460   6.364 -0.1965 -0.2239 -0.0955
  102MOL     O848690   0.970   3.478   6.263 -0.2464  0.5188 -0.3454
  102MOL     O948691   0.783   3.571   6.417 -0.1940  0.2651 -0.0192
  102MOL    C1048692   0.753   3.336   6.297  0.8128  0.4216 -0.0672
  102MOL    C1148693   0.780   3.200   6.322 -1.1540 -0.1852 -0.5107
  102MOL    C1248694   0.684   3.104   6.278 -0.1103  0.1904 -0.1355
  102MOL    C1348695   0.565   3.144   6.212 -0.2211 -0.5737 -0.0544
  102MOL    C1448696   0.546   3.277   6.177 -0.2245  0.5592 -0.1072
  102MOL    C1548697   0.634   3.375   6.230 -0.1692 -0.3144  0.0332
  102MOL    O1648698   0.470   3.060   6.170 -0.0626 -0.1756  0.4313
  102MOL    H1748699   1.240   3.258   6.626 -1.7276 -3.0201  0.4094
  102MOL    H1848700   1.121   3.316   6.407 -0.2728  0.8082 -0.7747
  102MOL    H1948701   0.788   3.457   6.645  0.2830 -0.3873 -1.6497
  102MOL    H2048702   0.906   3.387   6.849 -1.0344  0.3036  0.0123
  102MOL    H2148703   0.871   3.170   6.371 -1.7974  1.5651  1.8567
  102MOL    H2248704   0.702   3.000   6.296 -0.6921  0.4476  2.0731
  102MOL    H2348705   0.458   3.310   6.123 -1.4695  0.5539  1.8688
  102MOL    H2448706   0.605   3.479   6.224  2.0307  0.2869 -0.6169
  102MOL    H2548707   1.145   3.310   6.838  2.9299  1.4065 -1.9022
  102MOL    C2648708   0.392   2.888   6.330 -0.3760 -0.2004 -1.2619
  102MOL    C2748709   0.299   2.843   6.425 -0.2143 -0.1644  0.4363
  102MOL    C2848710   0.181   2.923   6.445 -0.2379  0.1133 -0.7316
  102MOL    C2948711   0.175   3.055   6.395 -0.4923  0.6601  0.2404
  102MOL    C3048712   0.272   3.094   6.299 -1.0076  0.1468  0.0833
  102MOL    C3148713   0.383   3.014   6.267  0.4644 -0.4363 -0.5540
  102MOL    S3248714   0.048   2.849   6.550 -0.0305  0.0336  0.0559
  102MOL    O3348715   0.118   2.824   6.675  0.5525 -0.2573 -0.1289
  102MOL    O3448716   8.407   2.732   6.486 -0.3314 -0.2810  0.6179
  102MOL    C3548717   8.346   2.975   6.580 -0.3108  0.1121  0.1786
  102MOL    C3648718   8.237   2.978   6.493  0.0441 -0.2418 -0.6306
  102MOL    C3748719   8.153   3.094   6.493 -0.4738  0.4369  0.1681
  102MOL    C3848720   8.176   3.194   6.588  0.4247  0.2775  0.4575
  102MOL    C3948721   8.287   3.182   6.679  0.3737 -0.2134  0.7555
  102MOL    C4048722   8.371   3.070   6.677  0.2591 -0.0172  0.1817
  102MOL    O4148723   8.089   3.302   6.583  0.1890  0.1464 -0.3899
  102MOL    H4248724   0.480   2.827   6.319 -1.5253 -1.7705 -1.8534
  102MOL    H4348725   0.305   2.744   6.467  1.3856  0.1198  0.9162
  102MOL    H4448726   0.083   3.112   6.402 -0.5203  0.4280  2.0057
  102MOL    H4548727   0.250   3.183   6.242 -2.9077 -0.1846  0.2793
  102MOL    H4648728   8.222   2.910   6.410 -1.6112 -1.7902  0.8716
  102MOL    H4748729   8.076   3.107   6.418  0.5264 -4.6075 -1.9511
  102MOL    H4848730   8.300   3.256   6.758 -2.5062 -1.2270  2.2593
  102MOL    H4948731   0.042   3.064   6.726  0.3284 -1.9980 -0.1656
  102MOL    C5048732   7.977   3.310   6.795  1.0370  0.2892 -0.0490
  102MOL    C5148733   7.851   3.298   6.869 -0.0082 -0.5915 -0.5918
  102MOL    C5248734   7.733   3.254   6.810  0.0142  0.5585 -0.9391
  102MOL    C5348735   7.735   3.229   6.672 -0.3425 -0.2182  0.4527
  102MOL    C5448736   7.856   3.238   6.594  0.4578 -0.4115  0.2540
  102MOL    C5548737   7.979   3.277   6.659  0.3626 -0.1997  0.3948
  102MOL    S5648738   7.574   3.240   6.893  0.4104  0.0217 -0.1473
  102MOL    O5748739   7.560   3.101   6.948  0.0787 -0.8039 -0.5932
  102MOL    O5848740   7.469   3.288   6.793 -0.2665  0.0579 -0.5478
  102MOL    C5948741   7.585   3.359   7.027 -0.1190  0.9501  0.5180
  102MOL    C6048742   7.514   3.476   7.009 -0.1037  0.1953 -0.4403
  102MOL    C6148743   7.520   3.574   7.112  1.2529  0.2577 -0.3696
  102MOL    C6248744   7.614   3.555   7.213  0.4458  0.4230 -0.0119
  102MOL    C6348745   7.684   3.439   7.228 -0.7242 -0.7102 -0.1261
  102MOL    C6448746   7.674   3.336   7.135  0.2616 -0.3542 -0.0278
  102MOL    O6548747   7.632   3.658   7.300  0.2027  0.1800  0.4299
  102MOL    H6648748   8.059   3.347   6.854 -1.4638 -0.1237  3.9278
  102MOL    H6748749   7.857   3.318   6.975 -1.2189  1.2941 -0.8549
  102MOL    H6848750   7.638   3.228   6.625 -0.6057  0.0680  0.9870
  102MOL    H6948751   7.846   3.218   6.489  1.3445 -0.8540  0.2439
  102MOL    H7048752   7.455   3.491   6.920 -0.1603 -1.6474 -0.7404
  102MOL    H7148753   7.463   3.665   7.103 -0.4995 -0.6563  1.2042
  102MOL    H7248754   7.755   3.435   7.310 -0.2584 -0.3388 -0.5077
  102MOL    H7348755   7.727   3.242   7.136 -1.7457 -1.5425 -0.7937
  102MOL    C7448756   7.706   3.871   7.329  0.3556  0.3812  0.2707
  102MOL    C7548757   7.774   3.991   7.293  0.0310  0.8721 -0.1705
  102MOL    C7648758   7.868   3.977   7.182  0.4436 -0.3849 -0.5435
  102MOL    C7748759   7.879   3.863   7.108 -0.0337  0.3930 -0.1532
  102MOL    C7848760   7.799   3.752   7.140  0.1492 -0.8198 -0.4119
  102MOL    C7948761   7.706   3.763   7.248 -0.8824 -0.1215  0.4801
  102MOL    S8048762   7.961   4.125   7.136 -0.4549 -0.0601 -0.2702
  102MOL    O8148763   8.057   4.151   7.247  0.7942 -0.5898 -0.2799
  102MOL    O8248764   7.867   4.230   7.095  0.0846 -0.2460  0.6014
  102MOL    C8348765   8.053   4.082   6.993 -0.2822  0.1741 -0.0582
  102MOL    C8448766   8.184   4.027   7.007  0.8523  0.6327  0.5013
  102MOL    C8548767   8.257   3.993   6.893 -0.1013 -0.3685 -0.1188
  102MOL    C8648768   8.203   4.022   6.768  0.4330  0.1510  0.1421
  102MOL    C8748769   8.078   4.076   6.747 -1.1070 -0.0179 -0.1102
  102MOL    C8848770   7.999   4.106   6.864 -0.1325  0.2347 -0.0725
  102MOL    O8948771   8.284   4.015   6.656  0.4711  0.4726  0.1519
  102MOL    H9048772   7.638   3.875   7.413 -1.4310 -2.9709 -0.9122
  102MOL    H9148773   7.769   4.077   7.360 -2.4238 -0.1072  0.9786
  102MOL    H9248774   7.944   3.851   7.023 -0.8596 -4.0110 -0.3036
  102MOL    H9348775   7.812   3.659   7.086  2.3505  1.6230 -4.3243
  102MOL    H9448776   8.223   4.001   7.104 -1.5881 -2.0674  0.8056
  102MOL    H9548777   8.354   3.945   6.903  0.6246  1.1527  0.3581
  102MOL    H9648778   8.049   4.105   6.647 -1.0482 -1.0315 -0.4313
  102MOL    H9748779   7.899   4.144   6.849  0.5311  1.5121 -1.2883
  102MOL    C9848780   8.245   3.766   6.641 -0.0404  0.5257  0.1878
  102MOL    C9948781   8.286   3.643   6.587  0.4956  0.6928 -0.4343
  102MOL   C10048782   8.387   3.639   6.496 -0.0322  0.1333 -0.5768
  102MOL   C10148783   0.037   3.755   6.466 -0.6925 -0.0890 -0.2035
  102MOL   C10248784   0.004   3.878   6.522 -0.8911 -0.4381  0.2270
  102MOL   C10348785   8.313   3.886   6.604  0.5716 -0.2996 -0.2629
  102MOL   S10448786   8.420   3.482   6.422  0.0466 -0.2627 -0.3374
  102MOL   O10548787   8.297   3.432   6.360 -0.4069  0.2255  0.5274
  102MOL   O10648788   0.063   3.391   6.513 -0.1909  0.2216  0.4103
  102MOL   C10748789   0.105   3.517   6.286 -0.3099 -0.3006  0.0244
  102MOL   C10848790   0.240   3.536   6.309  0.1705 -0.0806  0.0573
  102MOL   C10948791   0.330   3.577   6.208  0.2787 -0.5909 -0.7770
  102MOL   C11048792   0.283   3.591   6.077  0.5903 -0.4063 -0.2080
  102MOL   C11148793   0.147   3.562   6.049  0.3865 -0.2544 -0.1241
  102MOL   C11248794   0.057   3.527   6.153 -1.1759  0.6284 -0.0474
  102MOL   O11348795   0.373   3.630   5.978 -0.2883 -0.5407 -0.3787
  102MOL   H11448796   8.157   3.763   6.703 -2.1733  1.3220 -2.6849
  102MOL   H11548797   8.224   3.559   6.614  0.4826  0.7792 -0.1929
  102MOL   H11648798   0.114   3.748   6.391 -1.5359  0.2220 -1.1100
  102MOL   H11748799   0.061   3.967   6.497 -0.9198 -0.6512 -0.6255
  102MOL   H11848800   0.280   3.523   6.408 -1.8009 -0.4610  0.8301
  102MOL   H11948801   0.434   3.595   6.234  0.4224 -1.7503 -0.5367
  102MOL   H12048802   0.113   3.571   5.946  1.5620  0.9575 -0.4282
  102MOL   H12148803   8.379   3.504   6.129 -0.4102 -1.5353 -1.3170
  102MOL   C12248804   0.604   3.593   5.945 -0.1350  0.1067  0.2402
  102MOL   C12348805   0.713   3.525   5.891  0.7823  0.9103 -1.4824
  102MOL   C12448806   0.690   3.403   5.827 -0.3931 -0.1907  0.0009
  102MOL   C12548807   0.560   3.353   5.806  0.1826  0.6077 -0.4164
  102MOL   C12648808   0.450   3.428   5.855 -0.1435  0.5749 -0.0854
  102MOL   C12748809   0.470   3.544   5.932 -0.7218  0.2942 -0.6691
  102MOL   S12848810   0.823   3.301   5.745  0.2621  0.1163  0.1832
  102MOL   O12948811   0.866   3.373   5.623  0.0096 -0.7849 -0.3433
  102MOL   O13048812   0.768   3.165   5.735 -0.0786  0.3651  0.1431
  102MOL   C13148813   0.963   3.289   5.867  0.6030 -0.0796 -0.4084
  102MOL   C13248814   0.952   3.221   5.990  0.2053  0.0716 -0.6606
  102MOL   C13348815   1.066   3.211   6.072 -0.7882 -0.4110  0.5950
  102MOL   C13448816   1.186   3.267   6.031  0.3678  0.0197 -0.1814
  102MOL   C13548817   1.204   3.333   5.905  0.5045 -0.0361 -0.8777
  102MOL   C13648818   1.086   3.345   5.830  0.7854 -0.3672  0.0706
  102MOL   O13748819   1.291   3.252   6.118  0.0426 -0.5168  0.1070
  102MOL   H13848820   0.623   3.693   5.979  0.9594 -0.3068  0.8920
  102MOL   H13948821   0.811   3.571   5.888  1.3630 -0.2463 -0.3973
  102MOL   H14048822   0.546   3.265   5.746 -0.7841  1.1501 -1.0063
  102MOL   H14148823   0.350   3.391   5.836 -1.2242  2.1785  2.2086
  102MOL   H14248824   0.855   3.177   6.010  0.4894 -0.1284  0.2941
  102MOL   H14348825   1.071   3.167   6.170  0.5564 -0.3828  0.5553
  102MOL   H14448826   1.303   3.360   5.871 -0.0643  1.1552 -1.6591
  102MOL   H14548827   1.092   3.377   5.727 -2.6302 -2.7317 -0.9257
  102MOL   C14648828   1.400   3.049   6.049 -0.1735  0.7008  0.2943
  102MOL   C14748829   1.517   2.989   6.008 -0.2838  0.2075 -0.4887
  102MOL   C14848830   1.631   3.065   5.977  0.7062 -0.5328  0.1262
  102MOL   C14948831   1.623   3.203   5.985 -0.2298  0.0570  0.7044
  102MOL   C15048832   1.511   3.262   6.043 -0.9857 -0.0539 -0.0883
  102MOL   C15148833   1.398   3.184   6.066  0.0131  0.0891  0.0557
  102MOL   S15248834   1.783   2.983   5.925 -0.0272 -0.2973  0.1204
  102MOL   O15348835   1.812   2.884   6.027  0.4319  0.1893 -0.0583
  102MOL   O15448836   1.883   3.086   5.889  0.8778  0.5433  0.4835
  102MOL   C15548837   1.759   2.897   5.765  0.4877 -0.0159  0.5006
  102MOL   C15648838   1.880   2.847   5.709 -0.4313 -0.6005  0.0366
  102MOL   C15748839   1.876   2.778   5.583  0.3169 -0.0455 -0.9098
  102MOL   C15848840   1.755   2.750   5.518 -0.8686  0.4541 -0.6698
  102MOL   C15948841   1.636   2.802   5.568  0.4785 -0.3255 -0.1545
  102MOL   C16048842   1.638   2.873   5.692  0.2105 -0.2609 -0.2545
  102MOL   O16148843   1.744   2.690   5.393 -0.1207 -0.6059  0.2442
  102MOL   H16248844   1.323   2.975   6.070  0.1817  0.0316 -0.7331
  102MOL   H16348845   1.517   2.882   5.991 -0.1476 -0.0437  1.0332
  102MOL   H16448846   1.708   3.266   5.963 -0.0901  0.6375  2.8154
  102MOL   H16548847   1.514   3.368   6.061 -1.4089 -0.3023  1.4789
  102MOL   H16648848   1.978   2.870   5.749  0.3558  0.7780 -2.6163
  102MOL   H16748849   1.967   2.753   5.531  0.9631  1.5715 -0.5702
  102MOL   H16848850   1.545   2.787   5.513 -0.7072  1.8570  1.1345
  102MOL   H16948851   1.548   2.915   5.735  1.3195  1.9970 -0.0588
  102MOL   C17048852   1.840   2.470   5.419 -0.2745 -0.0302  0.1871
  102MOL   C17148853   1.931   2.370   5.372 -0.2075 -0.2364 -0.1002
  102MOL   C17248854   2.011   2.399   5.262  0.2942  0.3585 -0.6886
  102MOL   C17348855   2.006   2.521   5.199  0.5415 -0.0394  0.0464
  102MOL   C17448856   1.919   2.624   5.247 -0.0761 -0.1332 -0.8821
  102MOL   C17548857   1.835   2.594   5.357 -0.4674 -0.6640 -1.0108
  102MOL   S17648858   2.125   2.279   5.205 -0.0078 -0.2458 -0.0400
  102MOL   O17748859   2.182   2.329   5.079  0.1466 -0.0853 -0.4007
  102MOL   O17848860   2.048   2.150   5.203 -0.6003 -0.1790  0.9458
  102MOL   C17948861   2.263   2.267   5.321  0.1057  0.6192 -0.1543
  102MOL   C18048862   2.263   2.329   5.448  0.0321 -0.1505 -0.0593
  102MOL   C18148863   2.365   2.299   5.541 -0.3560 -0.6294  0.2311
  102MOL   C18248864   2.477   2.221   5.501  0.1876 -0.1846  0.1078
  102MOL   C18348865   2.474   2.157   5.374  0.0920 -0.2304 -1.2390
  102MOL   C18448866   2.364   2.180   5.290 -0.3605 -0.6234 -0.2504
  102MOL   O18548867   2.588   2.221   5.578  0.0909  0.3432  0.0199
  102MOL   H18648868   1.772   2.460   5.502 -0.6505  2.4397  0.1935
  102MOL   H18748869   1.934   2.271   5.413 -1.6299 -0.8726 -1.4915
  102MOL   H18848870   2.077   2.543   5.120 -0.3194 -0.3339 -0.8258
  102MOL   H18948871   1.928   2.725   5.209 -1.0915 -0.0115 -0.8042
  102MOL   H19048872   2.181   2.394   5.477 -0.8552 -1.2255 -0.1222
  102MOL   H19148873   2.362   2.347   5.637 -1.9003 -0.5152  0.1355
  102MOL   H19248874   2.552   2.090   5.341 -0.0945 -1.7911  1.3183
  102MOL   H19348875   2.350   2.122   5.200  1.0009 -3.1546  1.1281
  102MOL   C19448876   2.775   2.286   5.452  0.4031  0.4522 -0.0322
  102MOL   C19548877   2.905   2.271   5.403 -0.0329 -0.1200  0.4917
  102MOL   C19648878   2.959   2.144   5.402 -0.2033 -0.2668  0.2206
  102MOL   C19748879   2.892   2.037   5.469  0.2986 -0.2659 -0.2125
  102MOL   C19848880   2.771   2.062   5.537 -0.5580 -0.3166  0.0329
  102MOL   C19948881   2.707   2.186   5.522 -0.0537 -0.9090 -0.6514
  102MOL   S20048882   3.113   2.112   5.307 -0.3169 -0.0114 -0.1717
  102MOL   O20148883   3.196   2.009   5.376 -0.0024  0.3442  0.2768
  102MOL   O20248884   3.179   2.243   5.292 -0.0942  0.3222 -0.1881
  102MOL   C20348885   3.063   2.060   5.136 -0.7089  0.1080 -0.1929
  102MOL   C20448886   3.086   1.933   5.091 -0.3493  0.3141  0.5462
  102MOL   C20548887   3.044   1.894   4.962  0.1895  0.5028  0.0821
  102MOL   C20648888   2.972   1.983   4.883  0.1947 -0.4815  0.7292
  102MOL   C20748889   2.948   2.116   4.921  0.8454  0.4727  0.5576
  102MOL   C20848890   2.994   2.152   5.052  0.4264 -0.4020  0.0284
  102MOL   O20948891   2.928   1.930   4.762  0.2955 -0.4926  0.1801
  102MOL   H21048892   2.734   2.386   5.443 -0.8355 -0.1998 -1.7586
  102MOL   H21148893   2.956   2.351   5.351 -1.5497 -0.6906 -1.9413
  102MOL   H21248894   2.938   1.940   5.471  0.6820 -0.0577  2.3063
  102MOL   H21348895   2.721   1.989   5.599  0.1712 -1.5617 -0.8078
  102MOL   H21448896   3.132   1.862   5.158 -0.6999 -0.3837  0.0543
  102MOL   H21548897   3.055   1.793   4.926  0.1031  1.1105 -1.7137
  102MOL   H21648898   2.887   2.183   4.862  0.9564  0.8177  0.8344
  102MOL   H21748899   2.994   2.250   5.098 -0.5083 -1.0822  1.5238
  102MOL   C21848900   2.885   2.129   4.632 -0.1263  0.2667 -0.0735
  102MOL   C21948901   2.796   2.200   4.552  0.3460 -0.0598 -0.1406
  102MOL   C22048902   2.671   2.147   4.509  0.0404  0.3324 -0.8606
  102MOL   C22148903   2.637   2.015   4.556  0.0167 -0.7200  0.0824
  102MOL   C22248904   2.728   1.944   4.638 -0.2712 -0.0032  0.6346
  102MOL   C22348905   2.851   2.003   4.678  0.2752 -0.2749 -0.1374
  102MOL   S22448906   2.554   2.246   4.413  0.5627 -0.2963  0.1535
  102MOL   O22548907   2.608   2.278   4.281  0.0177 -0.1688 -0.0187
  102MOL   O22648908   2.511   2.350   4.507 -0.3285 -0.2488 -0.1599
  102MOL   C22748909   2.404   2.158   4.372 -0.3492 -0.0875 -0.3115
  102MOL   C22848910   2.298   2.154   4.466  0.5719  0.0032 -0.0881
  102MOL   C22948911   2.183   2.081   4.444  0.0718 -0.3322 -0.3413
  102MOL   C23048912   2.167   2.016   4.319 -0.2395  0.7586 -0.0115
  102MOL   C23148913   2.275   2.014   4.227  0.4297 -0.0213  0.1780
  102MOL   C23248914   2.387   2.089   4.251 -0.1092 -0.0828  0.3922
  102MOL   O23348915   2.056   1.942   4.293 -0.2182  0.0399 -0.2229
  102MOL   H23448916   2.982   2.169   4.660  0.0177  0.5490 -0.9467
  102MOL   H23548917   2.819   2.303   4.527  0.4298  0.2792  1.3059
  102MOL   H23648918   2.544   1.967   4.528 -0.6641  1.0206 -0.6935
  102MOL   H23748919   2.711   1.840   4.663  0.2976 -0.2181  0.1378
  102MOL   H23848920   2.312   2.204   4.561 -1.5798 -0.7787  0.6783
  102MOL   H23948921   2.105   2.062   4.517  2.6681 -3.0695  1.8204
  102MOL   H24048922   2.278   1.956   4.136  1.9017 -2.3029  1.6420
  102MOL   H24148923   2.466   2.101   4.177  0.4035  0.7285  1.0555
  102MOL   C24248924   1.825   1.994   4.350 -0.3370 -0.2417 -0.3796
  102MOL   C24348925   1.698   2.049   4.299 -0.9541  0.0561 -0.1915
  102MOL   C24448926   1.690   2.114   4.178  0.5931 -0.5000 -0.0228
  102MOL   C24548927   1.803   2.134   4.097 -0.0912 -1.3474  0.1114
  102MOL   C24648928   1.926   2.081   4.136 -0.3518 -0.5351 -0.2118
  102MOL   C24748929   1.936   2.003   4.261 -0.1686  0.1602  0.1624
  102MOL   S24848930   1.530   2.158   4.114 -0.0654  0.0831 -0.4429
  102MOL   O24948931   1.427   2.079   4.194  0.0081 -0.1853 -0.3159
  102MOL   O25048932   1.536   2.138   3.970 -0.5249 -0.1679  0.1081
  102MOL   C25148933   1.505   2.330   4.149  0.4945  0.0302  0.4130
  102MOL   C25248934   1.472   2.367   4.279 -0.1144  0.2061 -0.3493
  102MOL   C25348935   1.462   2.506   4.304 -0.5718  0.0294  0.2095
  102MOL   C25448936   1.467   2.601   4.200 -0.2070 -0.2135 -0.0673
  102MOL   C25548937   1.499   2.560   4.073  0.1161  1.3566 -0.1672
  102MOL   C25648938   1.524   2.425   4.049  0.3137 -0.5241  0.1969
  102MOL   O25748939   1.474   2.736   4.222 -0.1276 -0.2137 -0.1228
  102MOL   H25848940   1.830   1.933   4.439  1.0107 -1.3843 -1.2040
  102MOL   H25948941   1.613   2.011   4.353 -0.7290 -1.8290 -1.1094
  102MOL   H26048942   1.796   2.181   4.000  1.4108 -0.0422  0.5935
  102MOL   H26148943   2.016   2.081   4.076 -2.1120  3.2748 -3.0013
  102MOL   H26248944   1.447   2.290   4.351  2.5360 -1.5604 -1.2496
  102MOL   H26348945   1.446   2.539   4.406 -0.9826  0.6169 -0.0415
  102MOL   H26448946   1.520   2.629   3.993 -1.1513 -0.7228 -2.3851
  102MOL   H26548947   1.562   2.402   3.951  3.1529  1.3047  0.8245
  102MOL   C26648948   1.289   2.836   4.352 -0.6279  0.4640 -0.0277
  102MOL   C26748949   1.176   2.925   4.356 -0.2777  0.6954  0.2197
  102MOL   C26848950   1.126   2.979   4.232 -0.0209 -0.3983  0.1285
  102MOL   C26948951   1.202   2.956   4.111  0.4578  0.4529 -0.5042
  102MOL   C27048952   1.308   2.865   4.110  0.0408  0.2158 -0.2679
  102MOL   C27148953   1.359   2.811   4.228 -0.0490 -0.2564  0.2452
  102MOL   S27248954   0.991   3.095   4.221  0.1779 -0.0761 -0.2446
  102MOL   O27348955   0.894   3.052   4.121  0.3780  0.1677  0.2774
  102MOL   O27448956   1.051   3.228   4.199 -0.3833  0.5686 -0.2824
  102MOL   C27548957   0.903   3.103   4.382  0.5607  0.7199  0.2856
  102MOL   C27648958   0.933   3.211   4.473  0.9221  1.2368  0.5989
  102MOL   C27748959   0.853   3.213   4.589 -0.7526  0.4618 -0.3871
  102MOL   C27848960   0.776   3.105   4.626 -0.4967  0.3002  0.0055
  102MOL   C27948961   0.759   2.992   4.541  0.7670 -0.1319 -0.0875
  102MOL   C28048962   0.819   2.997   4.417  0.1008  0.7029  0.1781
  102MOL   O28148963   0.698   3.110   4.737 -0.4344  0.3117 -0.5385
  102MOL   H28248964   1.332   2.788   4.438  2.1627  0.0898 -1.5573
  102MOL   H28348965   1.137   2.947   4.455  1.1916  0.3258  0.8972
  102MOL   H28448966   1.174   3.007   4.020 -0.8003 -1.3016 -1.1228
  102MOL   H28548967   1.362   2.834   4.021 -0.2786  0.9186 -0.7119
  102MOL   H28648968   0.994   3.292   4.435 -0.0515  1.9321  0.4835
  102MOL   H28748969   0.863   3.300   4.652  1.1167 -0.8159  1.1341
  102MOL   H28848970   0.693   2.911   4.568  1.0316 -0.0633  0.8033
  102MOL   H28948971   0.817   2.907   4.359 -1.0796  1.5184 -1.0721
  102MOL   C29048972   0.523   3.238   4.619 -0.4988 -0.5743 -0.0505
  102MOL   C29148973   0.390   3.290   4.614  0.7122  0.2228  0.0572
  102MOL   C29248974   0.315   3.267   4.729 -0.5373 -0.5692 -0.9616
  102MOL   C29348975   0.358   3.189   4.837 -0.0727 -0.6155  0.6010
  102MOL   C29448976   0.491   3.136   4.836  0.2017  0.3358 -0.7154
  102MOL   C29548977   0.573   3.161   4.730 -0.9037 -0.7343 -0.1323
  102MOL   S29648978   0.149   3.330   4.758  0.0710  0.4804 -0.2747
  102MOL   O29748979   0.153   3.446   4.845 -0.1307 -0.2023  0.2630
  102MOL   O29848980   0.072   3.212   4.791 -0.0152 -0.1163  0.5248
  102MOL   C29948981   0.103   3.392   4.598 -0.2377  0.1131  0.0089
  102MOL   C30048982   0.064   3.302   4.498  0.6133 -0.1589  0.4171
  102MOL   C30148983   0.029   3.349   4.374  0.1788 -0.0713  0.4470
  102MOL   C30248984   0.039   3.479   4.335  0.0488  0.3311  0.4960
  102MOL   C30348985   0.083   3.570   4.434  0.0042  0.2048 -0.4458
  102MOL   C30448986   0.117   3.526   4.563  0.1145  0.3995  0.4905
  102MOL   O30548987   0.003   3.514   4.206 -0.5179 -0.5809  0.1882
  102MOL   H30648988   0.590   3.262   4.538  0.3642 -1.5922  0.3336
  102MOL   H30748989   0.357   3.346   4.528 -0.8939 -0.7014  0.0554
  102MOL   H30848990   0.292   3.162   4.918  1.4043  0.5295  2.2371
  102MOL   H30948991   0.522   3.092   4.930  0.1909 -2.9033 -2.1841
  102MOL   H31048992   0.064   3.195   4.512  0.5901 -0.7064 -3.4240
  102MOL   H31148993   8.424   3.279   4.297  1.2515 -0.1073  0.0488
  102MOL   H31248994   0.105   3.672   4.408  3.6837 -1.1755 -3.1882
  102MOL   H31348995   0.153   3.596   4.638 -0.2107  2.1679 -0.9505
  102MOL   C31448996   8.409   3.748   4.160 -0.2757 -0.8275 -0.2273
  102MOL   C31548997   0.039   3.876   4.129 -0.1967 -0.1584  0.1626
  102MOL   C31648998   0.168   3.880   4.080 -0.3421  0.1531 -0.0814
  102MOL   C31748999   0.244   3.760   4.075 -0.5623  0.1127  0.3755
  102MOL   C31849000   0.192   3.634   4.110  0.3198  0.9152 -0.3721
  102MOL   C31949001   0.058   3.625   4.154 -0.3729 -1.6006 -0.3851
  102MOL   S32049002   0.223   4.045   4.034  0.2072  0.3157 -0.2488
  102MOL   O32149003   0.364   4.066   4.070  0.1512  0.5177  0.1271
  102MOL   O32249004   0.127   4.149   4.074 -0.3026  0.8587 -0.4297
  102MOL   C32349005   0.221   4.049   3.852 -0.0965  0.9756  0.3506
  102MOL   C32449006   0.232   3.931   3.775 -0.3807  0.1944  0.4558
  102MOL   C32549007   0.260   3.934   3.631 -0.1678 -0.0040 -0.5334
  102MOL   C32649008   0.236   4.051   3.568  0.4072 -0.8039  0.1224
  102MOL   C32749009   0.218   4.172   3.648 -0.5013  0.4350 -0.7621
  102MOL   C32849010   0.215   4.169   3.788 -1.1417 -0.2114  0.3739
  102MOL   O32949011   0.246   4.066   3.432 -0.0761  0.3280 -0.6962
  102MOL   H33049012   8.311   3.744   4.206  0.0965  0.3468  0.7123
  102MOL   H33149013   8.407   3.965   4.152  1.8727  1.6651 -1.6431
  102MOL   H33249014   0.349   3.769   4.048 -0.6181 -1.5966 -0.5169
  102MOL   H33349015   0.255   3.546   4.108  0.2275  0.8439 -0.1067
  102MOL   H33449016   0.240   3.836   3.824  0.8083 -0.0822 -0.2437
  102MOL   H33549017   0.283   3.844   3.576  1.6348  0.6561 -0.8921
  102MOL   H33649018   0.216   4.267   3.596  3.3623  1.2499  0.3702
  102MOL   H33749019   0.214   4.266   3.835  1.8373 -0.0111  0.1211
  102MOL   C33849020   0.096   3.922   3.338  0.2944 -0.2003  0.3206
  102MOL   C33949021   8.403   3.884   3.276  0.0805  0.4848  0.1170
  102MOL   C34049022   8.311   3.990   3.236  0.0026  0.2050 -0.0094
  102MOL   C34149023   8.334   4.119   3.284 -0.0873 -0.2050 -0.7906
  102MOL   C34249024   0.030   4.150   3.351 -0.0613 -0.3393  0.2545
  102MOL   C34349025   0.131   4.049   3.369  0.4097 -0.5587  0.2555
  102MOL   S34449026   8.168   3.952   3.138  0.0190  0.6731  0.6886
  102MOL   O34549027   8.215   3.868   3.025 -0.1554 -0.3865 -0.2693
  102MOL   O34649028   8.102   4.076   3.100 -0.1330  0.1225 -0.4678
  102MOL   C34749029   8.066   3.855   3.244  0.2816  0.1492  0.3277
  102MOL   C34849030   8.049   3.897   3.384 -0.4183  0.3006 -0.5501
  102MOL   C34949031   7.957   3.815   3.465  0.5231 -0.4331 -0.1521
  102MOL   C35049032   7.901   3.696   3.409  0.0147  0.4283 -0.1355
  102MOL   C35149033   7.932   3.659   3.275 -0.2520 -0.2258  0.3634
  102MOL   C35249034   8.009   3.739   3.186 -0.2424 -0.3131 -0.2990
  102MOL   O35349035   7.805   3.622   3.481  0.5473 -0.3801 -0.0769
  102MOL   H35449036   0.164   3.837   3.335  0.0912 -0.3289 -0.7778
  102MOL   H35549037   8.389   3.780   3.254 -0.4651  0.3394  1.1204
  102MOL   H35649038   8.262   4.197   3.266  1.6864  2.2417  2.2425
  102MOL   H35749039   0.055   4.245   3.395  1.5735 -0.4510 -0.4026
  102MOL   H35849040   8.089   3.992   3.419  1.8665 -2.1129  3.8003
  102MOL   H35949041   7.920   3.850   3.560 -1.2423 -0.8558 -0.6610
  102MOL   H36049042   7.879   3.577   3.229  2.4756 -0.2670 -2.9026
  102MOL   H36149043   8.034   3.699   3.089 -1.8702 -0.1848 -0.7898
  102MOL   C36249044   7.715   3.662   3.698 -0.1359  0.5313 -0.6072
  102MOL   C36349045   7.720   3.634   3.834 -0.2472  0.5732 -0.3271
  102MOL   C36449046   7.826   3.557   3.891 -0.3664  0.2144 -0.1612
  102MOL   C36549047   7.926   3.507   3.811  0.1075 -0.1790 -0.1103
  102MOL   C36649048   7.913   3.523   3.669  0.3863  0.4317  0.5937
  102MOL   C36749049   7.812   3.605   3.616  0.4262 -0.2026  0.6615
  102MOL   S36849050   7.833   3.523   4.067 -0.1354 -0.1500 -0.1982
  102MOL   O36949051   7.689   3.509   4.104 -0.8778 -0.1999 -0.3297
  102MOL   O37049052   7.915   3.634   4.118  0.2171  0.0744 -0.1043
  102MOL   C37149053   7.916   3.368   4.095  0.1815  0.2788 -0.5543
  102MOL   C37249054   8.060   3.369   4.113 -0.3445 -0.3410  0.0197
  102MOL   C37349055   8.130   3.252   4.140 -0.1034 -0.0970  0.8018
  102MOL   C37449056   8.061   3.132   4.138 -0.2043  0.4966 -0.1067
  102MOL   C37549057   7.920   3.127   4.121  0.0330 -0.4384  0.1422
  102MOL   C37649058   7.844   3.246   4.098 -0.1753 -0.0700 -0.9745
  102MOL   O37749059   8.146   3.023   4.161  0.3537  0.5901 -0.7205
  102MOL   H37849060   7.640   3.724   3.650  0.0413  2.3312  1.3478
  102MOL   H37949061   7.642   3.665   3.902 -0.6710 -0.1807 -0.4626
  102MOL   H38049062   8.002   3.444   3.855  0.4751 -0.0578 -0.5760
  102MOL   H38149063   7.984   3.469   3.608 -1.8779 -1.1797 -0.6762
  102MOL   H38249064   8.114   3.462   4.117  0.2178 -0.5516 -2.0769
  102MOL   H38349065   8.235   3.256   4.163 -0.2210  1.3653  1.1285
  102MOL   H38449066   7.870   3.033   4.139 -0.4781 -0.1195  0.4115
  102MOL   H38549067   7.739   3.247   4.073 -0.4925 -1.1651  0.2200
  102MOL   C38649068   8.198   2.994   3.930  0.1602  1.1656 -0.5168
  102MOL   C38749069   8.223   2.905   3.828  0.1294  0.2979  0.9018
  102MOL   C38849070   8.228   2.767   3.841 -0.2781 -0.3407  0.0775
  102MOL   C38949071   8.199   2.712   3.967  0.4156 -0.0315 -0.2327
  102MOL   C39049072   8.175   2.804   4.077 -0.2549  0.0800  0.0736
  102MOL   C39149073   8.182   2.944   4.059  0.0580 -0.5411 -0.7765
  102MOL   S39249074   8.277   2.658   3.703  0.8733 -0.3310  0.1014
  102MOL   O39349075   8.225   2.725   3.584 -0.0177  0.0523  0.1649
  102MOL   O39449076   8.247   2.516   3.721  0.0402 -0.4240 -0.2089
  102MOL   C39549077   0.030   2.674   3.703 -0.1898  0.4281  0.0152
  102MOL   C39649078   0.086   2.782   3.631 -0.1368  0.5344  0.1830
  102MOL   C39749079   0.221   2.814   3.634  0.0481 -0.5024 -1.1003
  102MOL   C39849080   0.308   2.737   3.715 -0.9270  0.0021 -0.5333
  102MOL   C39949081   0.251   2.631   3.788  0.7766 -0.6452  0.9027
  102MOL   C40049082   0.117   2.594   3.781 -0.6097 -0.5129 -0.1243
  102MOL   O40149083   0.446   2.767   3.717  0.2195  0.1622  0.3053
  102MOL   H40249084   8.170   3.097   3.909  0.0737  1.0580 -0.9383
  102MOL   H40349085   8.233   2.954   3.732 -1.8416  1.3247  1.1893
  102MOL   H40449086   8.189   2.606   3.987 -0.2887  0.1552  0.4331
  102MOL   H40549087   8.141   2.772   4.174  0.5947  0.2280  0.4189
  102MOL   H40649088   0.030   2.845   3.563  0.3103 -1.1890 -1.8359
  102MOL   H40749089   0.261   2.897   3.577  0.3300 -0.8374 -1.3963
  102MOL   H40849090   0.314   2.568   3.849  1.9225 -1.4626 -1.1019
  102MOL   H40949091   0.078   2.502   3.823  3.2546 -1.4011  1.6897
  102MOL   C41049092   0.540   2.750   3.497  0.1291 -0.8232  0.0063
  102MOL   C41149093   0.626   2.688   3.407 -0.3854 -0.1615  0.7042
  102MOL   C41249094   0.675   2.553   3.426  0.2724 -0.6366 -0.7165
  102MOL   C41349095   0.650   2.496   3.554 -0.1113 -0.2483  0.3070
  102MOL   C41449096   0.575   2.560   3.654 -0.1407  0.0246 -0.1658
  102MOL   C41549097   0.520   2.693   3.626 -0.2532  0.5925 -0.0731
  102MOL   S41649098   0.791   2.476   3.311  0.0062  0.1751  0.2995
  102MOL   O41749099   0.773   2.330   3.313  0.4298  0.2062 -0.1973
  102MOL   O41849100   0.920   2.540   3.345  0.2397  0.6600 -0.5144
  102MOL   C41949101   0.737   2.526   3.153  0.3127  0.0396 -0.0817
  102MOL   C42049102   0.605   2.553   3.116  0.1526  0.2659 -0.3049
  102MOL   C42149103   0.567   2.598   2.989 -0.1786  0.1128 -0.3196
  102MOL   C42249104   0.670   2.610   2.895  0.0323 -0.4060  0.3123
  102MOL   C42349105   0.805   2.577   2.926  0.2535  0.2742  0.2102
  102MOL   C42449106   0.839   2.541   3.058 -0.2842  0.0980  0.1585
  102MOL   O42549107   0.647   2.661   2.772  0.2982  0.3359 -0.1093
  102MOL   H42649108   0.506   2.851   3.477  0.6578 -0.9202 -1.4151
  102MOL   H42749109   0.648   2.729   3.309 -0.9292  0.4998  0.8569
  102MOL   H42849110   0.702   2.403   3.572 -1.1138 -0.7918  0.4350
  102MOL   H42949111   0.571   2.527   3.757 -0.0854  2.1255  0.5375
  102MOL   H43049112   0.531   2.522   3.188 -0.7738 -0.7147 -1.6612
  102MOL   H43149113   0.462   2.619   2.972  0.3697  1.1351 -2.7011
  102MOL   H43249114   0.886   2.593   2.856 -1.6659  0.2572 -2.0279
  102MOL   H43349115   0.942   2.531   3.090 -0.0696  0.0254 -0.5517
  102MOL   C43449116   0.739   2.582   2.564 -0.1887  0.1315 -0.4366
  102MOL   C43549117   0.753   2.484   2.463  0.1421  0.1211  0.0730
  102MOL   C43649118   0.667   2.372   2.473 -0.2668  0.2594  0.1147
  102MOL   C43749119   0.561   2.373   2.563 -0.2517 -0.0355 -0.8202
  102MOL   C43849120   0.545   2.478   2.654 -0.5229 -0.1526 -0.9900
  102MOL   C43949121   0.647   2.572   2.667  0.2926 -0.2442 -0.6019
  102MOL   S44049122   0.695   2.238   2.359 -0.0993 -0.2340  0.2096
  102MOL   O44149123   0.676   2.125   2.439 -0.5691 -0.0958 -0.3299
  102MOL   O44249124   0.814   2.252   2.281 -0.8399 -0.4485 -0.4832
  102MOL   C44349125   0.554   2.265   2.247  0.2204  0.0411 -0.5799
  102MOL   C44449126   0.439   2.184   2.254 -0.0593 -0.3723  0.2172
  102MOL   C44549127   0.333   2.209   2.166 -0.4557  0.4242  0.3814
  102MOL   C44649128   0.334   2.312   2.073  0.8794 -0.6286  0.3600
  102MOL   C44749129   0.452   2.396   2.069 -0.0840  0.9511  0.0885
  102MOL   C44849130   0.563   2.369   2.153 -0.5211  0.1633 -0.4809
  102MOL   O44949131   0.231   2.317   1.976  0.6376 -0.3957  0.2491
  102MOL   H45049132   0.816   2.658   2.560  0.1788  0.2164  4.7958
  102MOL   H45149133   0.837   2.490   2.395  0.4634  2.8851  0.6727
  102MOL   H45249134   0.493   2.290   2.565 -0.5952  0.2756  1.0986
  102MOL   H45349135   0.465   2.482   2.727 -0.4449  0.9780 -0.9558
  102MOL   H45449136   0.431   2.099   2.321  2.2935  0.1001  1.1471
  102MOL   H45549137   0.246   2.146   2.155 -1.3985  1.9544 -1.1547
  102MOL   H45649138   0.461   2.464   1.986 -0.6529  0.4923 -0.3580
  102MOL   H45749139   0.646   2.438   2.144 -0.8946  0.6370 -0.2919
  102MOL   C45849140   0.193   2.530   1.860 -0.4311  0.1999 -0.0585
  102MOL   C45949141   0.120   2.643   1.837 -0.1042  0.4392  0.4101
  102MOL   C46049142   0.012   2.671   1.916  0.4244  0.2922  0.8946
  102MOL   C46149143   8.395   2.579   2.013 -0.1502  0.3927 -0.0373
  102MOL   C46249144   0.045   2.462   2.034 -0.2792 -0.3772  0.3382
  102MOL   C46349145   0.160   2.432   1.958  0.1300  0.0855  0.2490
  102MOL   S46449146   8.349   2.821   1.882  0.4517 -0.1653 -0.1167
  102MOL   O46549147   8.321   2.821   1.737 -0.2957  0.0344  0.0109
  102MOL   O46649148   8.422   2.935   1.937 -0.4395  0.0511  0.3158
  102MOL   C46749149   8.186   2.817   1.958  0.2791  0.0328 -0.2265
  102MOL   C46849150   8.147   2.919   2.050 -0.5944  0.2842  0.2649
  102MOL   C46949151   8.017   2.923   2.099 -0.1193  0.1842  0.2242
  102MOL   C47049152   7.926   2.817   2.059  0.6114 -0.4272 -0.4878
  102MOL   C47149153   7.970   2.716   1.976  0.8676 -0.1510 -0.1679
  102MOL   C47249154   8.094   2.719   1.920  0.2131 -0.5894 -0.5143
  102MOL   O47349155   7.798   2.810   2.103  0.1547 -0.2546 -0.5892
  102MOL   H47449156   0.271   2.524   1.786  0.2064 -0.2476  0.6458
  102MOL   H47549157   0.151   2.719   1.768 -0.3894 -0.3146 -0.5699
  102MOL   H47649158   8.304   2.590   2.069  0.4529  0.6459  0.8940
  102MOL   H47749159   0.008   2.392   2.109 -1.5323  0.0415  0.1217
  102MOL   H47849160   8.216   2.998   2.075 -0.0413  0.0861 -0.6053
  102MOL   H47949161   8.005   3.005   2.168  1.5425  0.1097  0.6318
  102MOL   H48049162   7.906   2.637   1.939 -1.6497  0.3953  2.8051
  102MOL   H48149163   8.116   2.653   1.837 -2.9989 -0.4615 -1.5281
  102MOL   H48249164   7.754   2.734   2.066 -0.5956  0.0160 -0.2665
  103MOL     C149165   6.253   1.030   7.417  0.5033  0.0923 -0.3144
  103MOL     C249166   6.367   1.090   7.473 -0.5732 -0.0582 -0.3217
  103MOL     C349167   6.379   1.233   7.475 -0.1674 -0.4815  0.0210
  103MOL     C449168   6.277   1.318   7.433  0.2876  0.5208  0.2296
  103MOL     C549169   6.155   1.258   7.384  0.0884  0.1654 -0.4156
  103MOL     C649170   6.138   1.117   7.385 -0.7205  0.7947  0.1221
  103MOL     S749171   6.535   1.307   7.529 -0.0589 -0.2743 -0.0064
  103MOL     O849172   6.486   1.435   7.589 -0.1781 -0.1583  0.1154
  103MOL     O949173   6.623   1.314   7.412 -0.0552 -0.2034 -0.3527
  103MOL    C1049174   6.604   1.197   7.658 -0.1387 -1.0288 -0.5250
  103MOL    C1149175   6.565   1.212   7.791 -0.2795  0.3978 -0.4189
  103MOL    C1249176   6.616   1.129   7.890  0.2485  0.5172 -0.2842
  103MOL    C1349177   6.704   1.022   7.860 -0.8078 -0.0058 -0.1711
  103MOL    C1449178   6.755   1.017   7.730 -0.1687 -0.4654 -0.1419
  103MOL    C1549179   6.705   1.103   7.627  0.5577  0.3288 -0.2626
  103MOL    O1649180   6.764   0.947   7.967 -0.1958  0.8233  1.0782
  103MOL    H1749181   6.250   0.923   7.419  0.0677  0.1164  0.9031
  103MOL    H1849182   6.447   1.026   7.506 -0.0697  0.5529 -0.3283
  103MOL    H1949183   6.298   1.424   7.422 -1.4108  0.8121 -0.3549
  103MOL    H2049184   6.075   1.316   7.340  0.8085  1.1247 -0.4749
  103MOL    H2149185   6.492   1.287   7.819 -2.0895 -2.0973  1.9374
  103MOL    H2249186   6.591   1.155   7.992 -0.2674  0.3881 -0.3777
  103MOL    H2349187   6.829   0.939   7.716  0.8408 -0.1670  3.0010
  103MOL    H2449188   6.730   1.104   7.522  0.3798 -2.3814 -0.3688
  103MOL    H2549189   6.044   1.073   7.356  0.0927 -0.8718 -0.0803
  103MOL    C2649190   6.593   0.787   8.019 -0.3815  0.3183 -0.5170
  103MOL    C2749191   6.528   0.718   8.120 -0.0446  0.8328 -0.4509
  103MOL    C2849192   6.548   0.755   8.251 -0.3275  0.4295  0.2053
  103MOL    C2949193   6.632   0.861   8.288  0.1014  0.2403  0.5468
  103MOL    C3049194   6.704   0.929   8.189  0.0011  0.5124 -0.1141
  103MOL    C3149195   6.678   0.890   8.059 -0.2230  0.6575  0.0809
  103MOL    S3249196   6.449   0.676   8.376 -0.0672  0.2428 -0.0890
  103MOL    O3349197   6.318   0.627   8.324 -0.1994  0.5986 -0.6426
  103MOL    O3449198   6.441   0.762   0.068  0.1341 -0.6958 -0.2357
  103MOL    C3549199   6.543   0.525   8.421  0.1288 -0.7347  0.5050
  103MOL    C3649200   6.553   0.411   8.334  0.5452  0.0051  0.3833
  103MOL    C3749201   6.614   0.296   8.384 -0.5549 -0.6394  0.6481
  103MOL    C3849202   6.674   0.290   0.086 -0.2520 -0.1761  0.7677
  103MOL    C3949203   6.669   0.403   0.168 -0.4899 -0.0119 -0.4457
  103MOL    C4049204   6.598   0.521   0.126 -0.8516  0.2228  0.4262
  103MOL    O4149205   6.720   0.166   0.133 -0.1138 -0.1290  0.5467
  103MOL    H4249206   6.594   0.764   7.914  0.2189 -1.7883 -0.0767
  103MOL    H4349207   6.449   0.652   8.087  2.0836 -0.6267 -2.8781
  103MOL    H4449208   6.645   0.876   8.394 -1.4371  0.8250  0.6745
  103MOL    H4549209   6.776   1.008   8.208  0.9058 -0.5233  0.7869
  103MOL    H4649210   6.490   0.406   8.247  2.8894  1.1972 -1.4305
  103MOL    H4749211   6.605   0.206   8.325  0.1317 -0.3344  0.0662
  103MOL    H4849212   6.696   0.403   0.273  1.2013  0.2304 -0.8682
  103MOL    H4949213   6.583   0.603   0.194 -0.7846 -1.5092  2.5815
  103MOL    C5049214   6.941   0.247   0.215  0.7725 -0.0517  0.0272
  103MOL    C5149215   7.056   0.210   0.283 -0.0581  0.1819  0.7233
  103MOL    C5249216   7.073   0.081   0.347 -0.2634  0.3328 -0.1037
  103MOL    C5349217   6.965   8.419   0.350  0.0593  0.1386  0.4723
  103MOL    C5449218   6.841   0.035   0.289  0.9519 -1.1297  0.8703
  103MOL    C5549219   6.835   0.153   0.208 -0.3809 -0.0227 -0.5364
  103MOL    S5649220   7.222   0.063   0.446 -0.2489  0.4508  0.5089
  103MOL    O5749221   7.210   8.359   0.515 -0.0649  0.3599  0.2296
  103MOL    O5849222   7.241   0.187   0.526 -0.3927  0.3865  0.7736
  103MOL    C5949223   7.361   0.057   0.329 -1.0477 -0.0782 -0.1145
  103MOL    C6049224   7.371   8.384   0.236 -0.7713 -0.3670  0.2092
  103MOL    C6149225   7.474   8.383   0.137 -0.4251 -0.0838  0.8096
  103MOL    C6249226   7.561   0.071   0.126  0.1261 -0.0837  0.1059
  103MOL    C6349227   7.544   0.178   0.216 -0.0180  0.7738 -0.2186
  103MOL    C6449228   7.451   0.172   0.322 -0.1815  0.1584  0.4551
  103MOL    O6549229   7.639   0.070   0.016  0.0507 -0.2619 -0.0316
  103MOL    H6649230   6.933   0.347   0.175  1.1461 -0.0437 -0.0254
  103MOL    H6749231   7.138   0.280   0.288  0.6485 -0.6177  0.3367
  103MOL    H6849232   6.962   8.327   0.407  0.8648  0.5362  1.1699
  103MOL    H6949233   6.763   8.385   0.285  0.0374 -0.0326 -3.8391
  103MOL    H7049234   7.298   8.306   0.228  0.5502 -1.3650 -3.0826
  103MOL    H7149235   7.482   8.300   0.068  0.2444  0.4941  0.1825
  103MOL    H7249236   7.600   0.270   0.209 -1.6326  1.7395 -0.7463
  103MOL    H7349237   7.429   0.251   0.392 -2.0750  0.1363 -0.0664
  103MOL    C7449238   7.870   0.103   0.073 -0.8108 -0.0399  0.1740
  103MOL    C7549239   7.983   0.186   0.072  0.1823 -0.0946  0.0467
  103MOL    C7649240   7.976   0.319   0.024  0.8295 -0.0291  0.0437
  103MOL    C7749241   7.850   0.371   8.407 -0.5938 -0.5137  0.4604
  103MOL    C7849242   7.740   0.286   8.391 -0.2934  0.4988 -0.1455
  103MOL    C7949243   7.749   0.150   0.010 -0.1836 -0.0273 -0.4095
  103MOL    S8049244   8.121   0.415   0.027 -0.1005  0.2560 -0.1559
  103MOL    O8149245   8.110   0.510   0.139  0.3663  0.0669  0.3789
  103MOL    O8249246   8.140   0.477   8.316 -0.3622  0.1867 -0.4367
  103MOL    C8349247   8.261   0.305   0.061  0.4486  0.4695  1.0865
  103MOL    C8449248   8.308   0.233   8.376 -0.6134 -0.6316 -0.3882
  103MOL    C8549249   8.422   0.151   8.378  0.2567  0.3073 -0.1649
  103MOL    C8649250   0.062   0.149   0.080  0.5232 -0.2403 -0.1586
  103MOL    C8749251   0.007   0.203   0.192 -0.0801  0.4346  0.1099
  103MOL    C8849252   8.320   0.288   0.185 -0.2163  0.9359  0.1162
  103MOL    O8949253   0.182   0.077   0.093 -0.0537 -0.2089 -0.1611
  103MOL    H9049254   7.884   0.008   0.123 -1.7987 -0.5907 -0.5802
  103MOL    H9149255   8.074   0.149   0.116  0.2976  0.6332  0.4303
  103MOL    H9249256   7.847   0.474   8.374 -1.4709 -0.5891  0.3031
  103MOL    H9349257   7.644   0.324   8.359 -0.0410  0.2295 -1.2458
  103MOL    H9449258   8.262   0.242   8.278 -0.7481  1.6214 -0.1350
  103MOL    H9549259   0.038   0.106   8.289  2.4417  2.9863 -0.5619
  103MOL    H9649260   0.063   0.192   0.284  1.3916 -0.7717 -0.9012
  103MOL    H9749261   8.273   0.336   0.270 -0.8033  1.3153 -0.4146
  103MOL    C9849262   0.368   0.213   0.039 -0.2303 -0.2053  0.1243
  103MOL    C9949263   0.483   0.286   0.079 -0.1871 -0.3766  0.0436
  103MOL   C10049264   0.512   0.304   0.213  0.7236 -0.1502  0.2106
  103MOL   C10149265   0.434   0.242   0.315 -0.0184  0.2802  0.5992
  103MOL   C10249266   0.322   0.168   0.275 -0.5172 -0.1678 -0.1515
  103MOL   C10349267   0.288   0.151   0.137  0.3092 -0.1769  0.6025
  103MOL   S10449268   0.655   0.405   0.256 -0.4634 -0.1291  0.0957
  103MOL   O10549269   0.767   0.354   0.172  0.4903  0.4208 -0.0398
  103MOL   O10649270   0.655   0.400   0.401 -0.5149 -0.2211  0.5282
  103MOL   C10749271   0.632   0.581   0.217  0.1249  0.2185 -0.4354
  103MOL   C10849272   0.512   0.626   0.159 -0.6224 -0.4123 -0.1023
  103MOL   C10949273   0.497   0.762   0.114 -0.2672 -0.2870 -0.3857
  103MOL   C11049274   0.612   0.845   0.124  0.4573 -0.0192 -0.5767
  103MOL   C11149275   0.733   0.799   0.179 -0.9077  0.4913 -0.3560
  103MOL   C11249276   0.737   0.672   0.236  0.3882 -0.4898 -0.5897
  103MOL   O11349277   0.622   0.970   0.077  1.1234 -0.1374  0.0578
  103MOL   H11449278   0.327   0.206   8.364 -1.9128  1.0785  0.6902
  103MOL   H11549279   0.549   0.343   0.014  0.3438  0.6788  1.4946
  103MOL   H11649280   0.466   0.248   0.418  0.2290  1.9708  0.4362
  103MOL   H11749281   0.279   0.113   0.357  0.3920 -0.5740  0.0673
  103MOL   H11849282   0.429   0.558   0.143 -0.5091 -0.7836  0.8352
  103MOL   H11949283   0.404   0.794   0.070 -0.7655 -0.1215  0.7528
  103MOL   H12049284   0.819   0.864   0.192 -0.4030 -0.0760 -0.8346
  103MOL   H12149285   0.830   0.644   0.284 -0.7991 -2.1422  0.7758
  103MOL   C12249286   0.645   1.125   8.320 -0.3465 -0.3666  0.1268
  103MOL   C12349287   0.666   1.153   8.182  0.9389  0.3606 -0.0863
  103MOL   C12449288   0.678   1.050   8.086 -0.5108  0.8972  0.4340
  103MOL   C12549289   0.662   0.918   8.128 -0.0265 -0.0870  0.0094
  103MOL   C12649290   0.641   0.891   8.264  0.4565  0.4813  0.3219
  103MOL   C12749291   0.642   0.992   8.362  0.1711  0.3058  0.3011
  103MOL   S12849292   0.709   1.089   7.914  0.1464  0.3865  0.3281
  103MOL   O12949293   0.852   1.079   7.888 -0.4628  0.0898  0.0128
  103MOL   O13049294   0.635   1.213   7.896  0.2831  0.3373 -0.3693
  103MOL   C13149295   0.630   0.971   7.813 -0.3228  0.2855  0.8091
  103MOL   C13249296   0.695   0.917   7.700  0.7293  0.3009 -0.2132
  103MOL   C13349297   0.640   0.812   7.625 -0.6147 -0.1483 -0.4410
  103MOL   C13449298   0.507   0.767   7.651  0.2548 -0.4417  0.0481
  103MOL   C13549299   0.439   0.828   7.763  0.3045  0.2846 -0.1722
  103MOL   C13649300   0.498   0.930   7.845  0.4027 -0.2423  0.0813
  103MOL   O13749301   0.449   0.669   7.571 -0.3058  0.4408  0.1790
  103MOL   H13849302   0.638   1.207   8.391  1.0958 -2.2898  2.5977
  103MOL   H13949303   0.668   1.257   8.155 -1.8736  0.5069  0.0620
  103MOL   H14049304   0.673   0.830   8.066  1.1518  0.4819 -0.5769
  103MOL   H14149305   0.635   0.789   8.301  1.6533  0.3304  0.1175
  103MOL   H14249306   0.798   0.938   7.672  1.1008 -0.2757  0.7059
  103MOL   H14349307   0.696   0.783   7.537  0.6247  1.5684 -0.2607
  103MOL   H14449308   0.340   0.789   7.783  0.8578 -1.1099 -0.0448
  103MOL   H14549309   0.442   0.974   7.926 -0.2461 -0.6630 -0.1293
  103MOL   C14649310   0.339   0.723   7.360  0.2028 -0.5391 -0.2534
  103MOL   C14749311   0.339   0.719   7.218 -0.7822  0.3863  0.0460
  103MOL   C14849312   0.452   0.662   7.153 -0.1994  0.3586 -0.7795
  103MOL   C14949313   0.555   0.606   7.228  0.0313  0.1744 -0.1461
  103MOL   C15049314   0.552   0.606   7.369 -0.1457 -0.8163  0.3850
  103MOL   C15149315   0.451   0.677   7.435 -0.4747  0.6546 -0.0843
  103MOL   S15249316   0.474   0.667   6.979  0.5035 -0.2248 -0.0307
  103MOL   O15349317   0.618   0.682   6.957 -0.1032 -0.4558 -0.3991
  103MOL   O15449318   0.381   0.768   6.926 -0.1549  0.3790  0.6058
  103MOL   C15549319   0.422   0.503   6.925  0.3136  0.2311 -0.3218
  103MOL   C15649320   0.370   0.485   6.798  0.2774  0.3533  0.3653
  103MOL   C15749321   0.310   0.364   6.766  0.8690 -0.2214 -0.2839
  103MOL   C15849322   0.304   0.257   6.862  0.0829  0.5765  0.5580
  103MOL   C15949323   0.362   0.269   6.987  0.2140 -0.1321  0.0911
  103MOL   C16049324   0.418   0.394   7.020  0.2594  0.4947  0.0214
  103MOL   O16149325   0.227   0.150   6.827 -0.5288  0.1397 -0.4559
  103MOL   H16249326   0.260   0.767   7.419  1.7483  0.0154  1.4226
  103MOL   H16349327   0.263   0.765   7.157  0.5124 -1.2458 -2.9006
  103MOL   H16449328   0.649   0.576   7.185  0.4249 -2.0003  2.1333
  103MOL   H16549329   0.631   0.562   7.427  0.3943  1.7153  1.6275
  103MOL   H16649330   0.373   0.559   6.719  0.9262  2.0627  1.9713
  103MOL   H16749331   0.269   0.352   6.667 -0.0225  2.7717 -0.3381
  103MOL   H16849332   0.356   0.190   7.060 -0.3036  1.2206  1.5377
  103MOL   H16949333   0.467   0.407   7.115 -0.1535 -2.7525  0.7184
  103MOL   C17049334   0.172   8.369   6.934  0.2171  0.2971 -0.1643
  103MOL   C17149335   0.208   8.233   6.954  0.8160  0.4408  0.2891
  103MOL   C17249336   0.333   8.185   6.911  0.2128  0.4846 -0.4646
  103MOL   C17349337   0.419   8.278   6.842  0.0595 -0.6597 -0.0446
  103MOL   C17449338   0.389   8.413   6.833 -0.0784  0.0004  0.2883
  103MOL   C17549339   0.264   0.030   6.870 -0.3917 -0.4606  0.0547
  103MOL   S17649340   0.394   8.023   6.924 -0.3375  0.2596  0.5575
  103MOL   O17749341   0.298   7.954   7.009  0.0376  0.2678 -0.3254
  103MOL   O17849342   0.534   8.029   6.960 -0.4647 -0.3883  0.2190
  103MOL   C17949343   0.372   7.945   6.765  0.9530  0.6051  0.5824
  103MOL   C18049344   0.471   7.865   6.710 -0.1880  0.1690 -0.4640
  103MOL   C18149345   0.449   7.783   6.593 -0.5224  0.2241 -0.6606
  103MOL   C18249346   0.324   7.788   6.525  1.1780  0.2299 -0.0884
  103MOL   C18349347   0.225   7.875   6.581  0.2155 -0.1179  0.3627
  103MOL   C18449348   0.253   7.951   6.696  0.2824 -0.1905  0.2539
  103MOL   O18549349   0.299   7.721   6.410  0.4952  0.4268 -0.2274
  103MOL   H18649350   0.079   8.409   6.970  0.1108 -0.4549  0.4142
  103MOL   H18749351   0.150   8.158   7.005  1.7861 -0.3486  0.2543
  103MOL   H18849352   0.511   8.238   6.802 -0.6600  0.1646 -2.6268
  103MOL   H18949353   0.447   0.066   6.787 -0.0031  1.1226  2.2274
  103MOL   H19049354   0.565   7.860   6.764  0.2713 -0.4198 -1.3067
  103MOL   H19149355   0.519   7.711   6.551 -1.6559 -0.3501 -1.5966
  103MOL   H19249356   0.132   7.862   6.527  1.4683 -0.0872 -1.8687
  103MOL   H19349357   0.177   8.011   6.745  0.6207 -0.3168  0.9339
  103MOL   C19449358   0.140   7.550   6.356  0.5761 -0.1577 -0.0221
  103MOL   C19549359   0.091   7.422   6.373  1.0066  0.6123 -0.7405
  103MOL   C19649360   0.156   7.327   6.456  0.1329  0.0935  0.5463
  103MOL   C19749361   0.279   7.365   6.517 -0.4774 -0.1275  0.7154
  103MOL   C19849362   0.326   7.499   6.507 -0.3744  0.6200  0.3816
  103MOL   C19949363   0.257   7.588   6.426  0.2274  0.1471  0.0110
  103MOL   S20049364   0.072   7.176   6.500 -0.3207  0.2679  0.0516
  103MOL   O20149365   0.174   7.072   6.507 -0.5494 -0.9017  0.1581
  103MOL   O20249366   8.394   7.162   6.397  0.3822 -0.3913  0.0275
  103MOL   C20349367   8.415   7.205   6.658  0.1382  0.1840  0.3664
  103MOL   C20449368   8.354   7.096   6.726  0.1635  0.0125 -0.5050
  103MOL   C20549369   8.298   7.111   6.847  0.4870  0.1358  0.0429
  103MOL   C20649370   8.303   7.237   6.911 -0.0948 -0.8389 -0.1322
  103MOL   C20749371   8.362   7.348   6.843 -0.2128 -0.0313 -0.5728
  103MOL   C20849372   0.007   7.331   6.720  0.2418 -0.1925  0.1587
  103MOL   O20949373   8.230   7.260   7.021  0.1522 -0.5154  0.1652
  103MOL   H21049374   0.090   7.623   6.294  1.2413 -0.6263 -1.1489
  103MOL   H21149375   8.415   7.405   6.342 -0.6711  2.4483  3.3113
  103MOL   H21249376   0.328   7.291   6.578 -2.9599 -2.9750 -0.6259
  103MOL   H21349377   0.420   7.513   6.558  0.5263 -2.2843 -0.3714
  103MOL   H21449378   8.354   7.005   6.668 -0.4453 -0.9512  0.9808
  103MOL   H21549379   8.246   7.029   6.895  0.6232  0.1016  0.1323
  103MOL   H21649380   8.368   7.447   6.884 -1.8775  0.1040 -0.6292
  103MOL   H21749381   0.049   7.415   6.667  1.9443 -2.3185 -1.9878
  103MOL   C21849382   8.419   7.278   7.171 -0.5257  0.4836 -0.2857
  103MOL   C21949383   0.058   7.242   7.296 -0.2464 -0.3748 -0.1415
  103MOL   C22049384   8.408   7.174   7.395 -0.3465 -0.0291 -0.1660
  103MOL   C22149385   8.285   7.119   7.362  0.1052  0.5544 -0.5511
  103MOL   C22249386   8.229   7.149   7.232 -0.6083 -0.1799 -0.4166
  103MOL   C22349387   8.294   7.226   7.134 -0.1513 -0.1391  0.0503
  103MOL   S22449388   0.062   7.125   7.553  0.3219  0.0027 -0.2497
  103MOL   O22549389   8.382   7.126   7.659 -0.1812  0.5666 -0.4924
  103MOL   O22649390   0.179   7.211   7.570 -0.3382 -0.1319  0.5133
  103MOL   C22749391   0.123   6.965   7.528  0.2859  0.4677 -0.6642
  103MOL   C22849392   0.140   6.881   7.638  0.1332  0.6180 -0.0629
  103MOL   C22949393   0.194   6.749   7.620 -0.6570  0.9522  0.6218
  103MOL   C23049394   0.219   6.700   7.489 -0.0249 -0.6188 -0.0813
  103MOL   C23149395   0.197   6.787   7.381 -0.2142 -0.0169 -0.2033
  103MOL   C23249396   0.153   6.917   7.396  0.1417 -0.0335 -0.4071
  103MOL   O23349397   0.259   6.569   7.469  0.1026  0.0899  0.8824
  103MOL   H23449398   0.040   7.354   7.110  1.7921 -0.5861  0.1066
  103MOL   H23549399   0.154   7.286   7.316 -0.2976 -0.0719 -0.5515
  103MOL   H23649400   8.225   7.060   7.429 -1.0977  1.0746 -1.1581
  103MOL   H23749401   8.128   7.116   7.213 -0.2159 -0.0643 -2.8153
  103MOL   H23849402   0.113   6.911   7.738 -0.6890 -1.0027  0.2279
  103MOL   H23949403   0.217   6.686   7.705 -2.4856 -0.8283 -0.1644
  103MOL   H24049404   0.210   6.774   7.274 -2.3562 -0.3822 -0.4457
  103MOL   H24149405   0.140   6.982   7.311 -0.0037 -1.9840 -1.9009
  103MOL   C24249406   0.454   6.570   7.341  0.2044  0.3756  0.0762
  103MOL   C24349407   0.524   6.546   7.217 -0.0059  0.0999 -0.9095
  103MOL   C24449408   0.453   6.481   7.114 -0.8033  0.0015  0.2896
  103MOL   C24549409   0.317   6.440   7.130 -0.2496 -0.6464  0.2982
  103MOL   C24649410   0.247   6.456   7.251 -1.4335  0.1554  0.4223
  103MOL   C24749411   0.320   6.533   7.353  0.5830  0.2087 -0.0717
  103MOL   S24849412   0.528   6.467   6.958  0.0890 -0.0155  0.2023
  103MOL   O24949413   0.455   6.368   6.879 -0.4697  0.2934  0.4062
  103MOL   O25049414   0.674   6.459   6.973 -0.0966  0.8363 -0.1703
  103MOL   C25149415   0.479   6.626   6.894  0.4589 -0.5727 -0.0852
  103MOL   C25249416   0.343   6.650   6.851 -1.0840 -0.2835  0.3184
  103MOL   C25349417   0.311   6.781   6.797 -0.3325 -0.5962 -0.1612
  103MOL   C25449418   0.408   6.875   6.778  0.7989 -0.2271  0.0805
  103MOL   C25549419   0.540   6.847   6.811  0.1521 -0.5502 -0.8533
  103MOL   C25649420   0.578   6.721   6.868 -0.4341  0.5938 -0.1122
  103MOL   O25749421   0.388   7.003   6.724  0.3524  0.2645 -0.1624
  103MOL   H25849422   0.502   6.633   7.414  1.4610 -2.1078  1.4424
  103MOL   H25949423   0.628   6.573   7.208 -0.7491  2.9949 -1.2033
  103MOL   H26049424   0.269   6.394   7.045 -1.9326  1.3166  0.1490
  103MOL   H26149425   0.144   6.425   7.263 -1.5477 -0.3617 -1.6746
  103MOL   H26249426   0.265   6.576   6.861 -3.4493  1.8700 -1.5135
  103MOL   H26349427   0.207   6.801   6.777 -0.4353 -2.3014 -1.4164
  103MOL   H26449428   0.616   6.921   6.792 -0.8554  0.4856 -0.9219
  103MOL   H26549429   0.680   6.700   6.897 -0.3315 -0.9718 -1.5144
  103MOL   C26649430   0.536   7.177   6.795  0.0397  0.5562  0.5929
  103MOL   C26749431   0.561   7.290   6.876 -0.6548 -0.6033 -0.8705
  103MOL   C26849432   0.456   7.336   6.960  0.0037 -0.2825 -0.2794
  103MOL   C26949433   0.330   7.277   6.964  0.2573  0.7464  0.7669
  103MOL   C27049434   0.307   7.164   6.884  0.0376  1.2575 -0.4310
  103MOL   C27149435   0.408   7.114   6.799 -0.3097  0.9058  0.4363
  103MOL   S27249436   0.505   7.480   7.060 -0.2325  0.3228 -0.2077
  103MOL   O27349437   0.517   7.596   6.965  0.5548  0.5082 -0.4947
  103MOL   O27449438   0.622   7.447   7.140  0.4278 -0.0993  0.3211
  103MOL   C27549439   0.360   7.525   7.152 -0.3246 -0.1262  0.2598
  103MOL   C27649440   0.358   7.509   7.289 -0.5701  0.3553 -0.0557
  103MOL   C27749441   0.234   7.534   7.360 -0.2764  0.9241 -0.4927
  103MOL   C27849442   0.119   7.580   7.295  0.7188  0.5945  0.4675
  103MOL   C27949443   0.131   7.603   7.155  0.0805  0.1613 -0.2723
  103MOL   C28049444   0.251   7.583   7.082 -0.5662  0.0753 -0.2943
  103MOL   O28149445   8.424   7.611   7.346 -0.1028 -0.6584  0.0490
  103MOL   H28249446   0.621   7.141   6.738 -1.3539  1.8768 -2.4750
  103MOL   H28349447   0.662   7.327   6.884 -1.4389  1.3608  0.2577
  103MOL   H28449448   0.253   7.313   7.030 -0.7231  0.8212 -0.4081
  103MOL   H28549449   0.209   7.118   6.878  1.8832 -3.4255  2.1629
  103MOL   H28649450   0.443   7.477   7.347  0.6121 -2.2311 -3.0471
  103MOL   H28749451   0.236   7.535   7.468 -0.1826 -1.2621 -0.4489
  103MOL   H28849452   0.048   7.639   7.096  0.3456  3.2904  1.1521
  103MOL   H28949453   0.255   7.604   6.977 -1.1835 -0.3235 -0.4035
  103MOL   C29049454   0.020   7.795   7.509  0.6881 -0.1838 -0.2437
  103MOL   C29149455   8.423   7.839   7.642 -0.8647  0.1620  0.8802
  103MOL   C29249456   8.380   7.747   7.742  0.2343  0.4296  1.1155
  103MOL   C29349457   8.354   7.614   7.705  0.2998 -0.4720  0.6974
  103MOL   C29449458   8.374   7.568   7.575 -0.8446 -0.7878 -0.0715
  103MOL   C29549459   8.418   7.660   7.477  0.2532  0.1922 -0.0967
  103MOL   S29649460   8.380   7.791   7.915  0.0762  0.4550  0.0164
  103MOL   O29749461   0.021   7.685   7.991 -0.4187 -0.1538  0.3106
  103MOL   O29849462   8.238   7.829   7.940 -0.0687 -0.5366 -0.0306
  103MOL   C29949463   0.053   7.944   7.918 -0.0156  0.3156  0.7547
  103MOL   C30049464   8.411   8.070   7.916 -0.0368 -0.1494  0.6440
  103MOL   C30149465   0.067   8.184   7.940 -0.1258  0.2481  0.4750
  103MOL   C30249466   0.206   8.173   7.955 -0.0070  0.9900  0.0650
  103MOL   C30349467   0.274   8.052   7.944 -0.4358  0.0236 -0.8424
  103MOL   C30449468   0.194   7.932   7.930  0.2695  0.4379 -0.2205
  103MOL   O30549469   0.279   8.285   7.982 -0.7222 -0.2440 -0.3157
  103MOL   H30649470   0.051   7.862   7.431 -0.7297  0.9029  0.0834
  103MOL   H30749471   0.020   7.944   7.657  0.3473  0.4309 -2.4571
  103MOL   H30849472   8.320   7.544   7.779 -0.2689 -1.6759 -0.6942
  103MOL   H30949473   8.356   7.465   7.548  0.1594 -0.6357 -1.3926
  103MOL   H31049474   8.304   8.078   7.914  0.0587  1.7111  1.9945
  103MOL   H31149475   0.014   8.276   7.959  0.7821  0.9633 -0.4259
  103MOL   H31249476   0.377   8.051   7.977 -0.9062 -0.8351  0.6662
  103MOL   H31349477   0.238   7.832   7.928  1.2185  0.8623 -1.3367
  103MOL   C31449478   0.323   8.336   7.753 -0.4705  0.0553  0.3659
  103MOL   C31549479   0.405   8.393   7.654 -0.1598  0.1723 -0.0247
  103MOL   C31649480   0.530   0.034   7.695 -0.5175 -0.4460 -0.0854
  103MOL   C31749481   0.571   0.028   7.829  0.2536 -0.1085  0.3400
  103MOL   C31849482   0.484   8.396   7.924 -0.1904  0.4229 -0.5158
  103MOL   C31949483   0.362   8.336   7.888  0.9420  0.3641  0.1830
  103MOL   S32049484   0.647   0.087   7.568  0.1987  0.5682 -0.2260
  103MOL   O32149485   0.559   0.142   7.470  0.0542 -0.5192  0.0022
  103MOL   O32249486   0.730   8.392   7.535  0.0163 -0.6091  0.4682
  103MOL   C32349487   0.754   0.219   7.632 -0.7245  0.6643 -0.2659
  103MOL   C32449488   0.880   0.188   7.689  0.0426 -0.1837 -0.0473
  103MOL   C32549489   0.971   0.296   7.713  0.6926 -0.1284  0.4050
  103MOL   C32649490   0.933   0.423   7.688 -0.1419  0.7832 -0.1338
  103MOL   C32749491   0.799   0.454   7.644 -0.2637  0.1820  0.0043
  103MOL   C32849492   0.709   0.350   7.613 -0.0082  0.2598  0.6818
  103MOL   O32949493   1.029   0.514   7.709 -0.3698 -0.7417 -0.3391
  103MOL   H33049494   0.235   8.283   7.717  0.2896 -0.2991 -1.0203
  103MOL   H33149495   0.381   8.404   7.550  0.4257  3.5844  0.1279
  103MOL   H33249496   0.670   0.060   7.858  0.2980 -0.0280  0.1024
  103MOL   H33349497   0.514   8.389   8.027  1.0226  0.0161 -0.8917
  103MOL   H33449498   0.903   0.083   7.695 -2.2985 -0.6375  1.9838
  103MOL   H33549499   1.071   0.270   7.744  0.4930 -1.0984  0.2477
  103MOL   H33649500   0.776   0.558   7.625 -0.7917 -0.3029 -2.1795
  103MOL   H33749501   0.609   0.368   7.577  0.7757 -0.4813 -1.9855
  103MOL   C33849502   1.139   0.521   7.497 -0.7487  0.7393  0.2895
  103MOL   C33949503   1.189   0.580   7.381  0.0288 -0.1079  0.9836
  103MOL   C34049504   1.160   0.717   7.356 -0.1899  0.0508 -0.7076
  103MOL   C34149505   1.080   0.783   7.452  0.7824 -0.4058  0.0885
  103MOL   C34249506   1.036   0.726   7.572 -0.4519  0.4834  0.0737
  103MOL   C34349507   1.070   0.585   7.598 -0.3492 -0.6165 -0.1212
  103MOL   S34449508   1.233   0.809   7.228 -0.4531 -0.2313  0.0343
  103MOL   O34549509   1.321   0.715   7.163  0.9834 -0.3514 -0.0919
  103MOL   O34649510   1.291   0.936   7.273 -0.2375  0.0423  0.2057
  103MOL   C34749511   1.107   0.857   7.112 -0.8916 -0.0583 -0.1392
  103MOL   C34849512   1.080   0.995   7.092 -0.0951  0.0242  0.4218
  103MOL   C34949513   0.992   1.032   6.987 -0.8607 -0.6993 -0.1783
  103MOL   C35049514   0.917   0.930   6.919 -0.2058 -0.0600  0.3508
  103MOL   C35149515   0.940   0.799   6.944  0.1768  0.0284 -0.3372
  103MOL   C35249516   1.035   0.758   7.041  0.0284  0.5146 -0.1741
  103MOL   O35349517   0.825   0.973   6.830 -0.3806 -0.0230  0.3244
  103MOL   H35449518   1.163   0.416   7.502 -0.6938  0.7390  0.0360
  103MOL   H35549519   1.244   0.523   7.308 -0.0328  2.0328 -0.7721
  103MOL   H35649520   1.063   0.888   7.432 -0.6278 -0.3947  1.2213
  103MOL   H35749521   0.992   0.780   7.654  1.8833  0.7356  1.2171
  103MOL   H35849522   1.138   1.076   7.133  0.5576 -0.5150  0.5788
  103MOL   H35949523   0.975   1.137   6.969 -0.6180 -0.4204  1.1035
  103MOL   H36049524   0.880   0.733   6.882 -1.2918  2.1006 -1.1956
  103MOL   H36149525   1.066   0.655   7.049 -0.3271  0.3740 -0.6753
  103MOL   C36249526   0.655   0.996   7.013  0.3839  0.9639 -0.1061
  103MOL   C36349527   0.526   1.035   7.055 -0.2422 -0.3564 -0.0856
  103MOL   C36449528   0.443   1.096   6.961  0.2941  0.4193  0.5175
  103MOL   C36549529   0.491   1.130   6.830  0.2422  0.5119  0.6547
  103MOL   C36649530   0.619   1.091   6.787 -0.5674 -0.3818  0.0104
  103MOL   C36749531   0.703   1.018   6.878 -0.4445  0.5895 -0.0807
  103MOL   S36849532   0.260   1.114   6.998 -0.1622 -0.4512  0.0751
  103MOL   O36949533   0.208   0.989   7.059  0.9607 -0.8614  0.1562
  103MOL   O37049534   0.193   1.165   6.877 -0.3914  0.3391 -0.0614
  103MOL   C37149535   0.260   1.244   7.123 -0.4236 -0.4645  0.5114
  103MOL   C37249536   0.231   1.377   7.083  0.0464 -0.7037 -0.1816
  103MOL   C37349537   0.232   1.472   7.189 -0.1945 -0.2596  0.3878
  103MOL   C37449538   0.254   1.434   7.324  0.2577  0.3006 -0.0902
  103MOL   C37549539   0.269   1.299   7.358 -0.1706 -0.2546  0.1776
  103MOL   C37649540   0.282   1.205   7.259  0.9414  0.2112 -0.3294
  103MOL   O37749541   0.252   1.522   7.431 -0.1147 -0.0094  0.5401
  103MOL   H37849542   0.710   0.941   7.088  0.2051  1.6997  0.5856
  103MOL   H37949543   0.482   0.998   7.147 -0.6315 -0.7629 -0.4318
  103MOL   H38049544   0.423   1.177   6.760  3.3542  0.0476 -2.8143
  103MOL   H38149545   0.654   1.121   6.689  0.9388  0.8125  0.8813
  103MOL   H38249546   0.200   1.396   6.981 -0.4870  0.8058  0.2566
  103MOL   H38349547   0.210   1.572   7.155 -1.3621 -0.8632 -0.7241
  103MOL   H38449548   0.269   1.268   7.461  0.6971 -0.9527 -0.0286
  103MOL   H38549549   0.288   1.102   7.292  2.2687 -0.1406 -1.6227
  103MOL   C38649550   0.466   1.632   7.357  0.1342 -0.2128  0.0185
  103MOL   C38749551   0.563   1.731   7.392 -0.5239  0.2120 -1.3725
  103MOL   C38849552   0.566   1.813   7.505 -0.3751 -0.3347  0.7320
  103MOL   C38949553   0.456   1.799   7.589  0.8381 -0.5797 -0.3614
  103MOL   C39049554   0.356   1.707   7.556  0.0285 -0.4717  0.1787
  103MOL   C39149555   0.354   1.621   7.445  0.2126 -0.8781  0.0582
  103MOL   S39249556   0.706   1.914   7.539  0.1330 -0.3353 -0.0396
  103MOL   O39349557   0.702   1.939   7.683  1.1055  0.0045 -0.0787
  103MOL   O39449558   0.710   2.023   7.434  0.1712 -0.1828 -0.1936
  103MOL   C39549559   0.846   1.808   7.495  0.3154  0.2177 -0.0117
  103MOL   C39649560   0.918   1.837   7.374  0.4233  0.6391  0.2168
  103MOL   C39749561   1.017   1.742   7.324  0.8265 -0.3392 -0.0556
  103MOL   C39849562   1.045   1.632   7.398 -0.2693  0.8252  0.6614
  103MOL   C39949563   0.979   1.605   7.517 -0.0045 -0.0897  0.1463
  103MOL   C40049564   0.871   1.687   7.562 -0.3798  0.4457 -1.3328
  103MOL   O40149565   1.144   1.537   7.372 -0.0626  0.5542 -0.8532
  103MOL   H40249566   0.473   1.571   7.268  0.8341 -0.6427  0.3571
  103MOL   H40349567   0.654   1.735   7.334 -0.0157  3.4307 -0.4818
  103MOL   H40449568   0.451   1.851   7.684  1.4530 -0.0817 -0.5988
  103MOL   H40549569   0.272   1.711   7.623  0.6675 -1.1349  1.0265
  103MOL   H40649570   0.894   1.921   7.312 -1.5221  0.4202  0.6501
  103MOL   H40749571   1.065   1.757   7.228  3.3428 -2.5913  0.7870
  103MOL   H40849572   1.005   1.518   7.575 -0.3982  0.1304  0.6595
  103MOL   H40949573   0.813   1.657   7.649 -0.2099  1.0079 -1.0286
  103MOL   C41049574   1.081   1.452   7.155  0.4848 -0.4900 -0.1024
  103MOL   C41149575   1.105   1.419   7.020 -0.2740  0.3941  0.2009
  103MOL   C41249576   1.226   1.465   6.962  0.1994  0.4953  0.1368
  103MOL   C41349577   1.324   1.530   7.041  0.8155 -0.3028  0.9185
  103MOL   C41449578   1.300   1.553   7.180 -0.0332  0.7802  0.4864
  103MOL   C41549579   1.179   1.509   7.243 -0.3526 -0.9036 -0.0023
  103MOL   S41649580   1.240   1.478   6.782 -0.4225  0.1561  0.0305
  103MOL   O41749581   1.386   1.481   6.755 -0.1973 -0.2013  0.3489
  103MOL   O41849582   1.161   1.597   6.747  0.8263 -0.0048 -0.0620
  103MOL   C41949583   1.178   1.333   6.695 -0.6719  0.3953  0.1311
  103MOL   C42049584   1.258   1.230   6.645 -0.2175 -0.0237 -0.3453
  103MOL   C42149585   1.203   1.119   6.589 -0.4821  0.1815  0.4077
  103MOL   C42249586   1.062   1.113   6.566  0.5893 -0.2185 -0.1852
  103MOL   C42349587   0.978   1.211   6.611 -0.3912 -0.7457  0.5573
  103MOL   C42449588   1.040   1.325   6.674  0.3919 -0.0639 -0.0123
  103MOL   O42549589   1.010   1.010   6.493  0.1505  0.0628  0.0246
  103MOL   H42649590   0.988   1.423   7.201 -0.1793  2.8860  0.8632
  103MOL   H42749591   1.029   1.378   6.955  0.7771  1.0558 -1.4892
  103MOL   H42849592   1.421   1.557   7.004 -0.2179  1.0777 -0.8494
  103MOL   H42949593   1.374   1.598   7.245  3.0544 -1.9622 -0.9382
  103MOL   H43049594   1.365   1.230   6.652 -0.2532 -1.0433  0.3284
  103MOL   H43149595   1.274   1.047   6.551  0.7543  0.4013  2.2840
  103MOL   H43249596   0.872   1.204   6.596 -0.3395 -1.5114  0.5578
  103MOL   H43349597   0.976   1.403   6.712  3.9860  2.3970  1.2431
  103MOL   C43449598   1.169   0.825   6.467 -0.1166  0.4808 -0.6420
  103MOL   C43549599   1.216   0.710   6.533 -0.4363  0.1498 -0.0204
  103MOL   C43649600   1.139   0.647   6.630 -0.2454 -0.5105 -0.1986
  103MOL   C43749601   1.008   0.689   6.660  0.0228 -0.3882 -0.2629
  103MOL   C43849602   0.959   0.808   6.602 -0.2060  0.4615 -0.7828
  103MOL   C43949603   1.046   0.880   6.520 -0.1905  0.4226 -0.4013
  103MOL   S44049604   1.211   0.498   6.697  0.2572 -0.1758  0.4105
  103MOL   O44149605   1.215   0.395   6.595  0.0795  0.0399  0.2169
  103MOL   O44249606   1.137   0.469   6.823 -0.0070  0.3269 -0.2466
  103MOL   C44349607   1.380   0.535   6.749  0.3587 -0.3581 -0.0746
  103MOL   C44449608   1.489   0.476   6.683 -0.0722 -0.3444  0.6793
  103MOL   C44549609   1.617   0.479   6.748  0.3652  0.7161 -0.1989
  103MOL   C44649610   1.632   0.541   6.872 -0.6473 -0.3684  0.3704
  103MOL   C44749611   1.521   0.617   6.929  0.7022  0.0779 -0.4831
  103MOL   C44849612   1.396   0.616   6.866  0.4460  0.1517  0.5993
  103MOL   O44949613   1.749   0.535   6.943  0.2001 -0.0136  0.5419
  103MOL   H45049614   1.235   0.879   6.401  0.4268  0.3323 -0.2185
  103MOL   H45149615   1.315   0.675   6.508 -0.6269  0.1553 -0.7918
  103MOL   H45249616   0.959   0.614   6.720  0.2969  1.4272  2.3302
  103MOL   H45349617   0.863   0.846   6.633 -0.6409 -2.3269  1.5842
  103MOL   H45449618   1.480   0.425   6.588  1.0270 -0.6645  0.7395
  103MOL   H45549619   1.708   0.442   6.702 -0.0134 -1.5755  0.8641
  103MOL   H45649620   1.531   0.669   7.024 -0.1473  1.2735 -1.0464
  103MOL   H45749621   1.311   0.661   6.915 -1.9532 -2.5101 -0.9017
  103MOL   C45849622   1.809   0.766   6.981 -0.1131  0.0861 -0.1871
  103MOL   C45949623   1.905   0.868   6.950 -0.1943  1.4057 -0.0699
  103MOL   C46049624   2.025   0.834   6.885 -0.3235 -0.2532  0.4776
  103MOL   C46149625   2.049   0.703   6.841 -1.0131 -0.0616  0.0390
  103MOL   C46249626   1.950   0.606   6.868  0.0522  0.7707  0.0872
  103MOL   C46349627   1.837   0.637   6.936  0.3649 -0.1447 -0.2091
  103MOL   S46449628   2.159   0.953   6.854 -0.1061 -0.2232  0.5337
  103MOL   O46549629   2.191   0.948   6.711 -0.1544 -0.5882 -0.0272
  103MOL   O46649630   2.269   0.915   6.942 -0.2009 -0.1337  0.0168
  103MOL   C46749631   2.106   1.116   6.910 -0.2665 -0.0562  0.5977
  103MOL   C46849632   1.997   1.185   6.854 -0.2070  0.2087 -0.6974
  103MOL   C46949633   1.960   1.314   6.897  0.5524 -0.1271 -0.2109
  103MOL   C47049634   2.028   1.367   7.006  0.1335 -0.6970 -0.1998
  103MOL   C47149635   2.141   1.305   7.065  0.3249 -0.6485 -0.7514
  103MOL   C47249636   2.177   1.178   7.014 -0.7280  0.1824 -0.3906
  103MOL   O47349637   1.979   1.485   7.055 -0.1706  0.2545 -0.3119
  103MOL   H47449638   1.717   0.790   7.031 -0.7595 -1.4953 -0.5822
  103MOL   H47549639   1.886   0.970   6.980  2.0872  1.9043 -0.2720
  103MOL   H47649640   2.132   0.676   6.778 -1.4154  0.2696 -0.6416
  103MOL   H47749641   1.947   0.511   6.816 -2.0508  0.4414  0.7885
  103MOL   H47849642   1.946   1.154   6.763 -0.3086 -3.0132  0.4058
  103MOL   H47949643   1.892   1.372   6.837  2.6325  0.3080 -2.2186
  103MOL   H48049644   2.200   1.344   7.147  0.8380 -1.2774 -0.8200
  103MOL   H48149645   2.261   1.123   7.054 -1.6557 -0.3207  0.8848
  103MOL   H48249646   2.035   1.535   7.113  0.4299 -0.7678  0.0073
   8.42508   8.42508   8.42508
